BDT dimerization
205661
    1BDT   BNZ1    1  27.601  13.887  22.966
    1BDT   BNZ2    2  27.441  13.935  23.036
    1BDT   BNZ3    3  27.622  13.945  23.211
    1BDT    BS1    4  27.788  13.890  23.118
    1BDT    BS2    5  27.441  13.994  23.269
    2BDT   BNZ1    6  10.344  17.339  17.582
    2BDT   BNZ2    7  10.447  17.397  17.721
    2BDT   BNZ3    8  10.344  17.172  17.771
    2BDT    BS1    9  10.238  17.125  17.612
    2BDT    BS2   10  10.459  17.250  17.911
    3BDT   BNZ1   11  22.470  15.276   4.899
    3BDT   BNZ2   12  22.473  15.192   5.061
    3BDT   BNZ3   13  22.237  15.222   4.977
    3BDT    BS1   14  22.252  15.313   4.803
    3BDT    BS2   15  22.259  15.132   5.152
    4BDT   BNZ1   16  16.137   3.374  21.719
    4BDT   BNZ2   17  15.960   3.346  21.691
    4BDT   BNZ3   18  16.039   3.225  21.897
    4BDT    BS1   19  16.232   3.265  21.912
    4BDT    BS2   20  15.849   3.207  21.851
    5BDT   BNZ1   21  27.970  12.896  24.379
    5BDT   BNZ2   22  28.101  12.772  24.345
    5BDT   BNZ3   23  28.145  12.988  24.222
    5BDT    BS1   24  27.996  13.108  24.269
    5BDT    BS2   25  28.276  12.843  24.197
    6BDT   BNZ1   26  28.902  21.422   5.298
    6BDT   BNZ2   27  28.870  21.313   5.157
    6BDT   BNZ3   28   0.010  21.197   5.332
    6BDT    BS1   29   0.035  21.329   5.477
    6BDT    BS2   30  28.965  21.093   5.170
    7BDT   BNZ1   31  21.682  26.357  28.593
    7BDT   BNZ2   32  21.526  26.408  28.514
    7BDT   BNZ3   33  21.725  26.504  28.393
    7BDT    BS1   34  21.884  26.438  28.491
    7BDT    BS2   35  21.548  26.549  28.321
    8BDT   BNZ1   36  17.848   8.975   6.659
    8BDT   BNZ2   37  17.919   8.827   6.582
    8BDT   BNZ3   38  17.884   9.009   6.412
    8BDT    BS1   39  17.807   9.162   6.511
    8BDT    BS2   40  17.961   8.840   6.346
    9BDT   BNZ1   41   6.266  24.233  10.790
    9BDT   BNZ2   42   6.381  24.332  10.691
    9BDT   BNZ3   43   6.488  24.117  10.765
    9BDT    BS1   44   6.350  24.022  10.871
    9BDT    BS2   45   6.598  24.237  10.656
   10BDT   BNZ1   46  28.692  10.140  17.586
   10BDT   BNZ2   47  28.724   9.962  17.595
   10BDT   BNZ3   48  28.708  10.041  17.356
   10BDT    BS1   49  28.673  10.235  17.365
   10BDT    BS2   50  28.743   9.849  17.384
   11BDT   BNZ1   51  10.383  10.554   6.613
   11BDT   BNZ2   52  10.343  10.406   6.713
   11BDT   BNZ3   53  10.134  10.527   6.641
   11BDT    BS1   54  10.194  10.682   6.537
   11BDT    BS2   55  10.110  10.364   6.750
   12BDT   BNZ1   56   9.362  23.145  21.054
   12BDT   BNZ2   57   9.320  23.113  21.230
   12BDT   BNZ3   58   9.270  23.352  21.167
   12BDT    BS1   59   9.320  23.369  20.977
   12BDT    BS2   60   9.232  23.299  21.353
   13BDT   BNZ1   61  25.311   9.968  15.821
   13BDT   BNZ2   62  25.449   9.852  15.848
   13BDT   BNZ3   63  25.507  10.022  15.671
   13BDT    BS1   64  25.348  10.138  15.655
   13BDT    BS2   65  25.645   9.888  15.714
   14BDT   BNZ1   66  11.920  17.479  25.285
   14BDT   BNZ2   67  11.976  17.449  25.115
   14BDT   BNZ3   68  12.008  17.691  25.180
   14BDT    BS1   69  11.942  17.705  25.366
   14BDT    BS2   70  12.064  17.640  24.999
   15BDT   BNZ1   71  13.678  25.515  11.861
   15BDT   BNZ2   72  13.676  25.691  11.842
   15BDT   BNZ3   73  13.441  25.599  11.842
   15BDT    BS1   74  13.463  25.402  11.865
   15BDT    BS2   75  13.459  25.792  11.822
   16BDT   BNZ1   76  14.393  20.222  22.832
   16BDT   BNZ2   77  14.247  20.117  22.861
   16BDT   BNZ3   78  14.460  19.986  22.889
   16BDT    BS1   79  14.606  20.114  22.854
   16BDT    BS2   80  14.291  19.888  22.917
   17BDT   BNZ1   81  25.638   5.521   6.412
   17BDT   BNZ2   82  25.555   5.680   6.408
   17BDT   BNZ3   83  25.425   5.515   6.547
   17BDT    BS1   84  25.529   5.346   6.540
   17BDT    BS2   85  25.350   5.695   6.531
   18BDT   BNZ1   86  11.223  26.343  24.122
   18BDT   BNZ2   87  11.363  26.357  24.233
   18BDT   BNZ3   88  11.440  26.353  23.993
   18BDT    BS1   89  11.273  26.337  23.885
   18BDT    BS2   90  11.579  26.368  24.129
   19BDT   BNZ1   91   0.348  18.201  18.271
   19BDT   BNZ2   92   0.248  18.268  18.133
   19BDT   BNZ3   93   0.479  18.204  18.055
   19BDT    BS1   94   0.573  18.135  18.214
   19BDT    BS2   95   0.356  18.278  17.919
   20BDT   BNZ1   96  22.521  28.078  23.731
   20BDT   BNZ2   97  22.611  27.942  23.657
   20BDT   BNZ3   98  22.558  27.894  23.898
   20BDT    BS1   99  22.460  28.054  23.964
   20BDT    BS2  100  22.656  27.755  23.801
   21BDT   BNZ1  101  28.450   4.217   7.450
   21BDT   BNZ2  102  28.459   4.189   7.272
   21BDT   BNZ3  103  28.428   3.972   7.395
   21BDT    BS1  104  28.420   4.020   7.587
   21BDT    BS2  105  28.440   3.961   7.199
   22BDT   BNZ1  106   1.951  14.117   9.709
   22BDT   BNZ2  107   1.943  13.965   9.612
   22BDT   BNZ3  108   1.764  14.127   9.540
   22BDT    BS1  109   1.787  14.286   9.655
   22BDT    BS2  110   1.772  13.955   9.445
   23BDT   BNZ1  111  24.606  15.504  13.747
   23BDT   BNZ2  112  24.591  15.325  13.775
   23BDT   BNZ3  113  24.833  15.396  13.776
   23BDT    BS1  114  24.831  15.592  13.744
   23BDT    BS2  115  24.797  15.205  13.805
   24BDT   BNZ1  116   6.662  22.320  23.765
   24BDT   BNZ2  117   6.823  22.299  23.838
   24BDT   BNZ3  118   6.664  22.204  23.995
   24BDT    BS1  119   6.473  22.237  23.892
   24BDT    BS2  120   6.828  22.191  24.052
   25BDT   BNZ1  121  13.018  15.006   8.916
   25BDT   BNZ2  122  12.875  15.090   8.846
   25BDT   BNZ3  123  13.054  15.057   8.672
   25BDT    BS1  124  13.203  14.965   8.766
   25BDT    BS2  125  12.889  15.146   8.613
   26BDT   BNZ1  126   5.633  11.731   9.718
   26BDT   BNZ2  127   5.793  11.676   9.785
   26BDT   BNZ3  128   5.788  11.926   9.755
   26BDT    BS1  129   5.610  11.968   9.683
   26BDT    BS2  130   5.955  11.848   9.827
   27BDT   BNZ1  131   0.995  13.638  12.990
   27BDT   BNZ2  132   1.008  13.754  13.131
   27BDT   BNZ3  133   1.096  13.526  13.193
   27BDT    BS1  134   1.075  13.415  13.031
   27BDT    BS2  135   1.102  13.664  13.333
   28BDT   BNZ1  136  11.360  13.774  27.226
   28BDT   BNZ2  137  11.331  13.952  27.207
   28BDT   BNZ3  138  11.130  13.818  27.135
   28BDT    BS1  139  11.178  13.629  27.163
   28BDT    BS2  140  11.116  14.014  27.121
   29BDT   BNZ1  141  28.823  22.800  21.258
   29BDT   BNZ2  142  28.937  22.914  21.178
   29BDT   BNZ3  143  28.904  22.975  21.420
   29BDT    BS1  144  28.777  22.840  21.492
   29BDT    BS2  145   0.025  23.089  21.317
   30BDT   BNZ1  146  10.042  25.394  24.625
   30BDT   BNZ2  147   9.975  25.492  24.488
   30BDT   BNZ3  148   9.790  25.387  24.623
   30BDT    BS1  149   9.880  25.286  24.767
   30BDT    BS2  150   9.736  25.497  24.470
   31BDT   BNZ1  151   9.256   2.406  11.862
   31BDT   BNZ2  152   9.195   2.290  11.736
   31BDT   BNZ3  153   9.077   2.511  11.720
   31BDT    BS1  154   9.155   2.625  11.862
   31BDT    BS2  155   9.023   2.373  11.591
   32BDT   BNZ1  156  13.087  21.450  12.971
   32BDT   BNZ2  157  13.224  21.544  13.043
   32BDT   BNZ3  158  13.113  21.673  12.857
   32BDT    BS1  159  12.968  21.556  12.791
   32BDT    BS2  160  13.264  21.761  12.948
   33BDT   BNZ1  161  17.239  19.691   9.706
   33BDT   BNZ2  162  17.324  19.847   9.741
   33BDT   BNZ3  163  17.369  19.677   9.921
   33BDT    BS1  164  17.270  19.515   9.868
   33BDT    BS2  165  17.454  19.853   9.943
   34BDT   BNZ1  166  14.009  20.383  19.474
   34BDT   BNZ2  167  13.835  20.331  19.457
   34BDT   BNZ3  168  13.958  20.186  19.622
   34BDT    BS1  169  14.143  20.256  19.628
   34BDT    BS2  170  13.768  20.144  19.592
   35BDT   BNZ1  171   8.978  24.985   2.316
   35BDT   BNZ2  172   8.815  24.930   2.378
   35BDT   BNZ3  173   8.899  25.130   2.506
   35BDT    BS1  174   9.074  25.176   2.427
   35BDT    BS2  175   8.724  25.057   2.560
   36BDT   BNZ1  176  27.712   6.098   0.393
   36BDT   BNZ2  177  27.797   6.204   0.513
   36BDT   BNZ3  178  27.940   6.165   0.309
   36BDT    BS1  179  27.833   6.050   0.190
   36BDT    BS2  180  28.017   6.278   0.452
   37BDT   BNZ1  181  11.328  17.468  12.727
   37BDT   BNZ2  182  11.295  17.640  12.711
   37BDT   BNZ3  183  11.114  17.528  12.846
   37BDT    BS1  184  11.168  17.335  12.854
   37BDT    BS2  185  11.094  17.719  12.817
   38BDT   BNZ1  186  16.780  20.158   1.074
   38BDT   BNZ2  187  16.737  20.094   1.240
   38BDT   BNZ3  188  16.986  20.094   1.204
   38BDT    BS1  189  17.014  20.165   1.022
   38BDT    BS2  190  16.921  20.028   1.379
   39BDT   BNZ1  191   7.493   1.084  26.570
   39BDT   BNZ2  192   7.667   1.130  26.602
   39BDT   BNZ3  193   7.511   1.321  26.652
   39BDT    BS1  194   7.330   1.255  26.612
   39BDT    BS2  195   7.703   1.354  26.681
   40BDT   BNZ1  196  21.813   9.126   9.222
   40BDT   BNZ2  197  21.952   9.009   9.239
   40BDT   BNZ3  198  21.929   9.089   9.001
   40BDT    BS1  199  21.775   9.212   9.000
   40BDT    BS2  200  22.075   8.962   9.039
   41BDT   BNZ1  201  27.767   1.777   6.452
   41BDT   BNZ2  202  27.944   1.804   6.476
   41BDT   BNZ3  203  27.849   1.663   6.662
   41BDT    BS1  204  27.656   1.643   6.620
   41BDT    BS2  205  28.041   1.702   6.671
   42BDT   BNZ1  206  25.386   7.094  12.708
   42BDT   BNZ2  207  25.217   7.160  12.716
   42BDT   BNZ3  208  25.343   7.255  12.519
   42BDT    BS1  209  25.523   7.173  12.526
   42BDT    BS2  210  25.157   7.316  12.544
   43BDT   BNZ1  211  27.766  17.607  24.019
   43BDT   BNZ2  212  27.797  17.575  24.194
   43BDT   BNZ3  213  27.798  17.360  24.062
   43BDT    BS1  214  27.763  17.413  23.874
   43BDT    BS2  215  27.830  17.345  24.255
   44BDT   BNZ1  216  23.325  28.705  19.388
   44BDT   BNZ2  217  23.451  28.798  19.480
   44BDT   BNZ3  218  23.221  28.848  19.568
   44BDT    BS1  219  23.097  28.740  19.458
   44BDT    BS2  220  23.371  28.940  19.656
   45BDT   BNZ1  221   2.420   9.690  14.371
   45BDT   BNZ2  222   2.266   9.609  14.314
   45BDT   BNZ3  223   2.288   9.598  14.565
   45BDT    BS1  224   2.457   9.688  14.609
   45BDT    BS2  225   2.127   9.516  14.485
   46BDT   BNZ1  226   9.884  17.443  27.339
   46BDT   BNZ2  227  10.032  17.544  27.376
   46BDT   BNZ3  228  10.060  17.417  27.160
   46BDT    BS1  229   9.893  17.315  27.136
   46BDT    BS2  230  10.211  17.532  27.216
   47BDT   BNZ1  231   0.947  14.062  15.895
   47BDT   BNZ2  232   1.015  14.004  15.736
   47BDT   BNZ3  233   0.776  14.078  15.711
   47BDT    BS1  234   0.718  14.136  15.890
   47BDT    BS2  235   0.866  14.012  15.549
   48BDT   BNZ1  236   7.845  17.585  14.736
   48BDT   BNZ2  237   7.813  17.764  14.728
   48BDT   BNZ3  238   7.948  17.686  14.530
   48BDT    BS1  239   7.973  17.492  14.554
   48BDT    BS2  240   7.905  17.879  14.538
   49BDT   BNZ1  241   4.560  26.457  21.283
   49BDT   BNZ2  242   4.597  26.291  21.221
   49BDT   BNZ3  243   4.801  26.396  21.324
   49BDT    BS1  244   4.744  26.576  21.386
   49BDT    BS2  245   4.822  26.215  21.252
   50BDT   BNZ1  246   8.949   1.042  27.118
   50BDT   BNZ2  247   8.772   1.016  27.084
   50BDT   BNZ3  248   8.916   0.865  26.942
   50BDT    BS1  249   9.102   0.907  26.991
   50BDT    BS2  250   8.721   0.850  26.918
   51BDT   BNZ1  251  23.885  20.626  28.915
   51BDT   BNZ2  252  23.701  20.634  28.917
   51BDT   BNZ3  253  23.802  20.796   0.081
   51BDT    BS1  254  23.997  20.775   0.066
   51BDT    BS2  255  23.605  20.791   0.070
   52BDT   BNZ1  256  22.231  25.401  18.486
   52BDT   BNZ2  257  22.260  25.438  18.663
   52BDT   BNZ3  258  22.368  25.610  18.514
   52BDT    BS1  259  22.328  25.555  18.329
   52BDT    BS2  260  22.389  25.635  18.709
   53BDT   BNZ1  261  12.191  12.680  20.164
   53BDT   BNZ2  262  12.321  12.570  20.094
   53BDT   BNZ3  263  12.218  12.471  20.302
   53BDT    BS1  264  12.084  12.599  20.363
   53BDT    BS2  265  12.360  12.365  20.213
   54BDT   BNZ1  266  22.499  24.033  16.209
   54BDT   BNZ2  267  22.630  23.960  16.103
   54BDT   BNZ3  268  22.725  24.047  16.320
   54BDT    BS1  269  22.573  24.121  16.420
   54BDT    BS2  270  22.853  23.965  16.193
   55BDT   BNZ1  271   7.335   1.627   4.088
   55BDT   BNZ2  272   7.484   1.608   4.195
   55BDT   BNZ3  273   7.276   1.527   4.312
   55BDT    BS1  274   7.128   1.554   4.186
   55BDT    BS2  275   7.446   1.514   4.412
   56BDT   BNZ1  276  11.821   1.688  19.112
   56BDT   BNZ2  277  11.868   1.823  19.222
   56BDT   BNZ3  278  11.808   1.616  19.353
   56BDT    BS1  279  11.760   1.479  19.218
   56BDT    BS2  280  11.862   1.774  19.457
   57BDT   BNZ1  281  13.884  18.690   7.225
   57BDT   BNZ2  282  13.705  18.704   7.264
   57BDT   BNZ3  283  13.777  18.463   7.248
   57BDT    BS1  284  13.969  18.466   7.208
   57BDT    BS2  285  13.586  18.497   7.289
   58BDT   BNZ1  286  28.865  13.996   5.313
   58BDT   BNZ2  287  28.944  13.843   5.370
   58BDT   BNZ3  288   0.015  14.040   5.511
   58BDT    BS1  289  28.921  14.197   5.436
   58BDT    BS2  290   0.092  13.865   5.558
   59BDT   BNZ1  291   4.718  11.367  24.203
   59BDT   BNZ2  292   4.637  11.524  24.247
   59BDT   BNZ3  293   4.517  11.410  24.057
   59BDT    BS1  294   4.617  11.244  24.022
   59BDT    BS2  295   4.443  11.582  24.119
   60BDT   BNZ1  296   0.687  11.304  22.243
   60BDT   BNZ2  297   0.649  11.179  22.369
   60BDT   BNZ3  298   0.460  11.344  22.345
   60BDT    BS1  299   0.517  11.471  22.206
   60BDT    BS2  300   0.436  11.200  22.478
   61BDT   BNZ1  301  15.637   0.961  24.587
   61BDT   BNZ2  302  15.805   0.940  24.514
   61BDT   BNZ3  303  15.697   1.155  24.437
   61BDT    BS1  304  15.521   1.161  24.523
   61BDT    BS2  305  15.879   1.116  24.368
   62BDT   BNZ1  306  15.240  24.968  13.551
   62BDT   BNZ2  307  15.253  24.894  13.386
   62BDT   BNZ3  308  15.453  25.039  13.436
   62BDT    BS1  309  15.423  25.110  13.618
   62BDT    BS2  310  15.450  24.950  13.260
   63BDT   BNZ1  311  23.499  10.125   2.192
   63BDT   BNZ2  312  23.330  10.165   2.133
   63BDT   BNZ3  313  23.445  10.003   1.978
   63BDT    BS1  314  23.623   9.971   2.055
   63BDT    BS2  315  23.261  10.058   1.930
   64BDT   BNZ1  316  28.582  14.553   3.341
   64BDT   BNZ2  317  28.454  14.673   3.294
   64BDT   BNZ3  318  28.404  14.444   3.200
   64BDT    BS1  319  28.551  14.328   3.259
   64BDT    BS2  320  28.274  14.588   3.159
   65BDT   BNZ1  321  23.026   0.081   7.527
   65BDT   BNZ2  322  22.929  28.966   7.628
   65BDT   BNZ3  323  22.779   0.120   7.497
   65BDT    BS1  324  22.900   0.238   7.394
   65BDT    BS2  325  22.691  28.987   7.613
   66BDT   BNZ1  326  17.571  11.155  20.572
   66BDT   BNZ2  327  17.660  11.303  20.631
   66BDT   BNZ3  328  17.445  11.270  20.758
   66BDT    BS1  329  17.362  11.107  20.682
   66BDT    BS2  330  17.554  11.426  20.808
   67BDT   BNZ1  331   0.920  13.466  28.685
   67BDT   BNZ2  332   0.906  13.306  28.770
   67BDT   BNZ3  333   1.133  13.409  28.807
   67BDT    BS1  334   1.130  13.581  28.710
   67BDT    BS2  335   1.100  13.234  28.892
   68BDT   BNZ1  336   6.164  25.547   5.150
   68BDT   BNZ2  337   6.205  25.715   5.210
   68BDT   BNZ3  338   5.965  25.700   5.136
   68BDT    BS1  339   5.938  25.515   5.075
   68BDT    BS2  340   6.027  25.875   5.204
   69BDT   BNZ1  341  20.619  27.294  17.421
   69BDT   BNZ2  342  20.643  27.313  17.240
   69BDT   BNZ3  343  20.570  27.079  17.298
   69BDT    BS1  344  20.549  27.076  17.493
   69BDT    BS2  345  20.602  27.118  17.107
   70BDT   BNZ1  346  12.381  14.433  17.715
   70BDT   BNZ2  347  12.231  14.366  17.792
   70BDT   BNZ3  348  12.410  14.190  17.773
   70BDT    BS1  349  12.564  14.278  17.688
   70BDT    BS2  350  12.238  14.135  17.854
   71BDT   BNZ1  351   0.909   3.042  12.494
   71BDT   BNZ2  352   0.904   2.885  12.588
   71BDT   BNZ3  353   1.104   3.024  12.654
   71BDT    BS1  354   1.094   3.188  12.545
   71BDT    BS2  355   1.082   2.850  12.745
   72BDT   BNZ1  356  18.358  25.207   3.678
   72BDT   BNZ2  357  18.302  25.132   3.525
   72BDT   BNZ3  358  18.530  25.235   3.496
   72BDT    BS1  359  18.575  25.313   3.673
   72BDT    BS2  360  18.452  25.148   3.339
   73BDT   BNZ1  361  12.427  24.840  21.842
   73BDT   BNZ2  362  12.325  24.979  21.787
   73BDT   BNZ3  363  12.322  24.957  22.038
   73BDT    BS1  364  12.437  24.802  22.080
   73BDT    BS2  365  12.216  25.104  21.961
   74BDT   BNZ1  366  12.249  17.659  11.419
   74BDT   BNZ2  367  12.159  17.517  11.490
   74BDT   BNZ3  368  12.012  17.721  11.477
   74BDT    BS1  369  12.123  17.863  11.399
   74BDT    BS2  370  11.931  17.558  11.552
   75BDT   BNZ1  371  16.936  11.746  17.136
   75BDT   BNZ2  372  16.804  11.670  17.035
   75BDT   BNZ3  373  17.002  11.516  17.057
   75BDT    BS1  374  17.134  11.612  17.168
   75BDT    BS2  375  16.850  11.451  16.950
   76BDT   BNZ1  376  20.667   1.832   8.488
   76BDT   BNZ2  377  20.837   1.825   8.556
   76BDT   BNZ3  378  20.836   1.792   8.306
   76BDT    BS1  379  20.648   1.802   8.251
   76BDT    BS2  380  21.013   1.788   8.396
   77BDT   BNZ1  381  18.920  14.699  16.811
   77BDT   BNZ2  382  19.093  14.759  16.822
   77BDT   BNZ3  383  18.992  14.724  17.051
   77BDT    BS1  384  18.809  14.661  17.021
   77BDT    BS2  385  19.180  14.789  17.044
   78BDT   BNZ1  386  17.194  14.475   9.154
   78BDT   BNZ2  387  17.374  14.452   9.157
   78BDT   BNZ3  388  17.293  14.501   8.923
   78BDT    BS1  389  17.097  14.524   8.938
   78BDT    BS2  390  17.487  14.473   8.946
   79BDT   BNZ1  391   3.517   1.420  19.723
   79BDT   BNZ2  392   3.653   1.502  19.816
   79BDT   BNZ3  393   3.603   1.623  19.601
   79BDT    BS1  394   3.457   1.523  19.515
   79BDT    BS2  395   3.747   1.698  19.714
   80BDT   BNZ1  396  12.504  25.377  13.044
   80BDT   BNZ2  397  12.505  25.223  13.140
   80BDT   BNZ3  398  12.327  25.381  13.223
   80BDT    BS1  399  12.340  25.541  13.109
   80BDT    BS2  400  12.342  25.208  13.317
   81BDT   BNZ1  401  15.079  18.241  14.243
   81BDT   BNZ2  402  15.005  18.280  14.081
   81BDT   BNZ3  403  14.964  18.465  14.247
   81BDT    BS1  404  15.048  18.407  14.415
   81BDT    BS2  405  14.891  18.491  14.066
   82BDT   BNZ1  406  10.163   0.681  27.893
   82BDT   BNZ2  407  10.048   0.784  27.797
   82BDT   BNZ3  408  10.071   0.554  27.696
   82BDT    BS1  409  10.198   0.457  27.811
   82BDT    BS2  410   9.949   0.680  27.604
   83BDT   BNZ1  411  25.516  13.501  12.110
   83BDT   BNZ2  412  25.509  13.626  11.976
   83BDT   BNZ3  413  25.736  13.622  12.086
   83BDT    BS1  414  25.726  13.485  12.226
   83BDT    BS2  415  25.710  13.752  11.938
   84BDT   BNZ1  416  23.115  21.299  28.586
   84BDT   BNZ2  417  23.237  21.322  28.715
   84BDT   BNZ3  418  23.341  21.218  28.511
   84BDT    BS1  419  23.194  21.200  28.379
   84BDT    BS2  420  23.460  21.250  28.664
   85BDT   BNZ1  421  27.459  27.585  12.668
   85BDT   BNZ2  422  27.489  27.416  12.724
   85BDT   BNZ3  423  27.381  27.418  12.496
   85BDT    BS1  424  27.355  27.609  12.451
   85BDT    BS2  425  27.421  27.242  12.573
   86BDT   BNZ1  426  23.447  14.162  17.583
   86BDT   BNZ2  427  23.620  14.219  17.578
   86BDT   BNZ3  428  23.496  14.319  17.773
   86BDT    BS1  429  23.313  14.247  17.763
   86BDT    BS2  430  23.685  14.371  17.753
   87BDT   BNZ1  431  14.566  15.283   3.259
   87BDT   BNZ2  432  14.620  15.126   3.180
   87BDT   BNZ3  433  14.419  15.090   3.327
   87BDT    BS1  434  14.375  15.265   3.403
   87BDT    BS2  435  14.491  14.931   3.233
   88BDT   BNZ1  436   5.008  19.097  22.473
   88BDT   BNZ2  437   5.056  19.161  22.308
   88BDT   BNZ3  438   5.244  19.032  22.415
   88BDT    BS1  439   5.177  18.971  22.589
   88BDT    BS2  440   5.279  19.109  22.236
   89BDT   BNZ1  441   9.107  19.063  19.001
   89BDT   BNZ2  442   9.227  18.936  18.962
   89BDT   BNZ3  443   9.318  19.165  18.909
   89BDT    BS1  444   9.174  19.292  18.958
   89BDT    BS2  445   9.436  19.012  18.873
   90BDT   BNZ1  446  28.359  25.020  28.887
   90BDT   BNZ2  447  28.410  24.936   0.041
   90BDT   BNZ3  448  28.587  25.097  28.962
   90BDT    BS1  449  28.516  25.178  28.797
   90BDT    BS2  450  28.625  24.996   0.127
   91BDT   BNZ1  451   9.340  22.719   2.871
   91BDT   BNZ2  452   9.159  22.719   2.859
   91BDT   BNZ3  453   9.264  22.624   2.650
   91BDT    BS1  454   9.459  22.632   2.680
   91BDT    BS2  455   9.068  22.632   2.655
   92BDT   BNZ1  456  18.893  21.582  27.318
   92BDT   BNZ2  457  18.829  21.515  27.160
   92BDT   BNZ3  458  18.909  21.752  27.133
   92BDT    BS1  459  18.973  21.809  27.310
   92BDT    BS2  460  18.837  21.663  26.972
   93BDT   BNZ1  461  18.463  12.548  19.559
   93BDT   BNZ2  462  18.566  12.668  19.467
   93BDT   BNZ3  463  18.460  12.775  19.668
   93BDT    BS1  464  18.354  12.634  19.755
   93BDT    BS2  465  18.575  12.891  19.556
   94BDT   BNZ1  466   8.866  15.919   3.259
   94BDT   BNZ2  467   8.797  16.088   3.269
   94BDT   BNZ3  468   8.880  16.014   3.494
   94BDT    BS1  469   8.951  15.830   3.466
   94BDT    BS2  470   8.803  16.193   3.485
   95BDT   BNZ1  471  23.534   6.422  23.851
   95BDT   BNZ2  472  23.403   6.397  23.735
   95BDT   BNZ3  473  23.335   6.316  23.963
   95BDT    BS1  474  23.493   6.351  24.080
   95BDT    BS2  475  23.203   6.297  23.822
   96BDT   BNZ1  476  24.992   3.682  18.322
   96BDT   BNZ2  477  24.930   3.854  18.315
   96BDT   BNZ3  478  25.013   3.797  18.546
   96BDT    BS1  479  25.075   3.611  18.536
   96BDT    BS2  480  24.942   3.979  18.519
   97BDT   BNZ1  481  19.714  16.288  21.555
   97BDT   BNZ2  482  19.850  16.336  21.666
   97BDT   BNZ3  483  19.938  16.251  21.446
   97BDT    BS1  484  19.779  16.203  21.339
   97BDT    BS2  485  20.072  16.308  21.578
   98BDT   BNZ1  486   5.957   7.818   8.163
   98BDT   BNZ2  487   5.996   7.690   8.286
   98BDT   BNZ3  488   5.757   7.672   8.208
   98BDT    BS1  489   5.732   7.817   8.076
   98BDT    BS2  490   5.816   7.541   8.342
   99BDT   BNZ1  491   0.721   4.151  13.180
   99BDT   BNZ2  492   0.800   3.997  13.119
   99BDT   BNZ3  493   0.662   3.954  13.325
   99BDT    BS1  494   0.584   4.127  13.376
   99BDT    BS2  495   0.755   3.799  13.246
  100BDT   BNZ1  496  24.024  28.274  15.255
  100BDT   BNZ2  497  24.107  28.148  15.150
  100BDT   BNZ3  498  23.872  28.192  15.072
  100BDT    BS1  499  23.798  28.328  15.194
  100BDT    BS2  500  23.976  28.058  14.970
  101BDT   BNZ1  501  11.027   1.374  21.270
  101BDT   BNZ2  502  10.968   1.209  21.324
  101BDT   BNZ3  503  11.071   1.198  21.095
  101BDT    BS1  504  11.129   1.382  21.053
  101BDT    BS2  505  11.002   1.029  21.170
  102BDT   BNZ1  506   4.410  20.046  13.125
  102BDT   BNZ2  507   4.374  19.966  12.968
  102BDT   BNZ3  508   4.622  19.966  13.015
  102BDT    BS1  509   4.642  20.057  13.189
  102BDT    BS2  510   4.564  19.882  12.847
  103BDT   BNZ1  511  11.935  12.046   9.495
  103BDT   BNZ2  512  12.025  11.960   9.362
  103BDT   BNZ3  513  11.932  12.180   9.281
  103BDT    BS1  514  11.839  12.260   9.436
  103BDT    BS2  515  12.034  12.073   9.150
  104BDT   BNZ1  516   6.626  17.167  14.871
  104BDT   BNZ2  517   6.563  17.139  14.701
  104BDT   BNZ3  518   6.663  17.369  14.726
  104BDT    BS1  519   6.725  17.382  14.911
  104BDT    BS2  520   6.590  17.322  14.548
  105BDT   BNZ1  521  14.931  17.136   8.746
  105BDT   BNZ2  522  14.809  17.062   8.857
  105BDT   BNZ3  523  14.705  17.121   8.635
  105BDT    BS1  524  14.851  17.200   8.527
  105BDT    BS2  525  14.587  17.039   8.768
  106BDT   BNZ1  526  26.311  14.367  13.468
  106BDT   BNZ2  527  26.457  14.260  13.452
  106BDT   BNZ3  528  26.410  14.383  13.237
  106BDT    BS1  529  26.249  14.493  13.272
  106BDT    BS2  530  26.565  14.262  13.238
  107BDT   BNZ1  531   5.367  13.685   3.780
  107BDT   BNZ2  532   5.489  13.583   3.694
  107BDT   BNZ3  533   5.350  13.444   3.852
  107BDT    BS1  534   5.223  13.571   3.936
  107BDT    BS2  535   5.488  13.349   3.749
  108BDT   BNZ1  536  27.698  10.790  27.959
  108BDT   BNZ2  537  27.766  10.948  27.897
  108BDT   BNZ3  538  27.516  10.938  27.866
  108BDT    BS1  539  27.460  10.762  27.937
  108BDT    BS2  540  27.607  11.102  27.805
  109BDT   BNZ1  541   0.686  15.563   4.444
  109BDT   BNZ2  542   0.780  15.496   4.302
  109BDT   BNZ3  543   0.785  15.338   4.499
  109BDT    BS1  544   0.681  15.424   4.641
  109BDT    BS2  545   0.882  15.281   4.335
  110BDT   BNZ1  546  21.595  22.226   1.422
  110BDT   BNZ2  547  21.492  22.229   1.572
  110BDT   BNZ3  548  21.679  22.397   1.587
  110BDT    BS1  549  21.779  22.382   1.418
  110BDT    BS2  550  21.557  22.386   1.742
  111BDT   BNZ1  551   8.780  17.056  21.564
  111BDT   BNZ2  552   8.649  16.946  21.624
  111BDT   BNZ3  553   8.814  16.999  21.807
  111BDT    BS1  554   8.948  17.119  21.725
  111BDT    BS2  555   8.665  16.879  21.854
  112BDT   BNZ1  556  22.057   8.228  10.375
  112BDT   BNZ2  557  21.909   8.147  10.309
  112BDT   BNZ3  558  22.107   7.991  10.307
  112BDT    BS1  559  22.258   8.094  10.381
  112BDT    BS2  560  21.936   7.919  10.239
  113BDT   BNZ1  561  27.585   5.536   9.454
  113BDT   BNZ2  562  27.692   5.562   9.306
  113BDT   BNZ3  563  27.747   5.726   9.490
  113BDT    BS1  564  27.625   5.684   9.638
  113BDT    BS2  565  27.852   5.740   9.323
  114BDT   BNZ1  566   3.089  10.753  20.546
  114BDT   BNZ2  567   2.992  10.907  20.537
  114BDT   BNZ3  568   2.984  10.807  20.768
  114BDT    BS1  569   3.094  10.643  20.760
  114BDT    BS2  570   2.884  10.975  20.740
  115BDT   BNZ1  571  18.227   1.355  22.325
  115BDT   BNZ2  572  18.371   1.243  22.310
  115BDT   BNZ3  573  18.189   1.141  22.451
  115BDT    BS1  574  18.044   1.273  22.457
  115BDT    BS2  575  18.353   1.033  22.424
  116BDT   BNZ1  576  14.383  24.309  25.126
  116BDT   BNZ2  577  14.558  24.266  25.113
  116BDT   BNZ3  578  14.474  24.229  25.347
  116BDT    BS1  579  14.282  24.280  25.344
  116BDT    BS2  580  14.663  24.187  25.313
  117BDT   BNZ1  581  18.264   6.694  21.932
  117BDT   BNZ2  582  18.436   6.635  21.960
  117BDT   BNZ3  583  18.384   6.655  21.714
  117BDT    BS1  584  18.199   6.719  21.702
  117BDT    BS2  585  18.566   6.592  21.762
  118BDT   BNZ1  586  24.359  22.721   5.297
  118BDT   BNZ2  587  24.302  22.891   5.315
  118BDT   BNZ3  588  24.546  22.871   5.376
  118BDT    BS1  589  24.592  22.680   5.351
  118BDT    BS2  590  24.466  23.050   5.389
  119BDT   BNZ1  591  15.370   3.373  13.695
  119BDT   BNZ2  592  15.341   3.548  13.731
  119BDT   BNZ3  593  15.517   3.520  13.553
  119BDT    BS1  594  15.536   3.324  13.527
  119BDT    BS2  595  15.472   3.704  13.604
  120BDT   BNZ1  596   2.012  10.975  25.580
  120BDT   BNZ2  597   2.001  11.077  25.729
  120BDT   BNZ3  598   2.024  11.221  25.524
  120BDT    BS1  599   2.035  11.095  25.372
  120BDT    BS2  600   2.011  11.315  25.696
  121BDT   BNZ1  601  25.046   3.021   5.394
  121BDT   BNZ2  602  25.089   3.102   5.551
  121BDT   BNZ3  603  24.904   3.226   5.433
  121BDT    BS1  604  24.870   3.125   5.266
  121BDT    BS2  605  24.964   3.299   5.605
  122BDT   BNZ1  606  26.857  14.474   7.747
  122BDT   BNZ2  607  26.897  14.637   7.681
  122BDT   BNZ3  608  27.087  14.476   7.643
  122BDT    BS1  609  27.027  14.304   7.720
  122BDT    BS2  610  27.112  14.659   7.577
  123BDT   BNZ1  611  15.443  22.041  13.178
  123BDT   BNZ2  612  15.263  22.054  13.200
  123BDT   BNZ3  613  15.379  22.038  13.422
  123BDT    BS1  614  15.572  22.024  13.381
  123BDT    BS2  615  15.183  22.054  13.426
  124BDT   BNZ1  616   6.149  22.697  16.317
  124BDT   BNZ2  617   6.162  22.721  16.497
  124BDT   BNZ3  618   5.931  22.644  16.431
  124BDT    BS1  619   5.935  22.624  16.235
  124BDT    BS2  620   5.964  22.675  16.623
  125BDT   BNZ1  621   4.246  19.498  24.506
  125BDT   BNZ2  622   4.119  19.607  24.437
  125BDT   BNZ3  623   4.021  19.384  24.500
  125BDT    BS1  624   4.172  19.278  24.573
  125BDT    BS2  625   3.897  19.516  24.423
  126BDT   BNZ1  626  15.158   3.092  28.399
  126BDT   BNZ2  627  15.253   3.248  28.410
  126BDT   BNZ3  628  15.404   3.051  28.368
  126BDT    BS1  629  15.288   2.894  28.360
  126BDT    BS2  630  15.490   3.230  28.382
  127BDT   BNZ1  631  26.619   1.504  10.845
  127BDT   BNZ2  632  26.486   1.382  10.818
  127BDT   BNZ3  633  26.398   1.590  10.930
  127BDT    BS1  634  26.553   1.710  10.951
  127BDT    BS2  635  26.267   1.447  10.893
  128BDT   BNZ1  636  16.643   0.235  21.037
  128BDT   BNZ2  637  16.714   0.379  21.120
  128BDT   BNZ3  638  16.495   0.437  21.008
  128BDT    BS1  639  16.433   0.269  20.923
  128BDT    BS2  640  16.587   0.582  21.103
  129BDT   BNZ1  641  22.016  13.421   7.614
  129BDT   BNZ2  642  21.965  13.593   7.583
  129BDT   BNZ3  643  22.186  13.542   7.472
  129BDT    BS1  644  22.226  13.354   7.516
  129BDT    BS2  645  22.114  13.725   7.449
  130BDT   BNZ1  646  25.826  21.038   9.254
  130BDT   BNZ2  647  25.933  21.058   9.106
  130BDT   BNZ3  648  26.053  20.934   9.290
  130BDT    BS1  649  25.926  20.921   9.439
  130BDT    BS2  650  26.153  20.964   9.122
  131BDT   BNZ1  651  27.140  13.971  14.711
  131BDT   BNZ2  652  27.269  13.948  14.588
  131BDT   BNZ3  653  27.337  14.119  14.760
  131BDT    BS1  654  27.185  14.131  14.886
  131BDT    BS2  655  27.467  14.081  14.617
  132BDT   BNZ1  656  27.101  18.556  13.743
  132BDT   BNZ2  657  27.114  18.657  13.591
  132BDT   BNZ3  658  27.112  18.802  13.797
  132BDT    BS1  659  27.097  18.678  13.950
  132BDT    BS2  660  27.126  18.894  13.624
  133BDT   BNZ1  661  23.159   7.316  16.875
  133BDT   BNZ2  662  23.275   7.407  16.984
  133BDT   BNZ3  663  23.316   7.461  16.741
  133BDT    BS1  664  23.185   7.356  16.639
  133BDT    BS2  665  23.432   7.551  16.874
  134BDT   BNZ1  666  17.149  13.087  10.712
  134BDT   BNZ2  667  17.307  13.181  10.712
  134BDT   BNZ3  668  17.348  12.932  10.717
  134BDT    BS1  669  17.170  12.848  10.717
  134BDT    BS2  670  17.508  13.049  10.717
  135BDT   BNZ1  671   2.019  20.394  18.182
  135BDT   BNZ2  672   2.153  20.467  18.086
  135BDT   BNZ3  673   2.233  20.265  18.212
  135BDT    BS1  674   2.075  20.198  18.311
  135BDT    BS2  675   2.366  20.358  18.102
  136BDT   BNZ1  676  12.541   2.457  28.948
  136BDT   BNZ2  677  12.549   2.281  28.903
  136BDT   BNZ3  678  12.358   2.396  28.785
  136BDT    BS1  679  12.364   2.585  28.845
  136BDT    BS2  680  12.382   2.204  28.749
  137BDT   BNZ1  681  22.399   1.740  18.109
  137BDT   BNZ2  682  22.355   1.877  17.997
  137BDT   BNZ3  683  22.600   1.884  18.058
  137BDT    BS1  684  22.630   1.730  18.177
  137BDT    BS2  685  22.534   2.026  17.937
  138BDT   BNZ1  686  27.048  21.024  20.304
  138BDT   BNZ2  687  27.153  20.895  20.229
  138BDT   BNZ3  688  26.955  20.948  20.083
  138BDT    BS1  689  26.854  21.088  20.178
  138BDT    BS2  690  27.080  20.809  20.018
  139BDT   BNZ1  691  22.336  16.970  11.743
  139BDT   BNZ2  692  22.406  16.834  11.645
  139BDT   BNZ3  693  22.169  16.884  11.576
  139BDT    BS1  694  22.110  17.033  11.691
  139BDT    BS2  695  22.261  16.738  11.480
  140BDT   BNZ1  696  26.750   0.256  14.334
  140BDT   BNZ2  697  26.760   0.258  14.514
  140BDT   BNZ3  698  26.872   0.461  14.415
  140BDT    BS1  699  26.850   0.443  14.219
  140BDT    BS2  700  26.874   0.446  14.611
  141BDT   BNZ1  701  20.269  24.707  12.534
  141BDT   BNZ2  702  20.155  24.811  12.434
  141BDT   BNZ3  703  20.028  24.636  12.563
  141BDT    BS1  704  20.163  24.535  12.664
  141BDT    BS2  705  19.922  24.758  12.449
  142BDT   BNZ1  706   9.614  16.302  28.614
  142BDT   BNZ2  707   9.495  16.343  28.485
  142BDT   BNZ3  708   9.410  16.414  28.712
  142BDT    BS1  709   9.552  16.361  28.840
  142BDT    BS2  710   9.293  16.451  28.559
  143BDT   BNZ1  711  17.201  22.411  14.480
  143BDT   BNZ2  712  17.292  22.266  14.538
  143BDT   BNZ3  713  17.417  22.384  14.354
  143BDT    BS1  714  17.304  22.538  14.303
  143BDT    BS2  715  17.502  22.223  14.430
  144BDT   BNZ1  716  19.070   0.441  16.465
  144BDT   BNZ2  717  19.169   0.424  16.619
  144BDT   BNZ3  718  19.005   0.615  16.635
  144BDT    BS1  719  18.909   0.619  16.464
  144BDT    BS2  720  19.120   0.583  16.793
  145BDT   BNZ1  721  22.151  14.476  19.011
  145BDT   BNZ2  722  22.329  14.463  19.050
  145BDT   BNZ3  723  22.280  14.672  18.919
  145BDT    BS1  724  22.085  14.671  18.886
  145BDT    BS2  725  22.468  14.641  18.970
  146BDT   BNZ1  726   6.609  25.213  18.120
  146BDT   BNZ2  727   6.483  25.333  18.064
  146BDT   BNZ3  728   6.407  25.095  18.028
  146BDT    BS1  729   6.553  24.981  18.093
  146BDT    BS2  730   6.282  25.239  17.972
  147BDT   BNZ1  731  11.083  18.136  14.973
  147BDT   BNZ2  732  11.233  18.202  14.893
  147BDT   BNZ3  733  11.079  18.095  14.725
  147BDT    BS1  734  10.924  18.030  14.827
  147BDT    BS2  735  11.247  18.173  14.655
  148BDT   BNZ1  736  24.754   6.172  24.796
  148BDT   BNZ2  737  24.876   6.071  24.884
  148BDT   BNZ3  738  24.651   5.958  24.881
  148BDT    BS1  739  24.531   6.080  24.782
  148BDT    BS2  740  24.796   5.863  24.973
  149BDT   BNZ1  741  28.577  14.314   6.024
  149BDT   BNZ2  742  28.560  14.474   5.940
  149BDT   BNZ3  743  28.377  14.440   6.109
  149BDT    BS1  744  28.410  14.263   6.190
  149BDT    BS2  745  28.374  14.609   6.008
  150BDT   BNZ1  746  24.052  10.552  28.225
  150BDT   BNZ2  747  23.917  10.429  28.216
  150BDT   BNZ3  748  24.008  10.482  27.987
  150BDT    BS1  749  24.152  10.614  28.015
  150BDT    BS2  750  23.861  10.351  27.996
  151BDT   BNZ1  751  16.155   1.572  21.451
  151BDT   BNZ2  752  16.256   1.521  21.591
  151BDT   BNZ3  753  16.031   1.605  21.668
  151BDT    BS1  754  15.934   1.656  21.503
  151BDT    BS2  755  16.156   1.544  21.808
  152BDT   BNZ1  756  10.258  27.220  24.519
  152BDT   BNZ2  757  10.255  27.039  24.532
  152BDT   BNZ3  758  10.232  27.146  24.758
  152BDT    BS1  759  10.238  27.341  24.726
  152BDT    BS2  760  10.231  26.950  24.753
  153BDT   BNZ1  761  13.270  10.430   6.255
  153BDT   BNZ2  762  13.221  10.322   6.119
  153BDT   BNZ3  763  13.403  10.216   6.258
  153BDT    BS1  764  13.444  10.347   6.401
  153BDT    BS2  765  13.336  10.112   6.105
  154BDT   BNZ1  766  27.583  28.961  14.865
  154BDT   BNZ2  767  27.410  28.922  14.831
  154BDT   BNZ3  768  27.430   0.129  14.974
  154BDT    BS1  769  27.625   0.157  15.000
  154BDT    BS2  770  27.248   0.071  14.928
  155BDT   BNZ1  771  28.498  15.499  12.247
  155BDT   BNZ2  772  28.579  15.340  12.215
  155BDT   BNZ3  773  28.740  15.506  12.315
  155BDT    BS1  774  28.636  15.671  12.343
  155BDT    BS2  775  28.811  15.327  12.274
  156BDT   BNZ1  776   2.227  29.000  27.904
  156BDT   BNZ2  777   2.254   0.160  27.820
  156BDT   BNZ3  778   2.010   0.095  27.817
  156BDT    BS1  779   1.999  28.922  27.911
  156BDT    BS2  780   2.058   0.266  27.730
  157BDT   BNZ1  781  27.469  27.827  23.159
  157BDT   BNZ2  782  27.292  27.813  23.114
  157BDT   BNZ3  783  27.429  27.903  22.922
  157BDT    BS1  784  27.615  27.912  22.988
  157BDT    BS2  785  27.235  27.881  22.891
  158BDT   BNZ1  786   0.530   4.990   4.714
  158BDT   BNZ2  787   0.367   5.044   4.774
  158BDT   BNZ3  788   0.347   4.840   4.627
  158BDT    BS1  789   0.532   4.796   4.571
  158BDT    BS2  790   0.180   4.912   4.700
  159BDT   BNZ1  791  24.375  10.855  16.073
  159BDT   BNZ2  792  24.218  10.764  16.066
  159BDT   BNZ3  793  24.183  10.999  16.150
  159BDT    BS1  794  24.361  11.083  16.151
  159BDT    BS2  795  24.023  10.885  16.136
  160BDT   BNZ1  796   1.077  22.399  13.633
  160BDT   BNZ2  797   1.021  22.365  13.803
  160BDT   BNZ3  798   1.090  22.606  13.775
  160BDT    BS1  799   1.148  22.625  13.588
  160BDT    BS2  800   1.026  22.552  13.954
  161BDT   BNZ1  801  27.935   8.993  26.175
  161BDT   BNZ2  802  27.957   8.813  26.149
  161BDT   BNZ3  803  28.128   8.945  26.019
  161BDT    BS1  804  28.091   9.134  26.058
  161BDT    BS2  805  28.136   8.748  26.003
  162BDT   BNZ1  806  11.765  17.602   5.011
  162BDT   BNZ2  807  11.938  17.552   5.012
  162BDT   BNZ3  808  11.885  17.688   4.807
  162BDT    BS1  809  11.693  17.734   4.822
  162BDT    BS2  810  12.070  17.625   4.825
  163BDT   BNZ1  811  18.407  26.000   4.911
  163BDT   BNZ2  812  18.552  26.110   4.932
  163BDT   BNZ3  813  18.437  26.151   4.711
  163BDT    BS1  814  18.285  26.027   4.705
  163BDT    BS2  815  18.597  26.261   4.751
  164BDT   BNZ1  816  17.984   3.660  14.998
  164BDT   BNZ2  817  18.076   3.508  15.028
  164BDT   BNZ3  818  17.935   3.568  15.228
  164BDT    BS1  819  17.841   3.736  15.178
  164BDT    BS2  820  18.043   3.405  15.242
  165BDT   BNZ1  821  28.066  19.437  12.083
  165BDT   BNZ2  822  28.215  19.330  12.074
  165BDT   BNZ3  823  28.265  19.547  12.192
  165BDT    BS1  824  28.096  19.648  12.193
  165BDT    BS2  825  28.415  19.419  12.172
  166BDT   BNZ1  826  10.315  26.897  20.502
  166BDT   BNZ2  827  10.470  26.995  20.489
  166BDT   BNZ3  828  10.440  26.843  20.290
  166BDT    BS1  829  10.271  26.747  20.319
  166BDT    BS2  830  10.602  26.956  20.293
  167BDT   BNZ1  831  15.685  14.083  13.601
  167BDT   BNZ2  832  15.566  14.220  13.623
  167BDT   BNZ3  833  15.614  14.179  13.379
  167BDT    BS1  834  15.743  14.030  13.373
  167BDT    BS2  835  15.487  14.324  13.422
  168BDT   BNZ1  836   7.472  15.182   3.747
  168BDT   BNZ2  837   7.618  15.074   3.738
  168BDT   BNZ3  838   7.548  15.111   3.977
  168BDT    BS1  839   7.390  15.230   3.969
  168BDT    BS2  840   7.704  14.995   3.948
  169BDT   BNZ1  841   9.748  25.829  26.946
  169BDT   BNZ2  842   9.882  25.718  27.002
  169BDT   BNZ3  843   9.679  25.587  26.929
  169BDT    BS1  844   9.546  25.721  26.873
  169BDT    BS2  845   9.835  25.483  26.993
  170BDT   BNZ1  846  17.133   3.035   7.040
  170BDT   BNZ2  847  16.953   3.006   7.016
  170BDT   BNZ3  848  17.045   2.864   7.203
  170BDT    BS1  849  17.236   2.907   7.215
  170BDT    BS2  850  16.852   2.846   7.163
  171BDT   BNZ1  851   5.589   7.445  16.201
  171BDT   BNZ2  852   5.760   7.397  16.176
  171BDT   BNZ3  853   5.736   7.533  16.386
  171BDT    BS1  854   5.542   7.577  16.399
  171BDT    BS2  855   5.916   7.472  16.342
  172BDT   BNZ1  856   7.690  19.909  17.473
  172BDT   BNZ2  857   7.625  19.818  17.327
  172BDT   BNZ3  858   7.562  19.703  17.542
  172BDT    BS1  859   7.638  19.812  17.686
  172BDT    BS2  860   7.501  19.618  17.374
  173BDT   BNZ1  861  18.636   8.992   2.051
  173BDT   BNZ2  862  18.524   9.039   2.188
  173BDT   BNZ3  863  18.766   9.050   2.260
  173BDT    BS1  864  18.872   8.997   2.102
  173BDT    BS2  865  18.630   9.098   2.395
  174BDT   BNZ1  866   7.131  16.466  18.542
  174BDT   BNZ2  867   7.106  16.335  18.668
  174BDT   BNZ3  868   7.302  16.484  18.726
  174BDT    BS1  869   7.314  16.616  18.581
  174BDT    BS2  870   7.261  16.337  18.852
  175BDT   BNZ1  871  16.533  24.122  26.411
  175BDT   BNZ2  872  16.537  24.130  26.229
  175BDT   BNZ3  873  16.300  24.137  26.315
  175BDT    BS1  874  16.314  24.127  26.512
  175BDT    BS2  875  16.324  24.144  26.119
  176BDT   BNZ1  876  11.373   9.855  28.381
  176BDT   BNZ2  877  11.424   9.707  28.472
  176BDT   BNZ3  878  11.488   9.916  28.597
  176BDT    BS1  879  11.426  10.066  28.485
  176BDT    BS2  880  11.536   9.745  28.681
  177BDT   BNZ1  881   3.389  27.031  23.830
  177BDT   BNZ2  882   3.510  27.071  23.959
  177BDT   BNZ3  883   3.444  27.277  23.830
  177BDT    BS1  884   3.314  27.216  23.695
  177BDT    BS2  885   3.575  27.302  23.975
  178BDT   BNZ1  886   3.589  26.844   4.453
  178BDT   BNZ2  887   3.419  26.860   4.388
  178BDT   BNZ3  888   3.420  26.758   4.619
  178BDT    BS1  889   3.609  26.749   4.673
  178BDT    BS2  890   3.243  26.782   4.533
  179BDT   BNZ1  891  23.709  18.685  14.047
  179BDT   BNZ2  892  23.636  18.680  14.215
  179BDT   BNZ3  893  23.820  18.852  14.199
  179BDT    BS1  894  23.887  18.843  14.014
  179BDT    BS2  895  23.729  18.834  14.374
  180BDT   BNZ1  896  24.367  14.568  22.262
  180BDT   BNZ2  897  24.342  14.743  22.306
  180BDT   BNZ3  898  24.539  14.716  22.152
  180BDT    BS1  899  24.552  14.522  22.115
  180BDT    BS2  900  24.497  14.899  22.210
  181BDT   BNZ1  901  23.062  21.809   3.583
  181BDT   BNZ2  902  23.125  21.959   3.666
  181BDT   BNZ3  903  23.313  21.821   3.572
  181BDT    BS1  904  23.228  21.664   3.488
  181BDT    BS2  905  23.363  21.987   3.665
  182BDT   BNZ1  906   7.369   6.319  15.373
  182BDT   BNZ2  907   7.272   6.195  15.463
  182BDT   BNZ3  908   7.349   6.379  15.616
  182BDT    BS1  909   7.452   6.504  15.503
  182BDT    BS2  910   7.242   6.235  15.698
  183BDT   BNZ1  911  13.335   3.851   3.304
  183BDT   BNZ2  912  13.157   3.843   3.328
  183BDT   BNZ3  913  13.220   4.045   3.191
  183BDT    BS1  914  13.418   4.038   3.175
  183BDT    BS2  915  13.029   4.019   3.228
  184BDT   BNZ1  916  22.458  19.337  20.223
  184BDT   BNZ2  917  22.546  19.395  20.370
  184BDT   BNZ3  918  22.642  19.177  20.288
  184BDT    BS1  919  22.535  19.128  20.129
  184BDT    BS2  920  22.725  19.256  20.448
  185BDT   BNZ1  921  11.087   3.148  10.971
  185BDT   BNZ2  922  10.953   3.098  10.860
  185BDT   BNZ3  923  11.153   3.177  10.729
  185BDT    BS1  924  11.289   3.227  10.864
  185BDT    BS2  925  10.997   3.118  10.625
  186BDT   BNZ1  926   4.916   4.178  23.502
  186BDT   BNZ2  927   5.022   4.298  23.413
  186BDT   BNZ3  928   5.126   4.229  23.632
  186BDT    BS1  929   5.001   4.101  23.714
  186BDT    BS2  930   5.227   4.359  23.522
  187BDT   BNZ1  931  19.647   5.362  13.371
  187BDT   BNZ2  932  19.749   5.507  13.346
  187BDT   BNZ3  933  19.624   5.448  13.136
  187BDT    BS1  934  19.517   5.286  13.181
  187BDT    BS2  935  19.741   5.604  13.127
  188BDT   BNZ1  936  26.907  10.777  20.911
  188BDT   BNZ2  937  27.012  10.643  20.964
  188BDT   BNZ3  938  26.769  10.579  20.982
  188BDT    BS1  939  26.668  10.739  20.919
  188BDT    BS2  940  26.899  10.444  21.036
  189BDT   BNZ1  941   5.387  28.645  14.625
  189BDT   BNZ2  942   5.345  28.821  14.631
  189BDT   BNZ3  943   5.480  28.767  14.425
  189BDT    BS1  944   5.517  28.572  14.435
  189BDT    BS2  945   5.425  28.954  14.449
  190BDT   BNZ1  946   7.624  17.376   1.496
  190BDT   BNZ2  947   7.493  17.391   1.620
  190BDT   BNZ3  948   7.684  17.546   1.672
  190BDT    BS1  949   7.817  17.517   1.528
  190BDT    BS2  950   7.532  17.548   1.797
  191BDT   BNZ1  951  10.512  25.718  16.748
  191BDT   BNZ2  952  10.469  25.555  16.683
  191BDT   BNZ3  953  10.692  25.631  16.594
  191BDT    BS1  954  10.723  25.810  16.674
  191BDT    BS2  955  10.629  25.455  16.535
  192BDT   BNZ1  956  22.315   2.485   0.325
  192BDT   BNZ2  957  22.183   2.610   0.331
  192BDT   BNZ3  958  22.109   2.395   0.439
  192BDT    BS1  959  22.262   2.272   0.424
  192BDT    BS2  960  21.979   2.543   0.437
  193BDT   BNZ1  961  16.284   6.729   0.815
  193BDT   BNZ2  962  16.224   6.681   0.650
  193BDT   BNZ3  963  16.329   6.486   0.768
  193BDT    BS1  964  16.388   6.554   0.944
  193BDT    BS2  965  16.258   6.452   0.587
  194BDT   BNZ1  966  26.196  17.336  19.792
  194BDT   BNZ2  967  26.285  17.494  19.784
  194BDT   BNZ3  968  26.444  17.299  19.772
  194BDT    BS1  969  26.331  17.137  19.782
  194BDT    BS2  970  26.524  17.478  19.765
  195BDT   BNZ1  971  15.177   8.422  17.957
  195BDT   BNZ2  972  15.157   8.252  17.894
  195BDT   BNZ3  973  15.000   8.411  17.777
  195BDT    BS1  974  15.035   8.588  17.856
  195BDT    BS2  975  14.992   8.221  17.722
  196BDT   BNZ1  976  10.740  26.779  21.906
  196BDT   BNZ2  977  10.784  26.611  21.966
  196BDT   BNZ3  978  10.585  26.704  22.089
  196BDT    BS1  979  10.551  26.882  22.014
  196BDT    BS2  980  10.646  26.523  22.141
  197BDT   BNZ1  981  14.829  20.711  13.426
  197BDT   BNZ2  982  14.979  20.685  13.327
  197BDT   BNZ3  983  14.981  20.912  13.436
  197BDT    BS1  984  14.812  20.924  13.539
  197BDT    BS2  985  15.137  20.866  13.325
  198BDT   BNZ1  986   8.714   5.625  22.600
  198BDT   BNZ2  987   8.654   5.455  22.574
  198BDT   BNZ3  988   8.657   5.514  22.819
  198BDT    BS1  989   8.724   5.699  22.829
  198BDT    BS2  990   8.595   5.332  22.772
  199BDT   BNZ1  991   2.748   2.910   5.623
  199BDT   BNZ2  992   2.683   2.752   5.560
  199BDT   BNZ3  993   2.790   2.722   5.786
  199BDT    BS1  994   2.855   2.901   5.839
  199BDT    BS2  995   2.713   2.561   5.702
  200BDT   BNZ1  996   9.220  27.381  21.130
  200BDT   BNZ2  997   9.235  27.348  21.308
  200BDT   BNZ3  998   8.994  27.377  21.240
  200BDT    BS1  999   8.996  27.411  21.046
  200BDT    BS2 1000   9.029  27.340  21.431
  201BDT   BNZ1 1001  26.344  21.222   8.188
  201BDT   BNZ2 1002  26.276  21.386   8.228
  201BDT   BNZ3 1003  26.206  21.215   8.399
  201BDT    BS1 1004  26.287  21.044   8.341
  201BDT    BS2 1005  26.142  21.399   8.426
  202BDT   BNZ1 1006  11.181  21.498   8.153
  202BDT   BNZ2 1007  11.295  21.380   8.077
  202BDT   BNZ3 1008  11.264  21.331   8.323
  202BDT    BS1 1009  11.138  21.468   8.389
  202BDT    BS2 1010  11.386  21.212   8.223
  203BDT   BNZ1 1011   5.869  21.565  15.866
  203BDT   BNZ2 1012   6.046  21.517  15.871
  203BDT   BNZ3 1013   6.008  21.705  15.709
  203BDT    BS1 1014   5.815  21.744  15.715
  203BDT    BS2 1015   6.193  21.640  15.727
  204BDT   BNZ1 1016  12.936  18.953  24.276
  204BDT   BNZ2 1017  12.940  18.835  24.136
  204BDT   BNZ3 1018  13.030  19.060  24.069
  204BDT    BS1 1019  13.018  19.174  24.229
  204BDT    BS2 1020  13.027  18.920  23.930
  205BDT   BNZ1 1021  12.146   3.737   2.556
  205BDT   BNZ2 1022  12.289   3.854   2.561
  205BDT   BNZ3 1023  12.087   3.960   2.453
  205BDT    BS1 1024  11.946   3.824   2.456
  205BDT    BS2 1025  12.251   4.071   2.466
  206BDT   BNZ1 1026   5.621   7.903  10.909
  206BDT   BNZ2 1027   5.666   7.852  10.740
  206BDT   BNZ3 1028   5.768   7.699  10.912
  206BDT    BS1 1029   5.709   7.768  11.088
  206BDT    BS2 1030   5.807   7.658  10.723
  207BDT   BNZ1 1031  11.933  26.833  17.048
  207BDT   BNZ2 1032  12.063  26.918  16.954
  207BDT   BNZ3 1033  12.156  26.721  17.079
  207BDT    BS1 1034  12.003  26.641  17.175
  207BDT    BS2 1035  12.283  26.825  16.971
  208BDT   BNZ1 1036   3.480  23.569   7.928
  208BDT   BNZ2 1037   3.488  23.405   8.006
  208BDT   BNZ3 1038   3.360  23.396   7.790
  208BDT    BS1 1039   3.361  23.581   7.719
  208BDT    BS2 1040   3.378  23.227   7.888
  209BDT   BNZ1 1041   2.738  25.406  21.102
  209BDT   BNZ2 1042   2.572  25.334  21.138
  209BDT   BNZ3 1043   2.660  25.464  21.334
  209BDT    BS1 1044   2.835  25.533  21.281
  209BDT    BS2 1045   2.482  25.379  21.355
  210BDT   BNZ1 1046  19.100  19.156  28.984
  210BDT   BNZ2 1047  19.085  18.992   0.061
  210BDT   BNZ3 1048  19.029  19.174   0.225
  210BDT    BS1 1049  19.050  19.344   0.127
  210BDT    BS2 1050  19.018  18.989   0.292
  211BDT   BNZ1 1051   4.517   7.393   0.652
  211BDT   BNZ2 1052   4.489   7.553   0.570
  211BDT   BNZ3 1053   4.717   7.544   0.677
  211BDT    BS1 1054   4.730   7.365   0.761
  211BDT    BS2 1055   4.670   7.710   0.584
  212BDT   BNZ1 1056   6.901   1.131   7.026
  212BDT   BNZ2 1057   6.905   0.977   6.929
  212BDT   BNZ3 1058   6.763   1.151   6.816
  212BDT    BS1 1059   6.769   1.310   6.932
  212BDT    BS2 1060   6.779   0.977   6.725
  213BDT   BNZ1 1061  11.402   0.357  21.879
  213BDT   BNZ2 1062  11.480   0.328  21.717
  213BDT   BNZ3 1063  11.262   0.452  21.692
  213BDT    BS1 1064  11.192   0.475  21.875
  213BDT    BS2 1065  11.360   0.411  21.526
  214BDT   BNZ1 1066  11.414  23.093  11.902
  214BDT   BNZ2 1067  11.237  23.061  11.864
  214BDT   BNZ3 1068  11.385  23.001  11.669
  214BDT    BS1 1069  11.569  23.041  11.726
  214BDT    BS2 1070  11.191  22.972  11.645
  215BDT   BNZ1 1071   6.836   5.223  24.417
  215BDT   BNZ2 1072   6.898   5.263  24.580
  215BDT   BNZ3 1073   6.715   5.421  24.513
  215BDT    BS1 1074   6.658   5.363  24.332
  215BDT    BS2 1075   6.795   5.450  24.689
  216BDT   BNZ1 1076  11.383  23.478  28.151
  216BDT   BNZ2 1077  11.436  23.495  28.324
  216BDT   BNZ3 1078  11.387  23.720  28.220
  216BDT    BS1 1079  11.331  23.683  28.035
  216BDT    BS2 1080  11.446  23.720  28.409
  217W        W 1081   0.212   3.743   3.393
  218W        W 1082   0.559   2.564   3.038
  219W        W 1083   3.219   2.207   0.792
  220W        W 1084   3.401   3.321   2.787
  221W        W 1085   1.339   3.303   0.284
  222W        W 1086   1.087   1.647   0.997
  223W        W 1087   0.794   1.553   1.416
  224W        W 1088   1.728   2.080   0.834
  225W        W 1089   1.653   3.306   3.152
  226W        W 1090   0.259   0.817   3.057
  227W        W 1091   0.875  28.989   2.880
  228W        W 1092   2.776   0.519   1.843
  229W        W 1093   2.278   1.248   0.457
  230W        W 1094   2.823   0.941   3.486
  231W        W 1095   0.277   0.550   2.575
  232W        W 1096   0.395   3.237   3.531
  233W        W 1097   1.609   2.515   0.314
  234W        W 1098   0.174   1.304   2.102
  235W        W 1099   1.042   1.323   3.358
  236W        W 1100   3.510   0.998   1.828
  237W        W 1101   3.321   2.072   2.602
  238W        W 1102   1.707   1.504   1.666
  239W        W 1103   2.235   2.830   2.021
  240W        W 1104   0.642   2.229   2.237
  241W        W 1105  28.985   1.770   2.008
  242W        W 1106   1.189   1.688   3.005
  243W        W 1107   3.488   1.535   3.326
  244W        W 1108   1.054   2.879   1.758
  245W        W 1109   2.108   2.622   2.790
  246W        W 1110   1.328   1.238   1.904
  247W        W 1111   1.628   2.045   1.681
  248W        W 1112   2.355   2.930   3.514
  249W        W 1113   1.723   2.016   3.496
  250W        W 1114   1.709   1.845   2.999
  251W        W 1115   0.187   1.167   3.667
  252W        W 1116   2.802   2.742   3.278
  253W        W 1117   0.445   0.268   1.148
  254W        W 1118   1.043   2.563   2.173
  255W        W 1119   3.341   2.431   1.602
  256W        W 1120   3.155   0.737   2.123
  257W        W 1121   3.194   0.804   0.115
  258W        W 1122   3.727   1.546   2.511
  259W        W 1123   1.843   3.149   2.200
  260W        W 1124   3.209   2.729   0.760
  261W        W 1125   0.573   3.721   0.719
  262W        W 1126   0.894   3.511   1.113
  263W        W 1127   0.756   0.336   2.505
  264W        W 1128   3.323   1.356   2.833
  265W        W 1129   2.545   1.698   1.319
  266W        W 1130   2.724   1.482   0.383
  267W        W 1131   1.886   2.623   2.319
  268W        W 1132   1.635   0.972   1.555
  269W        W 1133   2.254   3.014   2.510
  270W        W 1134   3.237   1.826   1.151
  271W        W 1135   2.279   0.514   1.043
  272W        W 1136   0.725   3.198   0.725
  273W        W 1137   0.124   0.683   1.230
  274W        W 1138   2.612   1.340   1.777
  275W        W 1139   0.410   2.878   1.672
  276W        W 1140   1.648   2.984   0.554
  277W        W 1141   3.048   1.292   0.033
  278W        W 1142   0.217   3.020   2.345
  279W        W 1143   1.019   2.752   2.835
  280W        W 1144   1.009   2.022   1.341
  281W        W 1145   1.129   0.573   2.261
  282W        W 1146   3.615   0.247   1.889
  283W        W 1147   0.674   1.976   0.108
  284W        W 1148   0.531   1.079   0.361
  285W        W 1149   0.610   2.950   1.182
  286W        W 1150   1.430   2.282   1.221
  287W        W 1151   2.946   3.234   3.006
  288W        W 1152   1.942   0.998   0.776
  289W        W 1153   3.235   3.407   1.595
  290W        W 1154   2.984   1.386   3.243
  291W        W 1155   3.502   2.695   1.179
  292W        W 1156   2.278   2.143   2.808
  293W        W 1157   0.137   1.610   1.192
  294W        W 1158   1.017   2.286   2.590
  295W        W 1159   2.261   1.360   0.975
  296W        W 1160   2.049   1.795   1.125
  297W        W 1161   0.618   1.342   2.431
  298W        W 1162   0.539   1.249   3.283
  299W        W 1163   0.550   0.197   1.641
  300W        W 1164   2.334   0.529   2.105
  301W        W 1165   2.024   0.669   3.300
  302W        W 1166   2.385   0.515   0.532
  303W        W 1167   3.536   3.129   3.256
  304W        W 1168   2.331   0.240   3.242
  305W        W 1169   3.294   2.569   3.391
  306W        W 1170   3.006   0.922   3.001
  307W        W 1171   2.703   0.626   1.321
  308W        W 1172   3.074   1.805   3.572
  309W        W 1173   0.753   3.261   1.576
  310W        W 1174   1.405   1.056   0.869
  311W        W 1175   1.003   0.385   3.238
  312W        W 1176   2.985   0.944   1.003
  313W        W 1177   3.344   1.357   0.992
  314W        W 1178   1.168   3.418   3.325
  315W        W 1179   1.087   0.097   0.615
  316W        W 1180   3.295   0.560   1.649
  317W        W 1181   3.459   2.813   0.289
  318W        W 1182   0.297   2.139   1.838
  319W        W 1183   2.434   0.582   0.033
  320W        W 1184   3.512   2.915   1.747
  321W        W 1185   3.394   0.316   2.450
  322W        W 1186   1.975   1.419   3.173
  323W        W 1187   1.916   2.566   0.730
  324W        W 1188   2.561   1.883   3.637
  325W        W 1189   2.195  28.826   1.435
  326W        W 1190   0.874   1.086   1.626
  327W        W 1191   0.452   2.156   2.725
  328W        W 1192   2.227   3.191   1.353
  329W        W 1193   3.439   1.137   2.357
  330W        W 1194   2.092   3.360   2.869
  331W        W 1195   3.265   2.159   0.290
  332W        W 1196   1.528   1.773   1.248
  333W        W 1197   3.596   0.202   2.928
  334W        W 1198   1.798   2.220   2.626
  335W        W 1199   2.007   1.087   1.916
  336W        W 1200   2.795   1.418   0.925
  337W        W 1201   3.123   1.188   0.543
  338W        W 1202   2.822   3.070   0.843
  339W        W 1203   2.813   2.526   1.673
  340W        W 1204   2.466   1.760   0.720
  341W        W 1205   2.118   1.919   1.624
  342W        W 1206   3.071   1.734   1.889
  343W        W 1207   0.386   0.841   2.166
  344W        W 1208   3.183   1.837   3.048
  345W        W 1209   3.487   3.330   2.087
  346W        W 1210   1.467   2.707   1.499
  347W        W 1211   2.579   3.439   2.690
  348W        W 1212   2.474   0.786   2.574
  349W        W 1213   1.679   3.494   2.579
  350W        W 1214   3.239   0.495   1.120
  351W        W 1215   3.207   1.613   2.386
  352W        W 1216   0.206   1.077   2.596
  353W        W 1217   2.942   0.954   1.638
  354W        W 1218   3.471   1.034   3.224
  355W        W 1219   2.249   2.676   1.534
  356W        W 1220   1.590   3.234   1.188
  357W        W 1221   0.586   0.566   0.459
  358W        W 1222   1.890   0.296   2.200
  359W        W 1223   0.828   3.212   0.170
  360W        W 1224   0.948   1.907   0.540
  361W        W 1225   1.855   2.354   3.136
  362W        W 1226   1.706   0.695   1.115
  363W        W 1227   2.970   0.215   1.471
  364W        W 1228   2.718   3.506   1.769
  365W        W 1229   2.211   3.323   1.857
  366W        W 1230   1.499   2.275   2.172
  367W        W 1231   3.305   2.964   2.424
  368W        W 1232   0.876   0.447   0.946
  369W        W 1233   1.495   2.780   2.021
  370W        W 1234   1.012   0.996   0.111
  371W        W 1235   1.709   1.276   2.294
  372W        W 1236   2.721   0.254   2.316
  373W        W 1237   0.112   2.142   2.330
  374W        W 1238   1.482   1.903   0.406
  375W        W 1239   1.072   0.511   0.291
  376W        W 1240   1.773   1.313   1.171
  377W        W 1241   2.586   0.352   2.813
  378W        W 1242   1.371   2.254   2.972
  379W        W 1243   2.169   1.929   3.258
  380W        W 1244   2.673   1.976   3.116
  381W        W 1245   1.965   0.339   3.689
  382W        W 1246   1.218   0.730   1.758
  383W        W 1247   0.667   0.691   1.366
  384W        W 1248   0.381   3.412   1.136
  385W        W 1249   1.975   2.915   3.175
  386W        W 1250   0.784   2.462   0.463
  387W        W 1251   2.569   1.846   1.844
  388W        W 1252   2.704   1.513   2.255
  389W        W 1253   1.971   2.092   2.121
  390W        W 1254   2.396   2.435   0.375
  391W        W 1255   2.325   0.333   1.555
  392W        W 1256   3.590   0.910   0.898
  393W        W 1257   0.429   3.514   2.938
  394W        W 1258   0.626   2.665   2.516
  395W        W 1259   0.049   3.560   0.735
  396W        W 1260   1.989   0.804   2.392
  397W        W 1261   1.178   2.810   0.380
  398W        W 1262   3.207   3.212   0.538
  399W        W 1263   1.987   1.674   0.584
  400W        W 1264   0.858   1.144   1.089
  401W        W 1265   2.025   0.811   0.303
  402W        W 1266   2.369   2.421   3.279
  403W        W 1267   2.794   0.455   0.850
  404W        W 1268   0.192   0.256   0.307
  405W        W 1269   1.436   2.594   2.572
  406W        W 1270   1.194   2.309   1.744
  407W        W 1271   0.861   2.666  28.989
  408W        W 1272   0.222   3.067   0.770
  409W        W 1273   0.771   1.758   3.411
  410W        W 1274   1.476   0.403   3.472
  411W        W 1275   2.064   0.465   2.797
  412W        W 1276   1.327   0.113   1.110
  413W        W 1277   2.232   0.078   0.759
  414W        W 1278   0.404   0.298   2.125
  415W        W 1279   0.400   1.158   1.353
  416W        W 1280   3.122   0.171   2.007
  417W        W 1281   0.495   0.817   0.892
  418W        W 1282   2.976   0.615   2.588
  419W        W 1283   3.392   1.640   0.248
  420W        W 1284   0.753   0.609   1.887
  421W        W 1285   2.076   0.988   2.885
  422W        W 1286   0.111   0.759   0.333
  423W        W 1287   0.867   2.099   3.033
  424W        W 1288   2.117   1.584   2.024
  425W        W 1289   1.924   3.392   0.341
  426W        W 1290   0.155   1.998   0.152
  427W        W 1291   1.032   2.520   3.291
  428W        W 1292   0.542   1.665   2.960
  429W        W 1293   1.390   1.907   2.573
  430W        W 1294   3.071   0.181   2.865
  431W        W 1295   3.698   1.863   2.932
  432W        W 1296   3.583   1.777   0.760
  433W        W 1297   2.272   2.210   0.865
  434W        W 1298   3.003   3.482   0.140
  435W        W 1299   2.059   1.612   3.653
  436W        W 1300   0.260   2.420   3.647
  437W        W 1301   3.753   0.629   3.466
  438W        W 1302   3.089   1.251   2.014
  439W        W 1303   1.559   3.707   3.461
  440W        W 1304   1.528   0.246   0.392
  441W        W 1305   2.938   2.604   0.333
  442W        W 1306   0.782   0.833   3.122
  443W        W 1307   1.487   2.756   3.081
  444W        W 1308   3.456   0.775   2.746
  445W        W 1309   2.775   3.554   0.599
  446W        W 1310   2.840   2.207   2.110
  447W        W 1311   1.110   0.598   2.787
  448W        W 1312   1.525   1.536   3.440
  449W        W 1313   0.943   2.739   0.854
  450W        W 1314   2.784   2.033   1.005
  451W        W 1315   0.698   0.851   2.600
  452W        W 1316   1.890   2.802   1.202
  453W        W 1317   3.488   1.429   1.539
  454W        W 1318   1.830   0.199   3.177
  455W        W 1319   2.721   2.718   2.144
  456W        W 1320   3.042   3.103   1.967
  457W        W 1321   2.144   2.910   0.382
  458W        W 1322   0.176   2.828   3.308
  459W        W 1323   0.926   1.024   2.156
  460W        W 1324   1.010   0.316   1.475
  461W        W 1325   2.666   0.957   2.127
  462W        W 1326   1.168   2.276   0.206
  463W        W 1327   3.356   2.129   2.068
  464W        W 1328   0.647   2.766   3.521
  465W        W 1329   3.139   3.550   0.981
  466W        W 1330   1.188   0.766   1.244
  467W        W 1331   0.763   1.961   1.783
  468W        W 1332   1.175   3.520   2.430
  469W        W 1333   3.251   3.547   3.283
  470W        W 1334   2.389   1.906   2.343
  471W        W 1335   0.410   1.629   0.430
  472W        W 1336   3.464   3.201   1.170
  473W        W 1337   3.214   0.678   0.623
  474W        W 1338   1.374   0.182   2.937
  475W        W 1339   3.093   2.914   1.454
  476W        W 1340   2.993   1.446   1.425
  477W        W 1341   1.280   1.306   1.362
  478W        W 1342   1.437   1.197   3.028
  479W        W 1343   2.619   2.538   2.833
  480W        W 1344   1.321   0.990   2.527
  481W        W 1345   1.242   3.478   1.525
  482W        W 1346   0.705   3.602   3.363
  483W        W 1347   0.474   2.867   0.343
  484W        W 1348   3.033   2.454   1.197
  485W        W 1349   0.930   1.265   2.840
  486W        W 1350   3.633   1.277   0.537
  487W        W 1351   1.255   2.321   0.713
  488W        W 1352   2.316   1.636   2.804
  489W        W 1353   2.266   1.259   2.422
  490W        W 1354   0.844   1.802   2.576
  491W        W 1355   3.018   3.390   2.414
  492W        W 1356   2.833   0.363   3.326
  493W        W 1357   0.536   0.362   2.990
  494W        W 1358   0.836   1.490   1.961
  495W        W 1359   1.271   1.410   0.313
  496W        W 1360   0.344   3.007   2.850
  497W        W 1361   1.566   1.742   2.103
  498W        W 1362   1.503   0.802   0.389
  499W        W 1363   0.580   1.756   0.911
  500W        W 1364   0.445   3.482   2.427
  501W        W 1365   3.087   1.727   0.650
  502W        W 1366   3.308   0.537   3.204
  503W        W 1367   2.636   2.788   1.233
  504W        W 1368   0.257   1.644   3.437
  505W        W 1369   3.262   0.165   0.575
  506W        W 1370   2.713   2.521   0.796
  507W        W 1371   1.534   1.542   0.769
  508W        W 1372   2.862   0.439   0.333
  509W        W 1373   2.949   1.134   2.524
  510W        W 1374   0.366   1.597   1.701
  511W        W 1375   0.979   2.549   1.335
  512W        W 1376   2.593   1.138   1.301
  513W        W 1377   1.928   0.591   1.759
  514W        W 1378   3.568   2.518   2.468
  515W        W 1379   3.667   0.693   2.211
  516W        W 1380   0.071   3.236   1.534
  517W        W 1381   0.423   2.601   0.820
  518W        W 1382   0.572   0.502   3.491
  519W        W 1383   1.782   3.087   3.627
  520W        W 1384   3.460   1.939   1.595
  521W        W 1385   2.793   2.113   0.488
  522W        W 1386   2.179   3.528   2.357
  523W        W 1387   2.875   2.275   3.491
  524W        W 1388   1.707  28.967   0.784
  525W        W 1389   2.407   0.849   1.692
  526W        W 1390   0.281   2.585   2.098
  527W        W 1391   1.352   0.524   0.789
  528W        W 1392   1.220   2.015   3.402
  529W        W 1393   2.116   0.938   1.283
  530W        W 1394   2.371   2.430   2.385
  531W        W 1395   0.773   3.117   3.149
  532W        W 1396   1.278   2.952   3.512
  533W        W 1397   0.969   0.880   0.641
  534W        W 1398   2.502   0.931   0.820
  535W        W 1399   2.457   3.014   3.000
  536W        W 1400   1.225   1.716   1.698
  537W        W 1401   0.785   3.171   2.626
  538W        W 1402   3.495   3.317   0.119
  539W        W 1403   0.418   2.108   3.270
  540W        W 1404   2.373   2.325   1.884
  541W        W 1405   0.772   2.241   0.946
  542W        W 1406   1.200   3.008   2.374
  543W        W 1407   1.517   0.417   1.487
  544W        W 1408   0.061   2.509   0.453
  545W        W 1409   1.759   1.260   0.347
  546W        W 1410   0.478   1.969   1.362
  547W        W 1411   1.566   0.502   2.540
  548W        W 1412   3.348   0.305   0.062
  549W        W 1413   3.509   2.066   3.386
  550W        W 1414   2.109   3.419   3.392
  551W        W 1415   3.570   2.375   2.960
  552W        W 1416   3.105   3.080   3.512
  553W        W 1417   0.818   3.521   2.037
  554W        W 1418   3.613   2.198   1.137
  555W        W 1419   2.177   1.398   1.509
  556W        W 1420   1.902   0.200   1.199
  557W        W 1421   1.115   3.042   1.265
  558W        W 1422   1.582   0.799   2.094
  559W        W 1423   1.432   0.285   1.976
  560W        W 1424   0.380   3.384   0.401
  561W        W 1425   1.944   2.290   1.297
  562W        W 1426   1.260   3.213   2.848
  563W        W 1427   0.428   2.128   0.566
  564W        W 1428   0.276   0.623   1.705
  565W        W 1429   1.860   2.486   1.803
  566W        W 1430   0.127   0.459   0.770
  567W        W 1431   2.840   1.594   2.763
  568W        W 1432   2.700   0.948   0.315
  569W        W 1433   3.216   2.621   2.052
  570W        W 1434   1.847   2.999   1.690
  571W        W 1435   1.231   3.174   0.787
  572W        W 1436   2.455   0.086   0.222
  573W        W 1437   0.355   3.322   1.941
  574W        W 1438   2.296   1.095   3.479
  575W        W 1439   0.775   0.956   3.664
  576W        W 1440   0.348   1.302   0.829
  577W        W 1441   0.843   1.389   0.630
  578W        W 1442   2.485   1.522   3.275
  579W        W 1443   1.094   1.964   2.155
  580W        W 1444   2.575   0.078   1.161
  581W        W 1445   1.784   3.508   1.607
  582W        W 1446   2.794   2.961   2.596
  583W        W 1447   2.609   3.007   1.702
  584W        W 1448   2.471   2.233   1.368
  585W        W 1449   1.884   0.469   0.684
  586W        W 1450   3.584   0.082   1.199
  587W        W 1451   1.161   1.818  28.993
  588W        W 1452   3.357   0.970   1.343
  589W        W 1453   1.970   2.139   0.353
  590W        W 1454   3.052   2.326   3.005
  591W        W 1455   2.659   3.119   0.349
  592W        W 1456   1.584   0.676   3.030
  593W        W 1457   1.177   1.464   2.359
  594W        W 1458   3.223   2.810   2.927
  595W        W 1459   2.502   0.745   3.114
  596W        W 1460   0.115   1.368   3.003
  597W        W 1461   1.907   1.725   2.501
  598W        W 1462   0.464   2.469   1.332
  599W        W 1463   0.458   1.763   2.197
  600W        W 1464   2.783   2.083   2.619
  601W        W 1465   2.634   3.351   3.386
  602W        W 1466   2.565   1.190   2.887
  603W        W 1467   2.777   3.306   1.300
  604W        W 1468   1.745   2.995   2.696
  605W        W 1469   1.390   3.306   1.985
  606W        W 1470   3.044   2.513   2.519
  607W        W 1471   1.961   2.589   3.585
  608W        W 1472   0.705   2.479   1.789
  609W        W 1473   2.938   2.046   1.513
  610W        W 1474   2.585   3.213   2.187
  611W        W 1475   0.704   2.987   2.121
  612W        W 1476   1.710   1.040   3.459
  613W        W 1477   2.009   3.171   0.860
  614W        W 1478   1.470   2.461   3.532
  615W        W 1479   1.444   2.737   0.967
  616W        W 1480   0.795   1.477   0.127
  617W        W 1481   0.148   3.766   7.037
  618W        W 1482   0.556   2.545   6.611
  619W        W 1483   3.239   2.154   4.372
  620W        W 1484   3.434   3.276   6.387
  621W        W 1485   1.388   3.370   3.826
  622W        W 1486   1.232   1.435   4.683
  623W        W 1487   0.629   1.440   4.923
  624W        W 1488   1.705   2.049   4.440
  625W        W 1489   1.644   3.268   6.795
  626W        W 1490   0.361   0.840   6.673
  627W        W 1491   0.812  28.959   6.500
  628W        W 1492   2.601   0.531   5.347
  629W        W 1493   2.251   1.318   4.035
  630W        W 1494   2.805   0.879   7.112
  631W        W 1495   0.277   0.577   6.233
  632W        W 1496   0.367   3.304   7.112
  633W        W 1497   1.710   2.271   3.972
  634W        W 1498   0.259   1.321   5.759
  635W        W 1499   1.098   1.245   7.024
  636W        W 1500   3.519   1.033   5.471
  637W        W 1501   3.322   2.106   6.247
  638W        W 1502   1.487   1.464   5.162
  639W        W 1503   2.405   2.882   5.844
  640W        W 1504   0.683   2.309   5.952
  641W        W 1505  28.974   1.744   5.683
  642W        W 1506   1.238   1.757   6.640
  643W        W 1507   3.326   1.546   6.971
  644W        W 1508   1.105   2.961   5.287
  645W        W 1509   2.211   2.669   6.337
  646W        W 1510   1.209   1.289   5.557
  647W        W 1511   1.441   2.010   5.277
  648W        W 1512   2.485   2.883   7.162
  649W        W 1513   1.663   2.081   7.110
  650W        W 1514   1.754   1.856   6.642
  651W        W 1515   0.078   1.199   7.213
  652W        W 1516   2.867   2.728   6.875
  653W        W 1517   0.479   0.198   4.344
  654W        W 1518   1.103   2.702   5.875
  655W        W 1519   3.402   2.506   5.227
  656W        W 1520   3.080   0.831   5.680
  657W        W 1521   3.298   0.834   3.666
  658W        W 1522   3.682   1.597   6.189
  659W        W 1523   1.866   3.150   5.914
  660W        W 1524   3.372   2.659   4.449
  661W        W 1525   0.695   3.714   4.226
  662W        W 1526   0.960   3.501   4.712
  663W        W 1527   0.863   0.440   5.925
  664W        W 1528   3.189   1.300   6.462
  665W        W 1529   2.705   1.842   4.999
  666W        W 1530   2.691   1.395   3.726
  667W        W 1531   1.968   2.605   5.883
  668W        W 1532   1.732   0.967   5.192
  669W        W 1533   2.263   3.188   6.224
  670W        W 1534   3.225   1.893   4.834
  671W        W 1535   2.250   0.631   4.546
  672W        W 1536   0.798   3.219   4.294
  673W        W 1537   0.127   0.649   4.891
  674W        W 1538   2.687   1.440   5.344
  675W        W 1539   0.556   2.941   5.257
  676W        W 1540   1.547   2.755   3.954
  677W        W 1541   3.207   1.328   3.721
  678W        W 1542   0.229   3.035   5.878
  679W        W 1543   1.064   2.732   6.387
  680W        W 1544   1.311   1.952   4.784
  681W        W 1545   1.373   0.559   6.002
  682W        W 1546   3.521   0.094   5.413
  683W        W 1547   0.782   1.870   4.059
  684W        W 1548   0.529   1.075   4.129
  685W        W 1549   0.667   3.084   4.779
  686W        W 1550   1.325   2.500   4.830
  687W        W 1551   2.976   3.196   6.662
  688W        W 1552   1.948   1.011   4.343
  689W        W 1553   3.243   3.559   5.229
  690W        W 1554   2.849   1.360   6.856
  691W        W 1555   3.625   2.816   4.886
  692W        W 1556   2.327   2.186   6.464
  693W        W 1557   0.187   1.691   4.773
  694W        W 1558   1.162   2.264   6.157
  695W        W 1559   2.169   1.454   4.553
  696W        W 1560   2.251   1.952   4.663
  697W        W 1561   0.723   1.324   6.021
  698W        W 1562   0.602   1.250   6.837
  699W        W 1563   0.481   0.277   5.057
  700W        W 1564   2.185   0.459   5.675
  701W        W 1565   1.950   0.664   6.995
  702W        W 1566   2.383   0.479   4.082
  703W        W 1567   3.428   3.114   6.900
  704W        W 1568   2.257   0.206   6.953
  705W        W 1569   3.308   2.579   7.062
  706W        W 1570   2.879   0.873   6.584
  707W        W 1571   2.618   0.773   4.873
  708W        W 1572   2.941   1.791   7.218
  709W        W 1573   0.831   3.396   5.257
  710W        W 1574   1.411   1.094   4.311
  711W        W 1575   1.141   0.371   6.907
  712W        W 1576   3.020   1.048   4.644
  713W        W 1577   3.435   1.434   4.647
  714W        W 1578   1.293   3.536   7.051
  715W        W 1579   0.985   0.264   4.207
  716W        W 1580   3.334   0.580   5.268
  717W        W 1581   3.535   2.848   3.756
  718W        W 1582   0.578   2.093   5.495
  719W        W 1583   2.442   0.593   3.594
  720W        W 1584   3.515   2.972   5.567
  721W        W 1585   3.409   0.288   6.188
  722W        W 1586   1.942   1.377   6.834
  723W        W 1587   2.050   2.423   4.554
  724W        W 1588   2.463   1.953   7.338
  725W        W 1589   2.233   0.101   5.299
  726W        W 1590   0.702   1.185   5.501
  727W        W 1591   0.371   2.128   6.334
  728W        W 1592   1.985   3.295   5.077
  729W        W 1593   3.356   1.164   5.995
  730W        W 1594   2.126   3.381   6.676
  731W        W 1595   3.341   2.210   3.856
  732W        W 1596   1.800   1.727   4.848
  733W        W 1597   3.610   0.288   6.664
  734W        W 1598   1.905   2.164   6.191
  735W        W 1599   2.098   0.978   5.792
  736W        W 1600   2.925   1.565   4.563
  737W        W 1601   2.925   1.244   4.164
  738W        W 1602   2.980   2.904   4.702
  739W        W 1603   2.755   2.754   5.154
  740W        W 1604   2.596   1.697   4.161
  741W        W 1605   1.868   1.761   5.392
  742W        W 1606   3.081   1.825   5.378
  743W        W 1607   0.471   0.848   5.836
  744W        W 1608   3.090   1.787   6.607
  745W        W 1609   3.469   3.390   5.864
  746W        W 1610   1.608   2.893   5.115
  747W        W 1611   2.589   3.500   6.465
  748W        W 1612   2.308   0.841   6.261
  749W        W 1613   1.755   3.481   6.310
  750W        W 1614   3.296   0.580   4.666
  751W        W 1615   3.155   1.651   6.069
  752W        W 1616   0.289   1.129   6.240
  753W        W 1617   2.940   0.976   5.210
  754W        W 1618   3.278   1.044   6.899
  755W        W 1619   2.365   2.506   5.461
  756W        W 1620   1.619   3.292   4.672
  757W        W 1621   0.579   0.579   4.000
  758W        W 1622   1.722   0.204   5.777
  759W        W 1623   0.875   3.208   3.755
  760W        W 1624   1.252   1.829   4.285
  761W        W 1625   1.888   2.409   6.671
  762W        W 1626   1.773   0.664   4.719
  763W        W 1627   2.951   0.348   4.997
  764W        W 1628   2.746   3.643   5.448
  765W        W 1629   2.155   3.446   5.602
  766W        W 1630   1.568   2.246   5.796
  767W        W 1631   3.247   2.952   6.012
  768W        W 1632   0.913   0.568   4.602
  769W        W 1633   1.552   2.834   5.663
  770W        W 1634   1.227   0.842   3.391
  771W        W 1635   1.724   1.299   5.614
  772W        W 1636   2.666   0.280   5.869
  773W        W 1637   0.164   2.202   5.850
  774W        W 1638   1.611   1.767   3.919
  775W        W 1639   1.041   0.488   3.748
  776W        W 1640   1.682   1.198   4.749
  777W        W 1641   2.586   0.431   6.382
  778W        W 1642   1.393   2.259   6.636
  779W        W 1643   2.145   2.031   6.938
  780W        W 1644   2.655   1.989   6.813
  781W        W 1645   1.961   0.294   7.407
  782W        W 1646   1.264   0.807   5.384
  783W        W 1647   0.636   0.796   4.983
  784W        W 1648   0.410   3.469   4.557
  785W        W 1649   2.029   2.881   6.858
  786W        W 1650   0.722   2.362   4.145
  787W        W 1651   2.500   1.895   5.492
  788W        W 1652   2.711   1.537   5.840
  789W        W 1653   1.897   1.708   5.911
  790W        W 1654   2.513   2.513   3.786
  791W        W 1655   2.104   0.593   5.143
  792W        W 1656   3.649   0.959   4.507
  793W        W 1657   0.378   3.523   6.630
  794W        W 1658   0.598   2.780   6.143
  795W        W 1659  28.991   3.628   4.279
  796W        W 1660   1.891   0.576   6.092
  797W        W 1661   1.046   2.656   3.866
  798W        W 1662   3.137   3.305   4.185
  799W        W 1663   2.076   1.805   4.157
  800W        W 1664   0.828   1.086   4.587
  801W        W 1665   2.053   0.840   3.851
  802W        W 1666   2.399   2.477   6.876
  803W        W 1667   2.800   0.633   4.386
  804W        W 1668   0.132   0.265   3.949
  805W        W 1669   1.570   2.571   6.230
  806W        W 1670   1.324   2.503   5.355
  807W        W 1671   0.761   2.235   3.638
  808W        W 1672   0.310   2.979   4.420
  809W        W 1673   0.823   1.703   6.929
  810W        W 1674   1.525   0.513   7.245
  811W        W 1675   2.071   0.423   6.534
  812W        W 1676   1.348   0.252   4.743
  813W        W 1677   2.202   0.124   4.425
  814W        W 1678   0.373   0.298   5.798
  815W        W 1679   0.300   1.138   5.168
  816W        W 1680   3.165   0.294   5.724
  817W        W 1681   0.431   0.713   4.482
  818W        W 1682   3.003   0.605   6.134
  819W        W 1683   3.548   1.726   3.799
  820W        W 1684   0.781   0.670   5.473
  821W        W 1685   1.858   0.930   6.538
  822W        W 1686   0.104   0.771   4.048
  823W        W 1687   0.880   2.128   6.574
  824W        W 1688   2.237   1.454   5.605
  825W        W 1689   1.888   3.564   3.846
  826W        W 1690   0.300   1.946   3.880
  827W        W 1691   1.015   2.562   6.863
  828W        W 1692   0.517   1.640   6.484
  829W        W 1693   1.482   1.859   6.198
  830W        W 1694   3.030   0.210   6.531
  831W        W 1695   3.592   1.876   6.631
  832W        W 1696   3.622   1.800   4.310
  833W        W 1697   2.385   2.221   4.211
  834W        W 1698   2.979   3.533   3.735
  835W        W 1699   1.977   1.674   7.288
  836W        W 1700   0.249   2.509   7.145
  837W        W 1701   3.668   0.664   7.148
  838W        W 1702   3.134   1.353   5.574
  839W        W 1703   1.768   3.580   7.181
  840W        W 1704   1.470   0.242   3.972
  841W        W 1705   3.025   2.647   3.835
  842W        W 1706   0.876   0.805   6.784
  843W        W 1707   1.487   2.773   6.725
  844W        W 1708   3.391   0.789   6.435
  845W        W 1709   2.748   3.663   4.181
  846W        W 1710   2.872   2.041   5.806
  847W        W 1711   1.025   0.433   6.409
  848W        W 1712   1.516   1.586   7.056
  849W        W 1713   0.930   2.738   4.428
  850W        W 1714   2.762   2.047   4.525
  851W        W 1715   0.727   0.855   6.290
  852W        W 1716   2.106   2.653   5.019
  853W        W 1717   3.596   1.479   5.188
  854W        W 1718   1.738   0.195   6.858
  855W        W 1719   3.030   3.221   5.601
  856W        W 1720   2.056   2.651   4.083
  857W        W 1721   0.227   2.881   6.827
  858W        W 1722   1.031   0.929   5.869
  859W        W 1723   1.017   0.435   5.092
  860W        W 1724   2.579   0.790   5.805
  861W        W 1725   1.207   2.156   3.888
  862W        W 1726   3.337   2.222   5.679
  863W        W 1727   0.673   2.882   7.099
  864W        W 1728   3.079   3.647   4.608
  865W        W 1729   1.303   0.817   4.836
  866W        W 1730   0.979   2.196   5.135
  867W        W 1731   1.281   3.567   6.082
  868W        W 1732   3.191   3.596   6.917
  869W        W 1733   2.378   1.867   6.043
  870W        W 1734   0.455   1.548   4.299
  871W        W 1735   3.373   3.242   4.724
  872W        W 1736   3.244   0.845   4.192
  873W        W 1737   1.324   0.022   6.566
  874W        W 1738   3.209   3.012   5.159
  875W        W 1739   3.096   1.433   5.037
  876W        W 1740   1.023   1.160   5.087
  877W        W 1741   1.458   1.289   6.637
  878W        W 1742   2.697   2.553   6.436
  879W        W 1743   1.235   0.911   6.367
  880W        W 1744   1.327   3.414   5.091
  881W        W 1745   0.821   3.418   6.924
  882W        W 1746   0.578   2.834   4.018
  883W        W 1747   3.056   2.395   4.833
  884W        W 1748   0.957   1.337   6.492
  885W        W 1749   3.515   1.308   4.143
  886W        W 1750   1.319   2.404   4.317
  887W        W 1751   2.230   1.690   6.517
  888W        W 1752   2.299   1.346   6.114
  889W        W 1753   0.941   1.788   6.173
  890W        W 1754   3.032   3.672   5.880
  891W        W 1755   2.769   0.325   6.993
  892W        W 1756   0.531   0.357   6.673
  893W        W 1757   0.880   1.668   5.654
  894W        W 1758   1.246   1.160   3.805
  895W        W 1759   0.212   3.092   6.372
  896W        W 1760   1.416   1.733   5.703
  897W        W 1761   1.535   0.747   3.876
  898W        W 1762   0.841   1.742   4.576
  899W        W 1763   0.430   3.500   6.099
  900W        W 1764   3.133   1.714   4.102
  901W        W 1765   3.213   0.550   6.876
  902W        W 1766   2.533   2.354   4.881
  903W        W 1767   0.323   1.625   7.037
  904W        W 1768   3.271   0.329   4.188
  905W        W 1769   2.857   2.524   4.340
  906W        W 1770   1.680   1.533   4.371
  907W        W 1771   2.903   0.539   3.859
  908W        W 1772   2.839   1.112   6.115
  909W        W 1773   0.432   1.618   5.368
  910W        W 1774   0.865   2.656   4.948
  911W        W 1775   2.613   1.293   4.870
  912W        W 1776   1.704   0.692   5.621
  913W        W 1777   3.560   2.547   6.133
  914W        W 1778   3.539   0.693   5.881
  915W        W 1779   0.314   3.359   5.063
  916W        W 1780   0.484   2.539   4.604
  917W        W 1781   0.653   0.418   7.184
  918W        W 1782   1.689   2.986   7.245
  919W        W 1783   3.550   2.010   5.225
  920W        W 1784   2.849   2.135   3.992
  921W        W 1785   2.205   3.692   6.086
  922W        W 1786   2.859   2.305   7.185
  923W        W 1787   1.680   0.065   4.399
  924W        W 1788   2.391   1.011   5.327
  925W        W 1789   0.353   2.615   5.623
  926W        W 1790   1.391   0.579   4.359
  927W        W 1791   1.143   2.085   7.072
  928W        W 1792   2.156   1.034   4.858
  929W        W 1793   2.473   2.373   5.983
  930W        W 1794   0.676   3.053   6.596
  931W        W 1795   1.185   3.025   7.087
  932W        W 1796   0.997   0.837   4.143
  933W        W 1797   2.500   1.068   4.431
  934W        W 1798   2.484   2.991   6.651
  935W        W 1799   1.018   1.686   5.151
  936W        W 1800   0.899   3.211   6.149
  937W        W 1801   3.483   3.365   3.776
  938W        W 1802   0.462   2.096   6.863
  939W        W 1803   2.088   2.132   5.697
  940W        W 1804   0.909   2.245   4.617
  941W        W 1805   1.400   3.059   6.140
  942W        W 1806   1.575   0.452   5.167
  943W        W 1807   0.194   2.435   4.168
  944W        W 1808   1.743   1.264   3.923
  945W        W 1809   0.567   1.963   4.960
  946W        W 1810   1.543   0.504   6.492
  947W        W 1811   3.389   0.340   3.690
  948W        W 1812   3.372   2.057   7.062
  949W        W 1813   2.154   3.265   7.181
  950W        W 1814   3.595   2.399   6.646
  951W        W 1815   2.999   3.099   7.195
  952W        W 1816   0.843   3.616   5.778
  953W        W 1817   3.567   2.285   4.766
  954W        W 1818   2.247   1.585   5.082
  955W        W 1819   1.901   0.175   4.868
  956W        W 1820   1.196   3.017   4.774
  957W        W 1821   1.633   1.017   6.047
  958W        W 1822   1.261   0.300   5.557
  959W        W 1823   0.357   3.316   4.042
  960W        W 1824   1.747   2.241   4.928
  961W        W 1825   1.175   3.205   6.593
  962W        W 1826   0.433   2.041   4.433
  963W        W 1827   0.278   0.660   5.385
  964W        W 1828   1.828   2.454   5.396
  965W        W 1829  28.999   0.422   4.428
  966W        W 1830   2.708   1.551   6.369
  967W        W 1831   2.578   0.934   3.944
  968W        W 1832   3.090   2.684   5.576
  969W        W 1833   2.038   2.935   5.466
  970W        W 1834   1.289   3.078   4.260
  971W        W 1835   2.445   0.098   3.743
  972W        W 1836   0.408   3.414   5.568
  973W        W 1837   2.269   1.079   7.134
  974W        W 1838   0.493   0.897   7.188
  975W        W 1839   0.293   1.187   4.639
  976W        W 1840   0.967   1.387   4.193
  977W        W 1841   2.401   1.572   6.993
  978W        W 1842   1.082   2.142   5.654
  979W        W 1843   2.442   0.288   4.873
  980W        W 1844   1.656   3.311   5.470
  981W        W 1845   2.771   3.020   6.219
  982W        W 1846   2.526   3.163   5.390
  983W        W 1847   2.177   2.112   5.163
  984W        W 1848   1.878   0.496   4.200
  985W        W 1849   3.584   0.137   4.877
  986W        W 1850   1.132   1.653   3.766
  987W        W 1851   3.415   1.022   4.971
  988W        W 1852   2.149   2.141   3.750
  989W        W 1853   3.078   2.291   6.686
  990W        W 1854   2.720   3.095   3.858
  991W        W 1855   1.402   0.832   6.865
  992W        W 1856   1.271   1.383   6.080
  993W        W 1857   3.224   2.761   6.497
  994W        W 1858   2.424   0.710   6.781
  995W        W 1859   0.113   1.320   6.682
  996W        W 1860   1.823   1.424   6.320
  997W        W 1861   0.456   2.432   5.126
  998W        W 1862   0.466   1.788   5.931
  999W        W 1863   2.795   2.063   6.301
 1000W        W 1864   2.604   3.375   6.982
 1001W        W 1865   2.401   1.202   6.621
 1002W        W 1866   2.827   3.366   4.994
 1003W        W 1867   1.828   2.985   6.405
 1004W        W 1868   1.200   3.237   5.698
 1005W        W 1869   3.019   2.486   6.048
 1006W        W 1870   1.951   2.507   7.196
 1007W        W 1871   0.828   2.557   5.472
 1008W        W 1872   2.841   2.278   5.328
 1009W        W 1873   2.598   3.387   5.882
 1010W        W 1874   0.731   3.032   5.709
 1011W        W 1875   1.704   1.088   7.211
 1012W        W 1876   1.791   3.163   4.164
 1013W        W 1877   1.418   2.531   7.179
 1014W        W 1878   1.639   2.775   4.513
 1015W        W 1879   0.620   1.451   3.787
 1016W        W 1880   0.154   3.673  10.685
 1017W        W 1881   0.546   2.547  10.195
 1018W        W 1882   3.142   2.243   8.090
 1019W        W 1883   3.380   3.387  10.055
 1020W        W 1884   1.392   3.329   7.498
 1021W        W 1885   1.267   1.405   8.426
 1022W        W 1886   0.792   1.213   8.554
 1023W        W 1887   1.801   2.173   8.030
 1024W        W 1888   1.595   3.218  10.269
 1025W        W 1889   0.288   0.794  10.312
 1026W        W 1890   0.832  28.925  10.189
 1027W        W 1891   2.693   0.550   9.113
 1028W        W 1892   2.124   1.296   7.608
 1029W        W 1893   2.792   0.924  10.774
 1030W        W 1894   0.285   0.522   9.825
 1031W        W 1895   0.290   3.178  10.752
 1032W        W 1896   1.637   2.497   7.652
 1033W        W 1897   0.210   1.251   9.375
 1034W        W 1898   1.117   1.317  10.639
 1035W        W 1899   3.429   1.099   9.122
 1036W        W 1900   3.352   2.099   9.870
 1037W        W 1901   1.572   1.523   8.834
 1038W        W 1902   2.194   2.906   9.325
 1039W        W 1903   0.632   2.122   9.431
 1040W        W 1904   0.039   1.621   9.054
 1041W        W 1905   1.146   1.685  10.221
 1042W        W 1906   3.311   1.602  10.612
 1043W        W 1907   0.934   2.905   8.891
 1044W        W 1908   1.965   2.651  10.057
 1045W        W 1909   1.484   1.201   9.312
 1046W        W 1910   1.544   2.046   8.934
 1047W        W 1911   2.278   2.930  10.861
 1048W        W 1912   1.678   2.092  10.868
 1049W        W 1913   1.659   1.832  10.285
 1050W        W 1914   0.114   1.197  10.884
 1051W        W 1915   2.781   2.805  10.549
 1052W        W 1916   0.564   0.304   8.010
 1053W        W 1917   1.073   2.745   9.450
 1054W        W 1918   3.375   2.451   8.911
 1055W        W 1919   3.035   0.866   9.371
 1056W        W 1920   3.249   0.843   7.397
 1057W        W 1921   3.587   1.617   9.865
 1058W        W 1922   1.717   3.342   9.341
 1059W        W 1923   3.253   2.722   7.876
 1060W        W 1924   0.570   3.597   7.924
 1061W        W 1925   0.878   3.446   8.303
 1062W        W 1926   0.760   0.261   9.775
 1063W        W 1927   3.186   1.372  10.114
 1064W        W 1928   2.528   1.717   8.636
 1065W        W 1929   2.596   1.456   7.455
 1066W        W 1930   1.917   2.534   9.526
 1067W        W 1931   1.747   1.019   8.889
 1068W        W 1932   2.325   2.930   9.826
 1069W        W 1933   3.153   1.827   8.419
 1070W        W 1934   2.270   0.467   8.278
 1071W        W 1935   0.692   3.070   7.999
 1072W        W 1936   0.216   0.593   8.455
 1073W        W 1937   2.541   1.375   9.024
 1074W        W 1938   0.416   2.869   8.972
 1075W        W 1939   1.675   3.018   7.779
 1076W        W 1940   3.065   1.301   7.332
 1077W        W 1941   0.320   2.961   9.498
 1078W        W 1942   1.017   2.667  10.013
 1079W        W 1943   1.213   1.971   8.513
 1080W        W 1944   1.194   0.503   9.618
 1081W        W 1945   3.613   0.286   9.075
 1082W        W 1946   0.656   1.868   7.402
 1083W        W 1947   0.418   1.160   7.753
 1084W        W 1948   0.592   2.905   8.492
 1085W        W 1949   1.514   2.411   8.550
 1086W        W 1950   2.958   3.245  10.317
 1087W        W 1951   1.917   1.013   7.994
 1088W        W 1952   3.214   3.389   8.954
 1089W        W 1953   2.845   1.429  10.504
 1090W        W 1954   3.645   2.859   8.703
 1091W        W 1955   2.236   2.209  10.156
 1092W        W 1956   0.005   1.653   8.043
 1093W        W 1957   1.055   2.270   9.692
 1094W        W 1958   2.261   1.387   8.131
 1095W        W 1959   2.189   1.880   8.287
 1096W        W 1960   0.672   1.294   9.690
 1097W        W 1961   0.613   1.250  10.532
 1098W        W 1962   0.499   0.197   8.638
 1099W        W 1963   2.301   0.237   9.267
 1100W        W 1964   1.953   0.690  10.587
 1101W        W 1965   2.381   0.483   7.770
 1102W        W 1966   3.423   3.159  10.540
 1103W        W 1967   2.303   0.223  10.478
 1104W        W 1968   3.256   2.640  10.679
 1105W        W 1969   2.869   0.954  10.245
 1106W        W 1970   2.647   0.666   8.571
 1107W        W 1971   2.889   1.821  10.876
 1108W        W 1972   0.631   3.361   8.757
 1109W        W 1973   1.419   1.196   7.989
 1110W        W 1974   1.057   0.252  10.630
 1111W        W 1975   2.923   1.019   8.299
 1112W        W 1976   3.275   1.386   8.186
 1113W        W 1977   1.100   3.508  10.818
 1114W        W 1978   1.063   0.149   7.934
 1115W        W 1979   3.272   0.644   8.939
 1116W        W 1980   3.446   2.923   7.421
 1117W        W 1981   0.321   2.055   8.984
 1118W        W 1982   2.402   0.569   7.268
 1119W        W 1983   3.484   2.980   9.179
 1120W        W 1984   3.414   0.341   9.838
 1121W        W 1985   1.938   1.427  10.533
 1122W        W 1986   1.984   2.666   8.010
 1123W        W 1987   2.419   2.047  10.970
 1124W        W 1988   2.339  28.852   8.916
 1125W        W 1989   0.700   1.159   9.085
 1126W        W 1990   0.400   2.114   9.909
 1127W        W 1991   2.147   3.376   8.614
 1128W        W 1992   3.351   1.209   9.644
 1129W        W 1993   2.054   3.347  10.093
 1130W        W 1994   3.272   2.159   7.573
 1131W        W 1995   1.710   1.907   8.464
 1132W        W 1996   3.599   0.371  10.331
 1133W        W 1997   1.796   2.184   9.886
 1134W        W 1998   2.010   1.058   9.344
 1135W        W 1999   2.758   1.524   8.195
 1136W        W 2000   2.907   1.195   7.817
 1137W        W 2001   2.958   3.033   8.179
 1138W        W 2002   2.815   2.491   9.022
 1139W        W 2003   2.451   1.777   7.835
 1140W        W 2004   2.062   1.937   8.834
 1141W        W 2005   2.963   1.869   8.938
 1142W        W 2006   0.472   0.808   9.430
 1143W        W 2007   3.072   1.854  10.238
 1144W        W 2008   3.496   3.434   9.409
 1145W        W 2009   1.433   2.908   8.778
 1146W        W 2010   2.555   3.377  10.026
 1147W        W 2011   2.451   0.893   9.925
 1148W        W 2012   1.611   3.531   9.839
 1149W        W 2013   3.188   0.600   8.418
 1150W        W 2014   3.084   1.686   9.694
 1151W        W 2015   0.248   1.034   9.851
 1152W        W 2016   2.876   0.987   8.899
 1153W        W 2017   3.247   1.101  10.556
 1154W        W 2018   2.253   2.704   8.785
 1155W        W 2019   1.526   3.235   8.366
 1156W        W 2020   0.589   0.667   7.643
 1157W        W 2021   1.822   0.244   9.502
 1158W        W 2022   0.891   3.211   7.502
 1159W        W 2023   1.004   1.871   7.838
 1160W        W 2024   1.772   2.339  10.416
 1161W        W 2025   1.590   0.942   8.407
 1162W        W 2026   2.958   0.274   8.753
 1163W        W 2027   2.716   3.501   9.068
 1164W        W 2028   2.207   3.418   9.135
 1165W        W 2029   1.494   2.251   9.418
 1166W        W 2030   3.329   3.015   9.702
 1167W        W 2031   0.924   0.434   8.349
 1168W        W 2032   1.569   2.821   9.305
 1169W        W 2033   1.044   0.752   7.277
 1170W        W 2034   1.728   1.201   9.774
 1171W        W 2035   2.695   0.322   9.592
 1172W        W 2036   0.146   1.960   9.475
 1173W        W 2037   1.510   1.972   7.604
 1174W        W 2038   1.110   0.250   7.406
 1175W        W 2039   1.785   1.415   8.323
 1176W        W 2040   2.592   0.429  10.082
 1177W        W 2041   1.334   2.250  10.154
 1178W        W 2042   2.084   1.976  10.590
 1179W        W 2043   2.619   2.005  10.457
 1180W        W 2044   1.960   0.277  10.894
 1181W        W 2045   1.365   0.722   9.163
 1182W        W 2046   0.793   0.738   8.745
 1183W        W 2047   0.348   3.318   8.307
 1184W        W 2048   1.869   2.840  10.538
 1185W        W 2049   0.631   2.245   7.745
 1186W        W 2050   2.475   1.902   9.139
 1187W        W 2051   2.620   1.550   9.497
 1188W        W 2052   1.958   2.051   9.337
 1189W        W 2053   2.410   2.455   7.442
 1190W        W 2054   2.270   0.376   8.782
 1191W        W 2055   3.632   0.994   8.172
 1192W        W 2056   0.326   3.569  10.149
 1193W        W 2057   0.634   2.579   9.673
 1194W        W 2058   0.052   3.478   7.908
 1195W        W 2059   2.192   0.622   9.577
 1196W        W 2060   1.233   2.823   7.573
 1197W        W 2061   3.086   3.216   7.716
 1198W        W 2062   1.930   1.704   7.862
 1199W        W 2063   1.102   0.911   8.299
 1200W        W 2064   2.019   0.796   7.518
 1201W        W 2065   2.391   2.464  10.581
 1202W        W 2066   2.790   0.515   8.094
 1203W        W 2067   0.241   0.279   7.532
 1204W        W 2068   1.484   2.604   9.794
 1205W        W 2069   1.261   2.484   9.020
 1206W        W 2070   0.725   2.357   7.237
 1207W        W 2071   0.159   2.971   7.968
 1208W        W 2072   0.808   1.745  10.610
 1209W        W 2073   1.507   0.519  10.775
 1210W        W 2074   2.077   0.523  10.089
 1211W        W 2075   1.323   0.108   8.482
 1212W        W 2076   2.202   0.044   7.989
 1213W        W 2077   0.444   0.250   9.376
 1214W        W 2078   0.330   1.050   8.703
 1215W        W 2079   3.166   0.338   9.362
 1216W        W 2080   0.602   0.843   8.177
 1217W        W 2081   3.007   0.661   9.841
 1218W        W 2082   3.414   1.662   7.463
 1219W        W 2083   0.862   0.539   9.227
 1220W        W 2084   1.970   1.024  10.189
 1221W        W 2085   0.099   0.787   7.545
 1222W        W 2086   0.844   2.107  10.183
 1223W        W 2087   2.109   1.560   9.288
 1224W        W 2088   1.966   3.419   7.627
 1225W        W 2089   0.186   2.041   7.289
 1226W        W 2090   0.984   2.512  10.513
 1227W        W 2091   0.597   1.625  10.154
 1228W        W 2092   1.378   1.886   9.796
 1229W        W 2093   3.056   0.256  10.199
 1230W        W 2094   3.591   1.891  10.294
 1231W        W 2095   3.444   1.845   7.974
 1232W        W 2096   2.312   2.268   7.946
 1233W        W 2097   2.900   3.567   7.359
 1234W        W 2098   2.000   1.656  11.022
 1235W        W 2099   0.508   2.610  10.784
 1236W        W 2100   3.648   0.703  10.794
 1237W        W 2101   3.028   1.397   9.225
 1238W        W 2102   1.590   3.497  10.708
 1239W        W 2103   1.516   0.256   7.705
 1240W        W 2104   2.867   2.716   7.519
 1241W        W 2105   0.789   0.758  10.455
 1242W        W 2106   1.432   2.734  10.299
 1243W        W 2107   3.411   0.889  10.102
 1244W        W 2108   2.719   3.589   7.848
 1245W        W 2109   2.762   2.199   9.452
 1246W        W 2110   1.071   0.451  10.141
 1247W        W 2111   1.520   1.609  10.777
 1248W        W 2112   0.980   2.627   8.012
 1249W        W 2113   2.688   2.043   8.235
 1250W        W 2114   0.740   0.783   9.898
 1251W        W 2115   1.849   2.839   8.478
 1252W        W 2116   3.404   1.541   8.858
 1253W        W 2117   1.801   0.188  10.387
 1254W        W 2118   2.677   2.728   9.462
 1255W        W 2119   3.005   3.114   9.325
 1256W        W 2120   2.116   2.884   7.539
 1257W        W 2121   0.173   2.803  10.427
 1258W        W 2122   1.028   0.980   9.480
 1259W        W 2123   0.979   0.224   8.838
 1260W        W 2124   2.530   1.009   9.404
 1261W        W 2125   1.121   2.317   7.574
 1262W        W 2126   3.251   2.095   9.323
 1263W        W 2127   0.798   3.049  10.711
 1264W        W 2128   3.063   3.561   8.233
 1265W        W 2129   1.308   0.598   8.671
 1266W        W 2130   0.767   2.024   8.748
 1267W        W 2131   1.041   3.487   9.586
 1268W        W 2132   3.217   3.621  10.561
 1269W        W 2133   2.316   1.906   9.692
 1270W        W 2134   0.216   1.591   7.542
 1271W        W 2135   3.340   3.196   8.487
 1272W        W 2136   3.210   0.780   7.919
 1273W        W 2137   1.330   0.010  10.252
 1274W        W 2138   3.106   2.890   8.851
 1275W        W 2139   2.953   1.422   8.662
 1276W        W 2140   1.210   1.097   8.846
 1277W        W 2141   1.501   1.301  10.258
 1278W        W 2142   2.599   2.594  10.117
 1279W        W 2143   1.316   0.895   9.928
 1280W        W 2144   1.158   3.374   8.730
 1281W        W 2145   0.648   3.539  10.556
 1282W        W 2146   0.699   2.741   7.596
 1283W        W 2147   3.268   2.664   8.398
 1284W        W 2148   0.951   1.191  10.153
 1285W        W 2149   3.424   1.216   7.721
 1286W        W 2150   1.297   2.232   8.072
 1287W        W 2151   2.179   1.698  10.161
 1288W        W 2152   2.242   1.340   9.776
 1289W        W 2153   0.868   1.780   9.742
 1290W        W 2154   2.987   3.463   9.711
 1291W        W 2155   2.783   0.331  10.637
 1292W        W 2156   0.538   0.333  10.260
 1293W        W 2157   1.037   1.488   9.333
 1294W        W 2158   1.133   1.165   7.562
 1295W        W 2159   0.158   3.107   9.954
 1296W        W 2160   1.528   1.716   9.331
 1297W        W 2161   1.529   0.799   7.678
 1298W        W 2162   0.826   1.675   8.347
 1299W        W 2163   0.491   3.463   9.657
 1300W        W 2164   2.984   1.707   7.753
 1301W        W 2165   3.194   0.610  10.550
 1302W        W 2166   2.726   2.720   8.551
 1303W        W 2167   0.315   1.658  10.704
 1304W        W 2168   3.188   0.269   7.822
 1305W        W 2169   2.749   2.569   8.044
 1306W        W 2170   1.446   1.723   8.057
 1307W        W 2171   2.848   0.536   7.538
 1308W        W 2172   2.856   1.177   9.767
 1309W        W 2173   0.488   1.560   8.782
 1310W        W 2174   0.992   2.487   8.565
 1311W        W 2175   2.513   1.188   8.544
 1312W        W 2176   1.903   0.576   9.109
 1313W        W 2177   3.560   2.566   9.796
 1314W        W 2178   3.518   0.740   9.522
 1315W        W 2179   0.084   3.239   8.746
 1316W        W 2180   0.478   2.592   8.100
 1317W        W 2181   0.581   0.402  10.783
 1318W        W 2182   1.745   2.939  11.024
 1319W        W 2183   3.634   1.997   8.961
 1320W        W 2184   2.772   2.179   7.701
 1321W        W 2185   2.117   3.558   9.628
 1322W        W 2186   2.852   2.334  10.814
 1323W        W 2187   1.697   0.049   8.136
 1324W        W 2188   2.317   0.891   8.943
 1325W        W 2189   0.275   2.476   9.307
 1326W        W 2190   1.420   0.510   8.156
 1327W        W 2191   1.229   2.048  10.622
 1328W        W 2192   2.091   0.911   8.480
 1329W        W 2193   2.363   2.415   9.709
 1330W        W 2194   0.554   3.111  10.270
 1331W        W 2195   1.322   3.041  10.730
 1332W        W 2196   1.054   0.672   7.833
 1333W        W 2197   2.454   0.914   8.087
 1334W        W 2198   2.332   2.974  10.338
 1335W        W 2199   1.026   1.592   8.839
 1336W        W 2200   0.778   3.069   9.810
 1337W        W 2201   3.386   3.425   7.361
 1338W        W 2202   0.434   2.134  10.509
 1339W        W 2203   2.324   2.401   9.195
 1340W        W 2204   0.777   2.168   8.227
 1341W        W 2205   1.307   3.089   9.792
 1342W        W 2206   1.798   0.447   8.525
 1343W        W 2207   0.222   2.563   7.650
 1344W        W 2208   1.586   1.449   7.569
 1345W        W 2209   0.357   1.880   8.405
 1346W        W 2210   1.566   0.418   9.975
 1347W        W 2211   3.314   0.351   7.336
 1348W        W 2212   3.288   2.103  10.661
 1349W        W 2213   2.049   3.324  10.616
 1350W        W 2214   3.542   2.405  10.298
 1351W        W 2215   3.030   3.094  10.886
 1352W        W 2216   0.757   3.656   9.184
 1353W        W 2217   3.543   2.202   8.466
 1354W        W 2218   2.090   1.406   8.754
 1355W        W 2219   2.058  28.984   8.500
 1356W        W 2220   1.083   2.969   8.400
 1357W        W 2221   1.671   0.733   9.571
 1358W        W 2222   1.376   0.215   9.217
 1359W        W 2223   0.388   3.231   7.604
 1360W        W 2224   2.025   2.341   8.476
 1361W        W 2225   1.075   3.134  10.270
 1362W        W 2226   0.522   1.735   7.926
 1363W        W 2227   0.344   0.577   8.967
 1364W        W 2228   1.822   2.486   8.990
 1365W        W 2229   0.043   0.323   8.009
 1366W        W 2230   2.673   1.593  10.023
 1367W        W 2231   2.528   0.954   7.574
 1368W        W 2232   3.189   2.616   9.363
 1369W        W 2233   1.890   3.045   8.948
 1370W        W 2234   1.202   3.166   7.953
 1371W        W 2235   2.411   0.066   7.447
 1372W        W 2236   0.326   3.364   9.171
 1373W        W 2237   2.265   1.101  10.795
 1374W        W 2238   0.554   0.904  10.903
 1375W        W 2239   0.392   1.345   8.253
 1376W        W 2240   0.875   1.289   8.009
 1377W        W 2241   2.404   1.598  10.685
 1378W        W 2242   1.080   2.002   9.195
 1379W        W 2243   2.564   0.077   8.429
 1380W        W 2244   1.655   3.487   8.809
 1381W        W 2245   2.845   2.987   9.871
 1382W        W 2246   2.608   2.995   9.016
 1383W        W 2247   2.487   2.231   8.705
 1384W        W 2248   1.894   0.497   7.938
 1385W        W 2249   3.476   0.210   8.576
 1386W        W 2250   1.127   1.657   7.379
 1387W        W 2251   3.332   1.066   8.612
 1388W        W 2252   2.009   2.124   7.543
 1389W        W 2253   3.007   2.360  10.317
 1390W        W 2254   2.569   3.205   7.536
 1391W        W 2255   1.291   0.851  10.445
 1392W        W 2256   1.246   1.389   9.782
 1393W        W 2257   3.233   2.819  10.185
 1394W        W 2258   2.431   0.753  10.431
 1395W        W 2259   0.188   1.313  10.281
 1396W        W 2260   1.852   1.694   9.743
 1397W        W 2261   0.465   2.409   8.593
 1398W        W 2262   0.538   1.640   9.297
 1399W        W 2263   2.720   2.104   9.955
 1400W        W 2264   2.572   3.328  10.642
 1401W        W 2265   2.412   1.250  10.301
 1402W        W 2266   2.818   3.266   8.616
 1403W        W 2267   1.822   3.029   9.733
 1404W        W 2268   1.248   3.197   9.201
 1405W        W 2269   3.021   2.503   9.820
 1406W        W 2270   2.003   2.479  10.901
 1407W        W 2271   0.737   2.452   9.053
 1408W        W 2272   2.998   2.275   8.595
 1409W        W 2273   2.546   3.245   9.500
 1410W        W 2274   0.756   3.141   9.303
 1411W        W 2275   1.625   1.072  10.788
 1412W        W 2276   1.987   3.241   8.130
 1413W        W 2277   1.459   2.548  10.786
 1414W        W 2278   1.469   2.726   8.138
 1415W        W 2279   0.680   1.359   7.344
 1416W        W 2280   0.218   3.810  14.345
 1417W        W 2281   0.558   2.558  13.985
 1418W        W 2282   3.172   2.174  11.695
 1419W        W 2283   3.400   3.321  13.643
 1420W        W 2284   1.431   3.317  11.178
 1421W        W 2285   1.358   1.381  12.159
 1422W        W 2286   0.857   1.342  12.279
 1423W        W 2287   1.669   2.082  11.727
 1424W        W 2288   1.604   3.286  14.015
 1425W        W 2289   0.362   0.883  13.932
 1426W        W 2290   0.815  28.984  13.747
 1427W        W 2291   2.593   0.509  12.789
 1428W        W 2292   2.119   1.235  11.346
 1429W        W 2293   2.720   0.963  14.362
 1430W        W 2294   0.305   0.566  13.507
 1431W        W 2295   0.338   3.305  14.343
 1432W        W 2296   1.650   2.473  11.275
 1433W        W 2297   0.385   1.272  12.986
 1434W        W 2298   1.113   1.329  14.329
 1435W        W 2299   3.413   1.023  12.728
 1436W        W 2300   3.308   2.071  13.447
 1437W        W 2301   1.636   1.545  12.582
 1438W        W 2302   2.170   2.916  12.829
 1439W        W 2303   0.576   2.281  13.173
 1440W        W 2304   0.032   1.671  12.839
 1441W        W 2305   1.179   1.733  13.919
 1442W        W 2306   3.335   1.519  14.140
 1443W        W 2307   2.062   2.596  13.655
 1444W        W 2308   1.541   1.264  13.024
 1445W        W 2309   1.560   2.068  12.538
 1446W        W 2310   2.413   2.867  14.355
 1447W        W 2311   1.711   2.103  14.466
 1448W        W 2312   1.681   1.871  13.880
 1449W        W 2313   0.153   1.179  14.481
 1450W        W 2314   2.802   2.719  14.050
 1451W        W 2315   0.427   0.256  12.036
 1452W        W 2316   0.969   2.744  13.145
 1453W        W 2317   3.352   2.526  12.504
 1454W        W 2318   3.002   0.816  12.977
 1455W        W 2319   3.238   0.889  11.067
 1456W        W 2320   3.630   1.579  13.390
 1457W        W 2321   1.804   3.160  13.118
 1458W        W 2322   3.348   2.968  11.521
 1459W        W 2323   0.576   3.727  11.540
 1460W        W 2324   0.914   3.606  11.941
 1461W        W 2325   0.712   0.308  13.346
 1462W        W 2326   3.266   1.281  13.691
 1463W        W 2327   2.479   1.673  12.232
 1464W        W 2328   2.573   1.434  11.135
 1465W        W 2329   1.876   2.625  13.147
 1466W        W 2330   1.711   1.024  12.528
 1467W        W 2331   2.239   2.963  13.356
 1468W        W 2332   3.135   1.807  12.077
 1469W        W 2333   2.084   0.448  11.858
 1470W        W 2334   0.746   3.237  11.636
 1471W        W 2335   0.158   0.665  12.149
 1472W        W 2336   2.479   1.318  12.640
 1473W        W 2337   0.495   2.957  12.574
 1474W        W 2338   1.733   3.073  11.539
 1475W        W 2339   3.063   1.351  10.981
 1476W        W 2340   0.417   3.002  13.114
 1477W        W 2341   1.016   2.762  13.700
 1478W        W 2342   1.258   1.960  12.061
 1479W        W 2343   1.141   0.575  13.245
 1480W        W 2344   3.540   0.290  12.835
 1481W        W 2345   0.781   2.174  10.898
 1482W        W 2346   0.666   1.041  11.384
 1483W        W 2347   0.587   2.985  12.069
 1484W        W 2348   1.439   2.433  12.167
 1485W        W 2349   2.960   3.199  13.873
 1486W        W 2350   1.837   0.846  11.613
 1487W        W 2351   3.146   3.537  12.465
 1488W        W 2352   2.842   1.310  13.991
 1489W        W 2353   3.634   2.917  12.296
 1490W        W 2354   2.201   2.109  13.708
 1491W        W 2355   0.244   1.621  11.852
 1492W        W 2356   1.022   2.329  13.428
 1493W        W 2357   2.265   1.432  11.813
 1494W        W 2358   2.168   1.944  11.902
 1495W        W 2359   0.698   1.367  13.380
 1496W        W 2360   0.609   1.288  14.218
 1497W        W 2361   0.494   0.218  12.539
 1498W        W 2362   2.184   0.177  12.900
 1499W        W 2363   1.894   0.669  14.345
 1500W        W 2364   2.333   0.469  11.399
 1501W        W 2365   3.413   3.080  14.125
 1502W        W 2366   2.242   0.226  14.211
 1503W        W 2367   3.247   2.552  14.219
 1504W        W 2368   2.834   0.786  13.886
 1505W        W 2369   2.515   0.635  12.129
 1506W        W 2370   2.895   1.714  14.313
 1507W        W 2371   0.711   3.422  12.395
 1508W        W 2372   1.345   1.103  11.625
 1509W        W 2373   0.991   0.414  14.258
 1510W        W 2374   2.874   0.988  11.924
 1511W        W 2375   3.257   1.341  11.871
 1512W        W 2376   1.207   3.562  14.256
 1513W        W 2377   1.084   0.052  11.590
 1514W        W 2378   3.204   0.565  12.564
 1515W        W 2379   3.517   2.895  11.030
 1516W        W 2380   0.338   2.132  12.711
 1517W        W 2381   2.395   0.544  10.892
 1518W        W 2382   3.479   2.968  12.795
 1519W        W 2383   3.362   0.281  13.392
 1520W        W 2384   1.925   1.342  14.137
 1521W        W 2385   1.817   2.569  11.755
 1522W        W 2386   2.482   1.899  14.546
 1523W        W 2387   2.202  28.831  12.525
 1524W        W 2388   0.739   1.032  12.682
 1525W        W 2389   0.413   2.154  13.644
 1526W        W 2390   2.249   3.229  12.372
 1527W        W 2391   3.298   1.191  13.193
 1528W        W 2392   2.096   3.373  13.858
 1529W        W 2393   3.273   2.202  11.171
 1530W        W 2394   1.733   1.747  12.109
 1531W        W 2395   3.545   0.266  13.877
 1532W        W 2396   1.773   2.213  13.465
 1533W        W 2397   1.996   1.026  12.965
 1534W        W 2398   2.766   1.504  11.811
 1535W        W 2399   2.914   1.168  11.439
 1536W        W 2400   2.914   3.081  11.776
 1537W        W 2401   2.732   2.487  12.581
 1538W        W 2402   2.414   1.805  11.454
 1539W        W 2403   2.053   1.887  12.485
 1540W        W 2404   3.015   1.845  12.605
 1541W        W 2405   0.570   0.792  13.109
 1542W        W 2406   3.050   1.762  13.795
 1543W        W 2407   3.486   3.433  13.050
 1544W        W 2408   1.377   2.900  12.429
 1545W        W 2409   2.562   3.375  13.608
 1546W        W 2410   2.437   0.787  13.534
 1547W        W 2411   1.656   3.498  13.518
 1548W        W 2412   3.156   0.548  12.033
 1549W        W 2413   3.062   1.630  13.304
 1550W        W 2414   0.278   1.082  13.470
 1551W        W 2415   2.800   0.901  12.495
 1552W        W 2416   3.229   1.023  14.160
 1553W        W 2417   2.282   2.691  12.374
 1554W        W 2418   1.574   3.314  12.101
 1555W        W 2419   0.626   0.545  11.276
 1556W        W 2420   1.709   0.252  13.172
 1557W        W 2421   0.943   3.182  11.180
 1558W        W 2422   1.071   1.959  11.550
 1559W        W 2423   1.815   2.361  14.027
 1560W        W 2424   1.505   0.889  12.066
 1561W        W 2425   2.824   0.292  12.357
 1562W        W 2426   2.657   3.532  12.674
 1563W        W 2427   2.165   3.454  12.832
 1564W        W 2428   1.442   2.294  13.070
 1565W        W 2429   3.271   2.987  13.274
 1566W        W 2430   0.929   0.409  11.917
 1567W        W 2431   1.445   2.826  12.944
 1568W        W 2432   1.030   0.665  10.953
 1569W        W 2433   1.723   1.211  13.509
 1570W        W 2434   2.557   0.241  13.253
 1571W        W 2435   0.111   2.056  13.218
 1572W        W 2436   1.529   1.851  11.276
 1573W        W 2437   0.860   0.082  11.116
 1574W        W 2438   1.783   1.283  11.874
 1575W        W 2439   2.547   0.352  13.782
 1576W        W 2440   1.348   2.293  13.836
 1577W        W 2441   2.105   1.932  14.189
 1578W        W 2442   2.590   1.933  13.964
 1579W        W 2443   1.938   0.297  14.716
 1580W        W 2444   1.348   0.740  12.800
 1581W        W 2445   0.675   0.661  12.294
 1582W        W 2446   0.415   3.452  11.953
 1583W        W 2447   1.965   2.891  14.080
 1584W        W 2448   0.779   2.362  11.398
 1585W        W 2449   2.486   1.832  12.743
 1586W        W 2450   2.620   1.471  13.103
 1587W        W 2451   1.890   2.041  12.970
 1588W        W 2452   2.503   2.545  11.116
 1589W        W 2453   2.201   0.344  12.409
 1590W        W 2454   3.628   0.980  11.880
 1591W        W 2455   0.319   3.580  13.868
 1592W        W 2456   0.555   2.685  13.491
 1593W        W 2457   0.072   3.561  11.577
 1594W        W 2458   2.122   0.575  13.206
 1595W        W 2459   1.306   2.848  11.360
 1596W        W 2460   3.073   3.372  11.380
 1597W        W 2461   1.910   1.664  11.545
 1598W        W 2462   0.992   0.932  11.972
 1599W        W 2463   1.992   0.784  11.107
 1600W        W 2464   2.337   2.428  14.093
 1601W        W 2465   2.764   0.555  11.683
 1602W        W 2466   0.217   0.272  11.181
 1603W        W 2467   1.458   2.633  13.458
 1604W        W 2468   1.216   2.451  12.644
 1605W        W 2469   0.985   2.670  11.007
 1606W        W 2470   0.257   3.067  11.640
 1607W        W 2471   0.809   1.772  14.307
 1608W        W 2472   1.452   0.429  14.490
 1609W        W 2473   2.039   0.412  13.720
 1610W        W 2474   1.324   0.094  12.067
 1611W        W 2475   2.157  29.000  11.597
 1612W        W 2476   0.312   0.339  13.012
 1613W        W 2477   0.376   1.116  12.308
 1614W        W 2478   3.031   0.275  12.987
 1615W        W 2479   0.540   0.717  11.774
 1616W        W 2480   2.901   0.567  13.415
 1617W        W 2481   3.429   1.711  11.093
 1618W        W 2482   0.857   0.511  12.785
 1619W        W 2483   1.856   0.880  13.876
 1620W        W 2484   0.171   0.830  11.268
 1621W        W 2485   0.862   2.143  13.910
 1622W        W 2486   2.061   1.535  12.891
 1623W        W 2487   1.923   3.444  11.109
 1624W        W 2488   0.277   2.096  11.025
 1625W        W 2489   1.038   2.568  14.170
 1626W        W 2490   0.589   1.697  13.849
 1627W        W 2491   1.350   1.938  13.465
 1628W        W 2492   3.032   0.216  13.790
 1629W        W 2493   3.590   1.856  13.821
 1630W        W 2494   3.435   1.748  11.616
 1631W        W 2495   2.351   2.336  11.597
 1632W        W 2496   2.899   3.584  10.950
 1633W        W 2497   2.051   1.571  14.603
 1634W        W 2498   0.313   2.527  14.472
 1635W        W 2499   3.613   0.681  14.446
 1636W        W 2500   2.996   1.322  12.791
 1637W        W 2501   1.687   3.584  14.417
 1638W        W 2502   1.344   0.283  11.209
 1639W        W 2503   3.034   2.666  11.192
 1640W        W 2504   0.860   0.864  14.084
 1641W        W 2505   1.472   2.783  13.971
 1642W        W 2506   3.308   0.738  13.659
 1643W        W 2507   2.704   3.713  11.422
 1644W        W 2508   2.726   2.199  12.998
 1645W        W 2509   1.015   0.483  13.745
 1646W        W 2510   1.544   1.628  14.345
 1647W        W 2511   0.928   2.773  11.719
 1648W        W 2512   2.697   2.018  11.840
 1649W        W 2513   0.749   0.876  13.571
 1650W        W 2514   1.838   2.863  12.180
 1651W        W 2515   3.376   1.473  12.435
 1652W        W 2516   1.737   0.231  14.103
 1653W        W 2517   2.570   2.689  13.062
 1654W        W 2518   3.040   3.244  12.872
 1655W        W 2519   2.095   2.743  11.349
 1656W        W 2520   0.171   2.867  14.118
 1657W        W 2521   1.042   1.053  13.119
 1658W        W 2522   0.998   0.110  12.461
 1659W        W 2523   2.508   0.960  13.037
 1660W        W 2524   1.225   2.232  11.134
 1661W        W 2525   3.240   2.242  12.935
 1662W        W 2526   0.662   2.894  14.375
 1663W        W 2527   3.001   3.605  11.857
 1664W        W 2528   1.194   0.572  12.335
 1665W        W 2529   0.850   2.135  12.415
 1666W        W 2530   1.122   3.592  13.269
 1667W        W 2531   3.192   3.548  14.203
 1668W        W 2532   2.283   1.813  13.276
 1669W        W 2533   0.627   1.834  11.298
 1670W        W 2534   3.337   3.244  12.042
 1671W        W 2535   3.241   0.805  11.586
 1672W        W 2536   1.263   0.095  13.964
 1673W        W 2537   3.121   2.988  12.427
 1674W        W 2538   2.900   1.380  12.291
 1675W        W 2539   1.222   1.211  12.626
 1676W        W 2540   1.453   1.275  13.947
 1677W        W 2541   2.570   2.502  13.628
 1678W        W 2542   1.267   0.942  13.596
 1679W        W 2543   1.240   3.557  12.412
 1680W        W 2544   0.704   3.664  14.195
 1681W        W 2545   0.575   2.829  11.297
 1682W        W 2546   3.260   2.715  11.984
 1683W        W 2547   0.940   1.295  13.823
 1684W        W 2548   3.432   1.268  11.380
 1685W        W 2549   1.291   2.413  11.645
 1686W        W 2550   2.111   1.613  13.745
 1687W        W 2551   2.218   1.278  13.357
 1688W        W 2552   0.847   1.853  13.436
 1689W        W 2553   2.988   3.436  13.340
 1690W        W 2554   2.750   0.336  14.282
 1691W        W 2555   0.544   0.408  13.976
 1692W        W 2556   0.941   1.523  12.944
 1693W        W 2557   1.128   1.151  11.133
 1694W        W 2558   0.176   3.062  13.584
 1695W        W 2559   1.410   1.774  12.980
 1696W        W 2560   1.491   0.785  11.228
 1697W        W 2561   0.792   1.742  11.946
 1698W        W 2562   0.438   3.499  13.352
 1699W        W 2563   2.978   1.694  11.381
 1700W        W 2564   3.212   0.527  14.161
 1701W        W 2565   2.746   2.769  12.152
 1702W        W 2566   0.294   1.658  14.377
 1703W        W 2567   3.187   0.300  11.497
 1704W        W 2568   2.836   2.557  11.682
 1705W        W 2569   1.414   1.608  11.704
 1706W        W 2570   2.840   0.536  11.167
 1707W        W 2571   2.839   1.107  13.440
 1708W        W 2572   0.518   1.586  12.581
 1709W        W 2573   0.957   2.662  12.248
 1710W        W 2574   2.465   1.140  12.169
 1711W        W 2575   1.844   0.559  12.753
 1712W        W 2576   3.535   2.539  13.365
 1713W        W 2577   3.501   0.709  13.148
 1714W        W 2578   0.172   3.329  12.378
 1715W        W 2579   0.445   2.593  11.759
 1716W        W 2580   0.557   0.424  14.520
 1717W        W 2581   1.669   3.037  14.482
 1718W        W 2582   3.540   2.027  12.555
 1719W        W 2583   2.782   2.168  11.327
 1720W        W 2584   2.143   3.476  13.346
 1721W        W 2585   2.800   2.248  14.291
 1722W        W 2586   1.602  28.993  11.641
 1723W        W 2587   2.266   0.845  12.565
 1724W        W 2588   0.194   2.565  12.964
 1725W        W 2589   1.454   0.487  11.738
 1726W        W 2590   1.226   2.087  14.298
 1727W        W 2591   2.018   0.882  12.119
 1728W        W 2592   2.271   2.319  13.251
 1729W        W 2593   0.604   3.119  13.903
 1730W        W 2594   1.176   3.042  14.324
 1731W        W 2595   1.053   0.697  11.493
 1732W        W 2596   2.357   0.910  11.711
 1733W        W 2597   2.409   2.954  13.843
 1734W        W 2598   1.148   1.725  12.515
 1735W        W 2599   0.811   3.157  13.423
 1736W        W 2600   3.418   3.409  11.009
 1737W        W 2601   0.412   2.101  14.174
 1738W        W 2602   2.249   2.336  12.740
 1739W        W 2603   0.872   2.286  11.921
 1740W        W 2604   1.323   3.120  13.359
 1741W        W 2605   1.707   0.444  12.243
 1742W        W 2606   0.124   2.444  11.379
 1743W        W 2607   1.615   1.334  11.248
 1744W        W 2608   0.394   1.956  12.223
 1745W        W 2609   1.523   0.489  13.653
 1746W        W 2610   3.312   0.395  11.016
 1747W        W 2611   3.266   2.037  14.168
 1748W        W 2612   2.113   3.303  14.390
 1749W        W 2613   3.557   2.371  13.856
 1750W        W 2614   2.964   3.111  14.379
 1751W        W 2615   0.837   3.711  12.819
 1752W        W 2616   3.534   2.264  12.083
 1753W        W 2617   2.048   1.379  12.329
 1754W        W 2618   1.952   0.002  12.090
 1755W        W 2619   1.061   3.155  12.117
 1756W        W 2620   1.629   0.775  13.233
 1757W        W 2621   1.282   0.205  12.887
 1758W        W 2622   0.432   3.338  11.225
 1759W        W 2623   1.937   2.306  12.202
 1760W        W 2624   1.127   3.238  13.840
 1761W        W 2625   0.463   2.081  11.715
 1762W        W 2626   0.312   0.713  12.652
 1763W        W 2627   1.768   2.568  12.625
 1764W        W 2628   0.097   0.470  11.659
 1765W        W 2629   2.606   1.549  13.609
 1766W        W 2630   2.513   0.925  11.220
 1767W        W 2631   3.047   2.727  12.888
 1768W        W 2632   1.779   3.157  12.601
 1769W        W 2633   1.263   3.290  11.667
 1770W        W 2634   2.345   0.011  11.112
 1771W        W 2635   0.415   3.419  12.829
 1772W        W 2636   2.226   1.083  14.461
 1773W        W 2637   0.597   0.917  14.579
 1774W        W 2638   0.590   1.246  11.845
 1775W        W 2639   0.943   1.459  11.510
 1776W        W 2640   2.413   1.516  14.206
 1777W        W 2641   0.976   2.060  12.932
 1778W        W 2642   2.471   0.114  12.002
 1779W        W 2643   1.768   3.668  12.547
 1780W        W 2644   2.788   2.940  13.460
 1781W        W 2645   2.644   2.997  12.632
 1782W        W 2646   2.451   2.190  12.273
 1783W        W 2647   1.827   0.373  11.384
 1784W        W 2648   3.462   0.176  12.235
 1785W        W 2649   1.085   1.722  11.052
 1786W        W 2650   3.262   0.999  12.253
 1787W        W 2651   2.005   2.108  11.290
 1788W        W 2652   3.008   2.293  13.818
 1789W        W 2653   2.585   3.235  11.176
 1790W        W 2654   1.380   0.751  14.084
 1791W        W 2655   1.237   1.444  13.417
 1792W        W 2656   3.216   2.766  13.738
 1793W        W 2657   2.335   0.716  14.070
 1794W        W 2658   0.216   1.366  13.917
 1795W        W 2659   1.784   1.685  13.337
 1796W        W 2660   0.470   2.480  12.271
 1797W        W 2661   0.512   1.778  13.056
 1798W        W 2662   2.727   2.030  13.472
 1799W        W 2663   2.569   3.383  14.160
 1800W        W 2664   2.345   1.167  13.853
 1801W        W 2665   2.753   3.305  12.217
 1802W        W 2666   1.782   3.014  13.609
 1803W        W 2667   1.376   3.350  12.871
 1804W        W 2668   3.006   2.487  13.339
 1805W        W 2669   1.967   2.563  14.478
 1806W        W 2670   0.710   2.524  12.741
 1807W        W 2671   2.997   2.300  12.176
 1808W        W 2672   2.567   3.235  13.089
 1809W        W 2673   0.876   3.193  12.900
 1810W        W 2674   1.584   1.086  14.456
 1811W        W 2675   2.052   3.282  11.886
 1812W        W 2676   1.454   2.560  14.463
 1813W        W 2677   1.408   2.856  11.891
 1814W        W 2678   0.676   1.406  11.013
 1815W        W 2679   0.188   3.831  18.011
 1816W        W 2680   0.549   2.515  17.531
 1817W        W 2681   2.956   1.836  15.334
 1818W        W 2682   3.475   3.366  17.419
 1819W        W 2683   1.321   3.325  14.753
 1820W        W 2684   1.267   1.398  15.737
 1821W        W 2685   0.807   1.229  15.874
 1822W        W 2686   1.633   2.050  15.329
 1823W        W 2687   1.592   3.241  17.696
 1824W        W 2688   0.275   0.812  17.551
 1825W        W 2689   0.763   0.020  17.371
 1826W        W 2690   2.629   0.462  16.439
 1827W        W 2691   2.239   1.248  15.007
 1828W        W 2692   2.839   0.862  18.096
 1829W        W 2693   0.255   0.556  17.117
 1830W        W 2694   0.313   3.161  18.033
 1831W        W 2695   1.683   2.373  14.906
 1832W        W 2696   0.281   1.287  16.632
 1833W        W 2697   1.120   1.327  17.969
 1834W        W 2698   3.380   0.933  16.440
 1835W        W 2699   3.338   2.055  17.205
 1836W        W 2700   1.553   1.486  16.178
 1837W        W 2701   2.242   2.879  16.647
 1838W        W 2702   0.574   2.263  16.822
 1839W        W 2703   0.020   1.718  16.493
 1840W        W 2704   1.153   1.727  17.474
 1841W        W 2705   3.388   1.552  17.978
 1842W        W 2706   0.867   2.892  16.141
 1843W        W 2707   1.974   2.690  17.354
 1844W        W 2708   1.461   1.237  16.624
 1845W        W 2709   1.401   2.019  16.169
 1846W        W 2710   2.345   2.882  18.164
 1847W        W 2711   1.651   2.085  18.127
 1848W        W 2712   1.660   1.845  17.614
 1849W        W 2713   0.113   1.177  18.140
 1850W        W 2714   2.809   2.778  17.855
 1851W        W 2715   0.497   0.082  15.273
 1852W        W 2716   0.994   2.548  16.748
 1853W        W 2717   3.285   2.463  16.274
 1854W        W 2718   3.048   0.686  16.714
 1855W        W 2719   3.129   0.809  14.639
 1856W        W 2720   3.618   1.521  17.191
 1857W        W 2721   1.448   3.336  16.796
 1858W        W 2722   3.371   3.017  15.083
 1859W        W 2723   0.506   3.788  15.277
 1860W        W 2724   0.864   3.597  15.604
 1861W        W 2725   0.750   0.398  16.976
 1862W        W 2726   3.242   1.265  17.457
 1863W        W 2727   2.582   1.690  16.092
 1864W        W 2728   2.594   1.399  14.669
 1865W        W 2729   1.838   2.599  16.817
 1866W        W 2730   1.712   0.974  16.155
 1867W        W 2731   2.293   3.040  17.136
 1868W        W 2732   3.065   1.816  15.847
 1869W        W 2733   2.186   0.427  15.582
 1870W        W 2734   0.709   3.252  15.253
 1871W        W 2735   0.231   0.627  15.763
 1872W        W 2736   2.419   1.326  16.487
 1873W        W 2737   0.367   2.866  16.190
 1874W        W 2738   1.408   2.816  15.022
 1875W        W 2739   3.101   1.323  14.581
 1876W        W 2740   0.265   3.099  16.900
 1877W        W 2741   0.991   2.754  17.443
 1878W        W 2742   1.219   1.969  15.656
 1879W        W 2743   1.263   0.523  16.958
 1880W        W 2744   3.540   0.290  16.541
 1881W        W 2745   0.681   1.892  14.799
 1882W        W 2746   0.500   1.101  15.060
 1883W        W 2747   0.569   2.942  15.685
 1884W        W 2748   1.449   2.394  15.809
 1885W        W 2749   3.032   3.243  17.659
 1886W        W 2750   1.938   0.973  15.318
 1887W        W 2751   3.234   3.527  16.271
 1888W        W 2752   2.888   1.346  17.840
 1889W        W 2753   3.663   2.773  16.086
 1890W        W 2754   2.204   2.205  17.455
 1891W        W 2755   0.038   1.732  15.588
 1892W        W 2756   0.916   2.317  17.199
 1893W        W 2757   2.257   1.307  15.544
 1894W        W 2758   2.169   1.747  15.774
 1895W        W 2759   0.653   1.344  17.010
 1896W        W 2760   0.597   1.276  17.885
 1897W        W 2761   0.504   0.223  15.931
 1898W        W 2762   2.229   0.119  16.567
 1899W        W 2763   1.923   0.688  17.940
 1900W        W 2764   2.339   0.471  15.065
 1901W        W 2765   3.515   3.072  17.851
 1902W        W 2766   2.242   0.259  17.890
 1903W        W 2767   3.283   2.600  17.978
 1904W        W 2768   2.879   0.898  17.584
 1905W        W 2769   2.566   0.662  15.871
 1906W        W 2770   2.951   1.785  18.130
 1907W        W 2771   0.638   3.335  16.007
 1908W        W 2772   1.429   1.069  15.313
 1909W        W 2773   0.992   0.423  17.905
 1910W        W 2774   2.886   0.985  15.631
 1911W        W 2775   3.211   1.373  15.529
 1912W        W 2776   1.111   3.425  17.944
 1913W        W 2777   1.014   0.098  15.200
 1914W        W 2778   3.234   0.504  16.193
 1915W        W 2779   3.438   2.824  14.596
 1916W        W 2780   0.305   2.123  16.353
 1917W        W 2781   2.376   0.587  14.561
 1918W        W 2782   3.484   3.101  16.455
 1919W        W 2783   3.306   0.302  17.037
 1920W        W 2784   1.949   1.372  17.807
 1921W        W 2785   1.767   2.548  15.380
 1922W        W 2786   2.480   1.965  18.220
 1923W        W 2787   2.217  28.724  16.234
 1924W        W 2788   0.711   1.093  16.376
 1925W        W 2789   0.389   2.083  17.276
 1926W        W 2790   2.155   3.291  16.309
 1927W        W 2791   3.305   1.135  16.944
 1928W        W 2792   2.047   3.320  17.497
 1929W        W 2793   3.164   2.226  14.651
 1930W        W 2794   1.663   1.762  15.755
 1931W        W 2795   3.523   0.270  17.505
 1932W        W 2796   1.757   2.240  17.193
 1933W        W 2797   1.954   1.004  16.634
 1934W        W 2798   2.724   1.487  15.627
 1935W        W 2799   2.878   1.315  15.123
 1936W        W 2800   3.118   3.131  15.515
 1937W        W 2801   2.727   2.569  16.439
 1938W        W 2802   2.471   1.661  15.201
 1939W        W 2803   1.907   1.878  16.208
 1940W        W 2804   2.942   1.752  16.489
 1941W        W 2805   0.483   0.808  16.736
 1942W        W 2806   3.096   1.774  17.601
 1943W        W 2807   3.542   3.496  16.752
 1944W        W 2808   1.375   2.956  16.076
 1945W        W 2809   2.557   3.392  17.447
 1946W        W 2810   2.373   0.791  17.230
 1947W        W 2811   1.692   3.615  17.183
 1948W        W 2812   3.183   0.538  15.665
 1949W        W 2813   3.094   1.600  17.084
 1950W        W 2814   0.204   1.095  17.123
 1951W        W 2815   2.868   0.882  16.244
 1952W        W 2816   3.315   1.041  17.926
 1953W        W 2817   2.263   2.696  16.158
 1954W        W 2818   1.503   3.352  15.735
 1955W        W 2819   0.581   0.547  15.056
 1956W        W 2820   1.748   0.258  16.798
 1957W        W 2821   0.829   3.347  14.594
 1958W        W 2822   1.016   1.896  15.185
 1959W        W 2823   1.796   2.359  17.720
 1960W        W 2824   1.632   0.752  15.671
 1961W        W 2825   2.853   0.255  15.964
 1962W        W 2826   2.720   3.584  16.381
 1963W        W 2827   1.960   3.294  16.800
 1964W        W 2828   1.432   2.299  16.653
 1965W        W 2829   3.266   3.057  17.067
 1966W        W 2830   0.829   0.420  15.561
 1967W        W 2831   1.394   2.832  16.616
 1968W        W 2832   1.115   0.852  14.537
 1969W        W 2833   1.735   1.231  17.067
 1970W        W 2834   2.608   0.228  16.916
 1971W        W 2835   0.092   2.117  16.842
 1972W        W 2836   1.636   1.793  14.869
 1973W        W 2837   1.020   0.418  14.792
 1974W        W 2838   1.758   1.266  15.700
 1975W        W 2839   2.513   0.318  17.449
 1976W        W 2840   1.326   2.250  17.511
 1977W        W 2841   2.089   1.957  17.895
 1978W        W 2842   2.627   2.008  17.708
 1979W        W 2843   1.920   0.290  18.298
 1980W        W 2844   1.471   0.733  16.550
 1981W        W 2845   0.772   0.711  16.004
 1982W        W 2846   0.356   3.408  15.591
 1983W        W 2847   1.910   2.862  17.856
 1984W        W 2848   0.757   2.356  15.020
 1985W        W 2849   2.329   1.844  16.509
 1986W        W 2850   2.624   1.617  16.881
 1987W        W 2851   1.866   2.050  16.696
 1988W        W 2852   2.427   2.405  14.617
 1989W        W 2853   2.297   0.267  16.077
 1990W        W 2854   3.470   0.904  15.445
 1991W        W 2855   0.325   3.465  17.613
 1992W        W 2856   0.623   2.739  17.075
 1993W        W 2857   0.035   3.517  15.220
 1994W        W 2858   2.189   0.557  16.810
 1995W        W 2859   1.016   2.705  14.707
 1996W        W 2860   3.196   3.513  15.055
 1997W        W 2861   1.928   1.604  15.287
 1998W        W 2862   1.120   0.876  15.666
 1999W        W 2863   1.997   0.815  14.833
 2000W        W 2864   2.377   2.424  17.905
 2001W        W 2865   2.736   0.446  15.425
 2002W        W 2866   0.221   0.213  14.848
 2003W        W 2867   1.377   2.593  17.098
 2004W        W 2868   1.187   2.496  16.249
 2005W        W 2869   0.773   2.286  14.491
 2006W        W 2870   0.209   3.026  15.245
 2007W        W 2871   0.756   1.749  18.027
 2008W        W 2872   1.460   0.478  18.101
 2009W        W 2873   2.025   0.464  17.442
 2010W        W 2874   1.255   0.142  15.721
 2011W        W 2875   2.166   0.019  15.251
 2012W        W 2876   0.351   0.218  16.717
 2013W        W 2877   0.348   1.068  15.989
 2014W        W 2878   3.032   0.179  16.618
 2015W        W 2879   0.616   0.887  15.517
 2016W        W 2880   2.851   0.601  17.169
 2017W        W 2881   3.381   1.763  14.583
 2018W        W 2882   0.927   0.594  16.503
 2019W        W 2883   1.869   0.957  17.490
 2020W        W 2884   0.154   0.757  14.845
 2021W        W 2885   0.788   2.056  17.616
 2022W        W 2886   1.919   1.524  16.620
 2023W        W 2887   1.827   3.385  14.863
 2024W        W 2888   0.220   2.068  14.677
 2025W        W 2889   1.010   2.437  17.872
 2026W        W 2890   0.555   1.613  17.480
 2027W        W 2891   1.307   2.005  17.053
 2028W        W 2892   3.007   0.185  17.452
 2029W        W 2893   3.606   1.838  17.600
 2030W        W 2894   3.327   1.619  15.070
 2031W        W 2895   2.162   2.068  15.352
 2032W        W 2896   2.895   3.569  14.612
 2033W        W 2897   2.078   1.577  18.270
 2034W        W 2898   0.126   2.485  18.258
 2035W        W 2899   3.634   0.702  18.172
 2036W        W 2900   2.919   1.245  16.620
 2037W        W 2901   1.577   3.563  18.074
 2038W        W 2902   1.465   0.208  14.956
 2039W        W 2903   2.879   2.663  14.586
 2040W        W 2904   0.758   0.830  17.731
 2041W        W 2905   1.485   2.747  17.583
 2042W        W 2906   3.320   0.745  17.324
 2043W        W 2907   2.698   3.710  15.072
 2044W        W 2908   2.690   2.152  16.733
 2045W        W 2909   1.004   0.512  17.404
 2046W        W 2910   1.574   1.578  18.088
 2047W        W 2911   0.930   2.794  15.278
 2048W        W 2912   2.592   1.996  15.658
 2049W        W 2913   0.683   0.867  17.213
 2050W        W 2914   1.814   2.753  15.866
 2051W        W 2915   3.360   1.430  16.437
 2052W        W 2916   1.746   0.190  17.778
 2053W        W 2917   2.709   2.873  16.840
 2054W        W 2918   3.019   3.244  16.644
 2055W        W 2919   1.915   2.851  14.905
 2056W        W 2920   0.134   2.670  17.775
 2057W        W 2921   1.016   1.002  16.810
 2058W        W 2922   0.970   0.226  16.134
 2059W        W 2923   2.567   0.891  16.747
 2060W        W 2924   1.207   2.220  14.802
 2061W        W 2925   3.211   2.216  16.718
 2062W        W 2926   0.600   2.725  18.018
 2063W        W 2927   3.090   3.658  15.532
 2064W        W 2928   1.325   0.589  16.069
 2065W        W 2929   0.883   2.127  16.027
 2066W        W 2930   1.143   3.611  17.104
 2067W        W 2931   3.359   3.557  17.901
 2068W        W 2932   2.270   1.978  17.007
 2069W        W 2933   0.299   1.564  14.897
 2070W        W 2934   3.431   3.202  15.923
 2071W        W 2935   3.034   0.788  15.169
 2072W        W 2936   1.251   0.099  17.599
 2073W        W 2937   3.082   2.926  16.215
 2074W        W 2938   2.985   1.370  16.090
 2075W        W 2939   1.197   1.086  16.190
 2076W        W 2940   1.482   1.331  17.567
 2077W        W 2941   2.618   2.494  17.463
 2078W        W 2942   1.316   0.957  17.233
 2079W        W 2943   1.131   3.539  16.052
 2080W        W 2944   0.629   3.581  18.003
 2081W        W 2945   0.553   2.838  14.900
 2082W        W 2946   3.255   2.708  15.789
 2083W        W 2947   0.948   1.248  17.467
 2084W        W 2948   3.376   1.130  14.974
 2085W        W 2949   1.234   2.380  15.311
 2086W        W 2950   2.159   1.677  17.433
 2087W        W 2951   2.262   1.268  17.016
 2088W        W 2952   0.822   1.827  17.075
 2089W        W 2953   2.932   3.477  17.100
 2090W        W 2954   2.756   0.348  17.965
 2091W        W 2955   0.504   0.364  17.661
 2092W        W 2956   0.967   1.497  16.620
 2093W        W 2957   1.225   1.244  14.864
 2094W        W 2958   0.266   2.991  17.404
 2095W        W 2959   1.437   1.756  16.620
 2096W        W 2960   1.482   0.758  14.898
 2097W        W 2961   0.802   1.692  15.667
 2098W        W 2962   0.283   3.582  17.123
 2099W        W 2963   2.908   1.773  14.822
 2100W        W 2964   3.217   0.551  17.808
 2101W        W 2965   2.753   2.619  15.934
 2102W        W 2966   0.260   1.650  17.989
 2103W        W 2967   3.189   0.284  15.135
 2104W        W 2968   3.008   2.284  15.609
 2105W        W 2969   1.407   1.578  15.279
 2106W        W 2970   2.804   0.446  14.827
 2107W        W 2971   2.801   1.145  17.132
 2108W        W 2972   0.507   1.548  16.190
 2109W        W 2973   0.978   2.592  15.756
 2110W        W 2974   2.521   1.175  15.976
 2111W        W 2975   1.909   0.519  16.364
 2112W        W 2976   3.481   2.547  17.076
 2113W        W 2977   3.582   0.701  16.858
 2114W        W 2978   0.107   3.250  15.999
 2115W        W 2979   0.441   2.577  15.360
 2116W        W 2980   0.592   0.297  18.192
 2117W        W 2981   1.559   3.057  18.184
 2118W        W 2982   3.384   1.939  16.284
 2119W        W 2983   2.593   2.128  15.033
 2120W        W 2984   2.224   3.623  17.109
 2121W        W 2985   2.864   2.296  18.070
 2122W        W 2986   1.678   0.072  15.443
 2123W        W 2987   2.306   0.839  16.296
 2124W        W 2988   0.228   2.620  16.635
 2125W        W 2989   1.315   0.509  15.344
 2126W        W 2990   1.213   1.951  17.923
 2127W        W 2991   2.106   0.890  15.818
 2128W        W 2992   2.356   2.513  17.026
 2129W        W 2993   0.715   3.129  17.711
 2130W        W 2994   1.135   2.926  17.920
 2131W        W 2995   0.992   0.846  15.109
 2132W        W 2996   2.447   0.869  15.377
 2133W        W 2997   2.367   2.924  17.637
 2134W        W 2998   1.041   1.639  16.136
 2135W        W 2999   0.674   3.245  17.212
 2136W        W 3000   3.390   3.333  14.625
 2137W        W 3001   0.323   2.154  17.832
 2138W        W 3002   2.242   2.363  16.552
 2139W        W 3003   0.762   2.201  15.523
 2140W        W 3004   1.069   3.025  16.970
 2141W        W 3005   1.750   0.314  15.904
 2142W        W 3006   0.119   2.497  14.959
 2143W        W 3007   1.731   1.271  14.926
 2144W        W 3008   0.408   1.950  15.865
 2145W        W 3009   1.518   0.521  17.447
 2146W        W 3010   3.289   0.323  14.632
 2147W        W 3011   3.346   2.082  17.970
 2148W        W 3012   2.055   3.346  18.032
 2149W        W 3013   3.570   2.370  17.564
 2150W        W 3014   3.106   3.080  18.148
 2151W        W 3015   0.776   3.479  16.771
 2152W        W 3016   3.440   2.221  15.865
 2153W        W 3017   2.061   1.367  16.116
 2154W        W 3018   2.054  28.924  15.779
 2155W        W 3019   1.028   3.137  15.723
 2156W        W 3020   1.750   0.719  17.029
 2157W        W 3021   1.315   0.225  16.523
 2158W        W 3022   0.391   3.365  14.872
 2159W        W 3023   1.924   2.217  15.791
 2160W        W 3024   1.164   3.224  17.442
 2161W        W 3025   0.476   1.848  15.296
 2162W        W 3026   0.352   0.595  16.276
 2163W        W 3027   1.780   2.395  16.272
 2164W        W 3028   0.115   0.446  15.285
 2165W        W 3029   2.671   1.567  17.405
 2166W        W 3030   2.615   0.921  14.877
 2167W        W 3031   3.172   2.737  16.685
 2168W        W 3032   1.818   2.911  16.364
 2169W        W 3033   1.235   3.266  15.271
 2170W        W 3034   2.412   0.083  14.698
 2171W        W 3035   0.401   3.323  16.456
 2172W        W 3036   2.319   1.112  18.095
 2173W        W 3037   0.525   0.844  18.201
 2174W        W 3038   0.407   1.365  15.538
 2175W        W 3039   0.930   1.308  15.336
 2176W        W 3040   2.434   1.572  17.886
 2177W        W 3041   0.980   2.038  16.551
 2178W        W 3042   2.534   0.016  15.638
 2179W        W 3043   1.586   3.394  16.295
 2180W        W 3044   2.789   2.956  17.322
 2181W        W 3045   2.616   3.068  16.343
 2182W        W 3046   2.350   2.168  16.089
 2183W        W 3047   1.829   0.489  15.202
 2184W        W 3048   3.508   0.160  15.843
 2185W        W 3049   1.160   1.723  14.687
 2186W        W 3050   3.303   1.002  15.934
 2187W        W 3051   2.088   2.049  14.837
 2188W        W 3052   3.064   2.293  17.589
 2189W        W 3053   2.543   3.211  14.703
 2190W        W 3054   1.276   0.864  17.744
 2191W        W 3055   1.249   1.454  17.054
 2192W        W 3056   3.230   2.774  17.500
 2193W        W 3057   2.420   0.723  17.754
 2194W        W 3058   0.164   1.295  17.617
 2195W        W 3059   1.752   1.735  17.092
 2196W        W 3060   0.479   2.459  15.884
 2197W        W 3061   0.513   1.764  16.671
 2198W        W 3062   2.791   2.028  17.218
 2199W        W 3063   2.603   3.289  17.949
 2200W        W 3064   2.368   1.187  17.550
 2201W        W 3065   2.896   3.315  15.947
 2202W        W 3066   1.642   3.068  17.193
 2203W        W 3067   1.088   3.223  16.451
 2204W        W 3068   2.971   2.498  17.097
 2205W        W 3069   1.971   2.483  18.199
 2206W        W 3070   0.673   2.472  16.360
 2207W        W 3071   2.873   2.157  16.166
 2208W        W 3072   2.507   3.340  16.780
 2209W        W 3073   0.682   2.938  16.616
 2210W        W 3074   1.573   1.055  18.129
 2211W        W 3075   1.736   3.127  15.313
 2212W        W 3076   1.463   2.560  18.089
 2213W        W 3077   1.387   2.837  15.551
 2214W        W 3078   0.751   1.393  14.704
 2215W        W 3079   0.325   3.636  21.678
 2216W        W 3080   0.599   2.533  21.223
 2217W        W 3081   3.232   2.100  18.892
 2218W        W 3082   3.434   3.305  20.916
 2219W        W 3083   1.252   3.374  18.460
 2220W        W 3084   1.265   1.412  19.425
 2221W        W 3085   0.786   1.239  19.506
 2222W        W 3086   1.609   2.111  19.017
 2223W        W 3087   1.612   3.296  21.199
 2224W        W 3088   0.415   0.880  21.219
 2225W        W 3089   0.764  28.999  21.074
 2226W        W 3090   2.630   0.505  20.132
 2227W        W 3091   2.233   1.316  18.690
 2228W        W 3092   2.786   0.942  21.709
 2229W        W 3093   0.317   0.559  20.811
 2230W        W 3094   0.325   3.130  21.772
 2231W        W 3095   1.619   2.389  18.567
 2232W        W 3096   0.280   1.274  20.244
 2233W        W 3097   1.126   1.331  21.583
 2234W        W 3098   3.391   1.134  20.030
 2235W        W 3099   3.333   2.082  20.801
 2236W        W 3100   1.581   1.543  19.817
 2237W        W 3101   2.308   2.870  20.216
 2238W        W 3102   0.629   2.177  20.471
 2239W        W 3103   0.077   1.732  20.111
 2240W        W 3104   1.211   1.721  21.196
 2241W        W 3105   3.394   1.531  21.527
 2242W        W 3106   0.878   2.890  19.819
 2243W        W 3107   2.142   2.618  20.945
 2244W        W 3108   1.552   1.246  20.274
 2245W        W 3109   1.457   2.064  19.847
 2246W        W 3110   2.441   2.851  21.692
 2247W        W 3111   1.687   2.142  21.729
 2248W        W 3112   1.725   1.845  21.177
 2249W        W 3113   0.155   1.140  21.677
 2250W        W 3114   2.880   2.755  21.420
 2251W        W 3115   0.503   0.335  19.091
 2252W        W 3116   1.051   2.706  20.456
 2253W        W 3117   3.436   2.332  19.813
 2254W        W 3118   3.104   0.796  20.321
 2255W        W 3119   3.228   0.842  18.478
 2256W        W 3120   3.700   1.554  20.747
 2257W        W 3121   1.536   3.363  20.248
 2258W        W 3122   3.460   2.613  18.861
 2259W        W 3123   0.581   3.791  18.888
 2260W        W 3124   0.882   3.621  19.267
 2261W        W 3125   0.761   0.405  20.565
 2262W        W 3126   3.276   1.314  21.035
 2263W        W 3127   2.643   1.737  19.600
 2264W        W 3128   2.604   1.483  18.379
 2265W        W 3129   1.939   2.604  20.462
 2266W        W 3130   1.792   1.063  19.840
 2267W        W 3131   2.328   3.028  20.710
 2268W        W 3132   3.171   1.815  19.324
 2269W        W 3133   2.097   0.524  19.241
 2270W        W 3134   0.834   3.365  18.761
 2271W        W 3135   0.176   0.591  19.420
 2272W        W 3136   2.442   1.354  20.081
 2273W        W 3137   0.358   2.906  19.847
 2274W        W 3138   1.394   2.897  18.668
 2275W        W 3139   3.078   1.306  18.318
 2276W        W 3140   0.184   2.998  20.487
 2277W        W 3141   1.034   2.741  20.994
 2278W        W 3142   1.261   1.928  19.363
 2279W        W 3143   1.263   0.525  20.545
 2280W        W 3144   3.243   0.078  19.894
 2281W        W 3145   0.714   1.857  18.536
 2282W        W 3146   0.482   1.049  18.694
 2283W        W 3147   0.567   3.006  19.381
 2284W        W 3148   1.419   2.411  19.433
 2285W        W 3149   2.997   3.229  21.186
 2286W        W 3150   1.975   0.972  18.970
 2287W        W 3151   3.245   3.600  19.790
 2288W        W 3152   2.910   1.353  21.412
 2289W        W 3153   3.621   2.797  19.591
 2290W        W 3154   2.271   2.139  21.051
 2291W        W 3155   0.118   1.683  19.319
 2292W        W 3156   1.041   2.289  20.749
 2293W        W 3157   2.255   1.416  19.192
 2294W        W 3158   2.250   1.903  19.304
 2295W        W 3159   0.689   1.313  20.560
 2296W        W 3160   0.626   1.294  21.445
 2297W        W 3161   0.462   0.203  19.597
 2298W        W 3162   2.215   0.146  20.211
 2299W        W 3163   1.893   0.692  21.605
 2300W        W 3164   2.387   0.555  18.783
 2301W        W 3165   3.428   3.103  21.444
 2302W        W 3166   2.259   0.236  21.492
 2303W        W 3167   3.325   2.564  21.576
 2304W        W 3168   2.825   0.879  21.180
 2305W        W 3169   2.563   0.719  19.475
 2306W        W 3170   2.975   1.779  21.727
 2307W        W 3171   0.678   3.360  19.747
 2308W        W 3172   1.465   1.054  18.961
 2309W        W 3173   0.927   0.428  21.520
 2310W        W 3174   2.939   1.013  19.308
 2311W        W 3175   3.304   1.345  19.164
 2312W        W 3176   1.281   3.495  21.562
 2313W        W 3177   1.091   0.145  18.899
 2314W        W 3178   3.350   0.598  19.899
 2315W        W 3179   3.556   2.818  18.358
 2316W        W 3180   0.391   2.123  19.991
 2317W        W 3181   2.354   0.605  18.251
 2318W        W 3182   3.490   2.949  20.080
 2319W        W 3183   3.441   0.355  20.631
 2320W        W 3184   1.954   1.374  21.429
 2321W        W 3185   1.755   2.610  19.012
 2322W        W 3186   2.513   1.950  21.848
 2323W        W 3187   2.251  28.784  19.875
 2324W        W 3188   0.725   1.126  20.013
 2325W        W 3189   0.401   2.165  20.924
 2326W        W 3190   2.264   3.301  19.882
 2327W        W 3191   3.371   1.202  20.528
 2328W        W 3192   2.111   3.367  21.092
 2329W        W 3193   3.299   2.343  18.432
 2330W        W 3194   1.755   1.807  19.399
 2331W        W 3195   3.566   0.256  21.115
 2332W        W 3196   1.826   2.227  20.808
 2333W        W 3197   2.045   1.062  20.306
 2334W        W 3198   2.773   1.494  19.163
 2335W        W 3199   2.958   1.146  18.810
 2336W        W 3200   3.213   2.881  19.233
 2337W        W 3201   2.726   2.509  19.963
 2338W        W 3202   2.467   1.793  18.799
 2339W        W 3203   1.979   1.987  19.821
 2340W        W 3204   2.922   1.751  20.043
 2341W        W 3205   0.516   0.813  20.366
 2342W        W 3206   3.109   1.789  21.179
 2343W        W 3207   3.510   3.391  20.383
 2344W        W 3208   1.387   3.042  19.813
 2345W        W 3209   2.595   3.432  20.902
 2346W        W 3210   2.397   0.816  20.863
 2347W        W 3211   1.672   3.502  20.729
 2348W        W 3212   3.219   0.553  19.365
 2349W        W 3213   3.130   1.643  20.631
 2350W        W 3214   0.254   1.071  20.744
 2351W        W 3215   2.907   0.901  19.839
 2352W        W 3216   3.311   1.022  21.521
 2353W        W 3217   2.236   2.695  19.734
 2354W        W 3218   1.557   3.378  19.443
 2355W        W 3219   0.587   0.553  18.639
 2356W        W 3220   1.745   0.280  20.455
 2357W        W 3221   0.799   3.151  18.269
 2358W        W 3222   1.124   1.947  18.841
 2359W        W 3223   1.872   2.374  21.311
 2360W        W 3224   1.664   0.808  19.391
 2361W        W 3225   2.866   0.363  19.676
 2362W        W 3226   2.718   3.558  19.926
 2363W        W 3227   2.028   3.295  20.385
 2364W        W 3228   1.404   2.308  20.357
 2365W        W 3229   3.271   2.957  20.557
 2366W        W 3230   0.960   0.461  19.275
 2367W        W 3231   1.510   2.836  20.294
 2368W        W 3232   1.047   0.845  18.210
 2369W        W 3233   1.792   1.254  20.770
 2370W        W 3234   2.578   0.211  20.568
 2371W        W 3235   0.118   2.102  20.480
 2372W        W 3236   1.576   1.854  18.568
 2373W        W 3237   1.045   0.373  18.433
 2374W        W 3238   1.759   1.309  19.322
 2375W        W 3239   2.581   0.364  21.080
 2376W        W 3240   1.390   2.261  21.152
 2377W        W 3241   2.111   1.928  21.516
 2378W        W 3242   2.650   1.949  21.335
 2379W        W 3243   1.902   0.299  21.930
 2380W        W 3244   1.477   0.754  20.140
 2381W        W 3245   0.746   0.725  19.654
 2382W        W 3246   0.389   3.493  19.301
 2383W        W 3247   2.004   2.890  21.350
 2384W        W 3248   0.770   2.345  18.705
 2385W        W 3249   2.414   1.869  20.058
 2386W        W 3250   2.643   1.649  20.472
 2387W        W 3251   1.862   2.099  20.302
 2388W        W 3252   2.436   2.431  18.436
 2389W        W 3253   2.334   0.324  19.734
 2390W        W 3254   3.763   1.041  19.212
 2391W        W 3255   0.372   3.519  21.189
 2392W        W 3256   0.602   2.659  20.713
 2393W        W 3257   0.109   3.562  18.871
 2394W        W 3258   2.192   0.577  20.469
 2395W        W 3259   1.007   2.681  18.372
 2396W        W 3260   3.199   3.039  18.682
 2397W        W 3261   1.952   1.720  18.900
 2398W        W 3262   1.145   0.922  19.330
 2399W        W 3263   1.979   0.902  18.445
 2400W        W 3264   2.393   2.374  21.494
 2401W        W 3265   2.860   0.622  18.985
 2402W        W 3266   0.188   0.199  18.524
 2403W        W 3267   1.485   2.606  20.769
 2404W        W 3268   1.263   2.554  19.922
 2405W        W 3269   0.670   2.253  18.207
 2406W        W 3270   0.407   3.123  18.897
 2407W        W 3271   0.799   1.756  21.576
 2408W        W 3272   1.421   0.413  21.740
 2409W        W 3273   2.065   0.401  21.002
 2410W        W 3274   1.319   0.105  19.382
 2411W        W 3275   2.202   0.079  18.862
 2412W        W 3276   0.260   0.214  20.434
 2413W        W 3277   0.319   1.053  19.595
 2414W        W 3278   3.043   0.270  20.327
 2415W        W 3279   0.619   0.850  19.163
 2416W        W 3280   2.854   0.612  20.717
 2417W        W 3281   3.413   1.827  18.436
 2418W        W 3282   0.958   0.611  20.107
 2419W        W 3283   1.903   0.896  21.124
 2420W        W 3284   0.111   0.720  18.514
 2421W        W 3285   0.874   2.110  21.201
 2422W        W 3286   1.973   1.579  20.181
 2423W        W 3287   1.765   3.399  18.518
 2424W        W 3288   0.247   1.989  18.353
 2425W        W 3289   1.085   2.534  21.466
 2426W        W 3290   0.564   1.700  21.106
 2427W        W 3291   1.407   1.933  20.755
 2428W        W 3292   3.061   0.198  20.969
 2429W        W 3293   3.615   1.837  21.166
 2430W        W 3294   3.567   1.722  18.949
 2431W        W 3295   2.120   2.235  18.934
 2432W        W 3296   2.968   3.569  18.229
 2433W        W 3297   2.062   1.586  21.919
 2434W        W 3298   0.321   2.522  21.836
 2435W        W 3299   3.718   0.771  21.746
 2436W        W 3300   2.940   1.281  20.229
 2437W        W 3301   1.770   3.647  21.627
 2438W        W 3302   1.499   0.211  18.600
 2439W        W 3303   2.902   2.684  18.400
 2440W        W 3304   0.933   0.901  21.309
 2441W        W 3305   1.494   2.792  21.263
 2442W        W 3306   3.311   0.808  20.857
 2443W        W 3307   2.759   3.667  18.704
 2444W        W 3308   2.776   2.160  20.331
 2445W        W 3309   1.019   0.479  21.013
 2446W        W 3310   1.561   1.637  21.643
 2447W        W 3311   0.907   2.868  18.888
 2448W        W 3312   2.750   2.075  19.177
 2449W        W 3313   0.756   0.873  20.817
 2450W        W 3314   1.757   2.807  19.519
 2451W        W 3315   1.756   0.216  21.401
 2452W        W 3316   2.815   2.845  20.336
 2453W        W 3317   3.072   3.239  20.121
 2454W        W 3318   1.898   2.868  18.534
 2455W        W 3319   0.205   2.803  21.405
 2456W        W 3320   1.087   1.005  20.411
 2457W        W 3321   0.970   0.211  19.737
 2458W        W 3322   2.568   0.944  20.383
 2459W        W 3323   1.173   2.194  18.381
 2460W        W 3324   3.288   2.051  20.271
 2461W        W 3325   0.695   2.820  21.637
 2462W        W 3326   3.159   3.631  19.251
 2463W        W 3327   1.301   0.587  19.684
 2464W        W 3328   0.966   2.205  19.686
 2465W        W 3329   1.159   3.560  20.566
 2466W        W 3330   3.207   3.589  21.485
 2467W        W 3331   2.307   2.035  20.552
 2468W        W 3332   0.321   1.533  18.605
 2469W        W 3333   3.476   3.275  19.444
 2470W        W 3334   3.349   0.860  18.982
 2471W        W 3335   1.262   0.109  21.269
 2472W        W 3336   3.129   2.770  19.753
 2473W        W 3337   3.062   1.404  19.662
 2474W        W 3338   1.222   1.105  19.848
 2475W        W 3339   1.492   1.284  21.209
 2476W        W 3340   2.633   2.508  21.056
 2477W        W 3341   1.286   0.932  20.886
 2478W        W 3342   1.203   3.530  19.833
 2479W        W 3343   0.759   3.338  21.557
 2480W        W 3344   0.492   2.756  18.537
 2481W        W 3345   3.261   2.372  19.328
 2482W        W 3346   0.930   1.326  21.026
 2483W        W 3347   3.455   1.310  18.663
 2484W        W 3348   1.229   2.455  18.925
 2485W        W 3349   2.204   1.644  21.072
 2486W        W 3350   2.318   1.308  20.682
 2487W        W 3351   0.902   1.778  20.698
 2488W        W 3352   3.021   3.412  20.613
 2489W        W 3353   2.770   0.438  21.557
 2490W        W 3354   0.470   0.368  21.276
 2491W        W 3355   1.059   1.479  20.217
 2492W        W 3356   1.233   1.200  18.525
 2493W        W 3357   0.127   3.092  20.975
 2494W        W 3358   1.482   1.762  20.283
 2495W        W 3359   1.475   0.736  18.545
 2496W        W 3360   0.849   1.672  19.226
 2497W        W 3361   0.417   3.427  20.667
 2498W        W 3362   3.022   1.650  18.731
 2499W        W 3363   3.208   0.569  21.302
 2500W        W 3364   2.778   2.558  19.433
 2501W        W 3365   0.289   1.641  21.635
 2502W        W 3366   3.278   0.371  18.816
 2503W        W 3367   2.946   2.526  18.909
 2504W        W 3368   1.452   1.577  18.984
 2505W        W 3369   2.808   0.500  18.479
 2506W        W 3370   2.888   1.139  20.731
 2507W        W 3371   0.438   1.522  19.787
 2508W        W 3372   0.955   2.652  19.375
 2509W        W 3373   2.569   1.231  19.588
 2510W        W 3374   1.928   0.542  20.013
 2511W        W 3375   3.543   2.540  20.673
 2512W        W 3376   3.631   0.753  20.359
 2513W        W 3377   0.092   3.326  19.685
 2514W        W 3378   0.506   2.595  19.077
 2515W        W 3379   0.492   0.389  21.801
 2516W        W 3380   1.683   3.123  21.669
 2517W        W 3381   3.368   1.819  19.799
 2518W        W 3382   2.840   2.114  18.562
 2519W        W 3383   2.164   3.694  20.697
 2520W        W 3384   2.878   2.287  21.661
 2521W        W 3385   1.728   0.089  19.062
 2522W        W 3386   2.333   0.866  19.917
 2523W        W 3387   0.312   2.547  20.289
 2524W        W 3388   1.429   0.518  19.043
 2525W        W 3389   1.214   2.047  21.596
 2526W        W 3390   2.136   0.994  19.461
 2527W        W 3391   2.486   2.527  20.568
 2528W        W 3392   0.609   3.045  21.150
 2529W        W 3393   1.174   3.013  21.650
 2530W        W 3394   1.027   0.756  18.816
 2531W        W 3395   2.496   0.997  19.043
 2532W        W 3396   2.486   3.023  21.211
 2533W        W 3397   0.950   1.686  19.750
 2534W        W 3398   0.840   3.140  20.696
 2535W        W 3399   3.491   3.346  18.360
 2536W        W 3400   0.400   2.106  21.456
 2537W        W 3401   2.265   2.356  20.130
 2538W        W 3402   0.836   2.198  19.191
 2539W        W 3403   1.341   3.099  20.713
 2540W        W 3404   1.745   0.320  19.570
 2541W        W 3405   0.236   2.306  18.742
 2542W        W 3406   1.723   1.342  18.584
 2543W        W 3407   0.523   1.953  19.521
 2544W        W 3408   1.547   0.476  20.977
 2545W        W 3409   3.257   0.370  18.288
 2546W        W 3410   3.383   2.055  21.563
 2547W        W 3411   2.177   3.311  21.607
 2548W        W 3412   3.603   2.383  21.164
 2549W        W 3413   2.978   3.160  21.710
 2550W        W 3414   0.780   3.599  20.204
 2551W        W 3415   3.658   2.026  19.399
 2552W        W 3416   2.115   1.498  19.682
 2553W        W 3417   2.119   0.013  19.388
 2554W        W 3418   1.057   3.184  19.440
 2555W        W 3419   1.721   0.780  20.601
 2556W        W 3420   1.345   0.246  20.101
 2557W        W 3421   0.423   3.451  18.466
 2558W        W 3422   1.933   2.316  19.430
 2559W        W 3423   1.101   3.216  21.167
 2560W        W 3424   0.468   1.903  18.982
 2561W        W 3425   0.321   0.608  19.931
 2562W        W 3426   1.781   2.482  19.947
 2563W        W 3427   0.017   0.408  18.952
 2564W        W 3428   2.704   1.549  20.978
 2565W        W 3429   2.578   0.972  18.527
 2566W        W 3430   3.206   2.546  20.222
 2567W        W 3431   1.868   3.006  19.984
 2568W        W 3432   1.285   3.335  18.993
 2569W        W 3433   2.416   0.108  18.371
 2570W        W 3434   0.322   3.356  20.141
 2571W        W 3435   2.258   1.090  21.733
 2572W        W 3436   0.602   0.876  21.747
 2573W        W 3437   0.442   1.347  19.115
 2574W        W 3438   0.948   1.245  18.965
 2575W        W 3439   2.455   1.535  21.567
 2576W        W 3440   1.023   2.006  20.177
 2577W        W 3441   2.545   0.279  19.235
 2578W        W 3442   1.821   3.577  19.887
 2579W        W 3443   2.816   2.942  20.823
 2580W        W 3444   2.670   3.005  19.875
 2581W        W 3445   2.435   2.215  19.656
 2582W        W 3446   1.880   0.501  18.773
 2583W        W 3447   3.506   0.127  19.439
 2584W        W 3448   1.152   1.675  18.363
 2585W        W 3449   3.375   1.004  19.546
 2586W        W 3450   2.043   2.048  18.470
 2587W        W 3451   3.081   2.303  21.192
 2588W        W 3452   2.694   3.183  18.452
 2589W        W 3453   1.429   0.774  21.367
 2590W        W 3454   1.303   1.429  20.690
 2591W        W 3455   3.258   2.781  21.060
 2592W        W 3456   2.354   0.722  21.368
 2593W        W 3457   0.197   1.342  21.183
 2594W        W 3458   1.887   1.737  20.669
 2595W        W 3459   0.524   2.473  19.604
 2596W        W 3460   0.585   1.710  20.252
 2597W        W 3461   2.775   2.042  20.834
 2598W        W 3462   2.637   3.490  21.438
 2599W        W 3463   2.405   1.193  21.203
 2600W        W 3464   2.976   3.240  19.553
 2601W        W 3465   1.828   3.003  20.820
 2602W        W 3466   1.079   3.169  20.216
 2603W        W 3467   3.013   2.484  20.691
 2604W        W 3468   2.011   2.549  21.783
 2605W        W 3469   0.773   2.471  20.081
 2606W        W 3470   2.964   2.138  19.694
 2607W        W 3471   2.569   3.300  20.344
 2608W        W 3472   0.633   2.951  20.269
 2609W        W 3473   1.589   1.106  21.731
 2610W        W 3474   1.762   3.148  18.981
 2611W        W 3475   1.493   2.629  21.785
 2612W        W 3476   1.368   2.878  19.194
 2613W        W 3477   0.756   1.334  18.368
 2614W        W 3478   0.136   3.781  25.280
 2615W        W 3479   0.517   2.561  24.885
 2616W        W 3480   3.214   2.128  22.564
 2617W        W 3481   3.499   3.300  24.465
 2618W        W 3482   1.425   3.306  22.063
 2619W        W 3483   1.236   1.423  22.955
 2620W        W 3484   0.777   1.283  23.164
 2621W        W 3485   1.485   2.037  22.602
 2622W        W 3486   1.688   3.280  24.878
 2623W        W 3487   0.255   0.731  24.872
 2624W        W 3488   0.882  28.945  24.786
 2625W        W 3489   2.718   0.505  23.679
 2626W        W 3490   2.182   1.283  22.329
 2627W        W 3491   2.851   0.800  25.297
 2628W        W 3492   0.290   0.538  24.361
 2629W        W 3493   0.369   3.330  25.369
 2630W        W 3494   1.678   2.383  22.204
 2631W        W 3495   0.285   1.263  23.910
 2632W        W 3496   1.217   1.209  25.145
 2633W        W 3497   3.511   1.081  23.663
 2634W        W 3498   3.387   2.087  24.426
 2635W        W 3499   1.586   1.536  23.502
 2636W        W 3500   2.265   2.776  23.872
 2637W        W 3501   0.600   2.247  24.121
 2638W        W 3502   0.051   1.718  23.758
 2639W        W 3503   1.101   1.647  24.804
 2640W        W 3504   3.373   1.558  25.149
 2641W        W 3505   0.905   2.947  23.471
 2642W        W 3506   2.130   2.540  24.607
 2643W        W 3507   1.606   1.238  23.990
 2644W        W 3508   1.405   2.052  23.512
 2645W        W 3509   2.478   2.822  25.261
 2646W        W 3510   1.639   2.086  25.328
 2647W        W 3511   1.621   1.841  24.856
 2648W        W 3512  28.984   1.200  25.477
 2649W        W 3513   2.923   2.795  24.977
 2650W        W 3514   0.508   0.297  22.767
 2651W        W 3515   1.059   2.718  24.082
 2652W        W 3516   3.532   2.424  23.409
 2653W        W 3517   3.144   0.791  23.889
 2654W        W 3518   3.312   0.880  22.051
 2655W        W 3519   3.699   1.563  24.389
 2656W        W 3520   1.577   3.368  23.904
 2657W        W 3521   3.373   2.602  22.369
 2658W        W 3522   0.533   3.799  22.532
 2659W        W 3523   0.951   3.681  22.900
 2660W        W 3524   0.770   0.338  24.246
 2661W        W 3525   3.284   1.304  24.638
 2662W        W 3526   2.539   1.665  23.161
 2663W        W 3527   2.627   1.471  22.068
 2664W        W 3528   1.911   2.521  24.129
 2665W        W 3529   1.779   1.055  23.502
 2666W        W 3530   2.361   2.905  24.356
 2667W        W 3531   2.923   1.803  22.841
 2668W        W 3532   2.222   0.469  22.844
 2669W        W 3533   0.733   3.330  22.587
 2670W        W 3534   0.245   0.626  23.075
 2671W        W 3535   2.580   1.338  23.606
 2672W        W 3536   0.396   2.911  23.490
 2673W        W 3537   1.387   2.832  22.321
 2674W        W 3538   3.113   1.324  21.911
 2675W        W 3539   0.196   3.021  24.170
 2676W        W 3540   1.053   2.773  24.607
 2677W        W 3541   1.108   1.911  22.958
 2678W        W 3542   1.292   0.471  24.145
 2679W        W 3543   3.662   0.246  23.708
 2680W        W 3544   0.682   1.856  22.068
 2681W        W 3545   0.518   1.007  22.273
 2682W        W 3546   0.585   3.008  23.001
 2683W        W 3547   1.375   2.335  23.066
 2684W        W 3548   3.096   3.275  24.781
 2685W        W 3549   1.915   0.940  22.619
 2686W        W 3550   3.241   3.465  23.524
 2687W        W 3551   2.899   1.376  24.964
 2688W        W 3552   3.714   2.845  23.204
 2689W        W 3553   2.313   2.054  24.643
 2690W        W 3554   0.177   1.750  22.858
 2691W        W 3555   1.010   2.317  24.404
 2692W        W 3556   2.195   1.344  22.832
 2693W        W 3557   2.089   1.813  22.992
 2694W        W 3558   0.683   1.328  24.349
 2695W        W 3559   0.719   1.307  25.033
 2696W        W 3560   0.476   0.198  23.274
 2697W        W 3561   2.258   0.106  23.826
 2698W        W 3562   1.988   0.619  25.175
 2699W        W 3563   2.398   0.492  22.356
 2700W        W 3564   3.570   3.244  24.995
 2701W        W 3565   2.409   0.124  25.010
 2702W        W 3566   3.352   2.604  25.184
 2703W        W 3567   2.880   0.888  24.771
 2704W        W 3568   2.655   0.626  23.109
 2705W        W 3569   2.929   1.765  25.322
 2706W        W 3570   0.666   3.390  23.358
 2707W        W 3571   1.421   1.073  22.580
 2708W        W 3572   1.007   0.353  25.133
 2709W        W 3573   2.930   1.001  22.862
 2710W        W 3574   3.242   1.398  22.787
 2711W        W 3575   1.337   3.505  25.193
 2712W        W 3576   0.981   0.176  22.496
 2713W        W 3577   3.371   0.612  23.478
 2714W        W 3578   3.481   2.891  21.939
 2715W        W 3579   0.363   2.134  23.662
 2716W        W 3580   2.364   0.583  21.855
 2717W        W 3581   3.488   2.990  23.651
 2718W        W 3582   3.393   0.334  24.326
 2719W        W 3583   1.812   1.484  25.214
 2720W        W 3584   1.684   2.522  22.694
 2721W        W 3585   2.494   2.019  25.419
 2722W        W 3586   2.289  28.739  23.461
 2723W        W 3587   0.794   1.074  23.649
 2724W        W 3588   0.388   2.154  24.579
 2725W        W 3589   2.460   3.119  23.551
 2726W        W 3590   3.374   1.161  24.163
 2727W        W 3591   2.146   3.350  24.637
 2728W        W 3592   3.208   2.210  22.047
 2729W        W 3593   1.590   1.838  23.072
 2730W        W 3594   3.590   0.288  24.832
 2731W        W 3595   1.837   2.135  24.477
 2732W        W 3596   2.119   1.064  23.912
 2733W        W 3597   2.659   1.411  22.638
 2734W        W 3598   2.959   1.107  22.357
 2735W        W 3599   3.105   2.867  22.793
 2736W        W 3600   3.050   2.251  23.446
 2737W        W 3601   2.322   1.764  22.390
 2738W        W 3602   1.924   1.927  23.479
 2739W        W 3603   2.911   1.771  23.549
 2740W        W 3604   0.538   0.833  24.031
 2741W        W 3605   3.123   1.801  24.766
 2742W        W 3606   3.532   3.457  23.949
 2743W        W 3607   1.407   3.083  23.460
 2744W        W 3608   2.658   3.438  24.525
 2745W        W 3609   2.433   0.883  24.380
 2746W        W 3610   1.702   3.492  24.391
 2747W        W 3611   3.203   0.592  22.995
 2748W        W 3612   3.168   1.642  24.271
 2749W        W 3613   0.249   1.060  24.432
 2750W        W 3614   2.920   0.929  23.442
 2751W        W 3615   3.286   1.053  25.079
 2752W        W 3616   2.179   2.627  23.384
 2753W        W 3617   1.468   3.479  22.977
 2754W        W 3618   0.559   0.492  22.306
 2755W        W 3619   1.774   0.209  24.013
 2756W        W 3620   0.925   3.210  22.090
 2757W        W 3621   0.975   1.949  22.466
 2758W        W 3622   1.808   2.375  24.948
 2759W        W 3623   1.576   0.872  23.036
 2760W        W 3624   2.992   0.264  23.314
 2761W        W 3625   2.755   3.545  23.650
 2762W        W 3626   2.048   3.220  24.087
 2763W        W 3627   1.347   2.292  23.980
 2764W        W 3628   3.274   2.960  24.143
 2765W        W 3629   0.965   0.443  22.923
 2766W        W 3630   1.541   2.827  23.914
 2767W        W 3631   1.123   0.838  21.783
 2768W        W 3632   1.937   1.134  24.410
 2769W        W 3633   2.664   0.238  24.129
 2770W        W 3634   0.101   2.110  24.133
 2771W        W 3635   1.638   1.836  22.144
 2772W        W 3636   0.997   0.409  22.036
 2773W        W 3637   1.735   1.345  23.034
 2774W        W 3638   2.564   0.446  24.623
 2775W        W 3639   1.326   2.283  24.830
 2776W        W 3640   2.075   1.938  25.112
 2777W        W 3641   2.714   2.043  24.941
 2778W        W 3642   1.962   0.268  25.558
 2779W        W 3643   1.410   0.812  23.781
 2780W        W 3644   0.733   0.740  23.259
 2781W        W 3645   0.382   3.482  22.917
 2782W        W 3646   2.024   2.878  24.976
 2783W        W 3647   0.719   2.377  22.290
 2784W        W 3648   2.396   1.806  23.651
 2785W        W 3649   2.724   1.674  24.030
 2786W        W 3650   1.795   2.033  23.970
 2787W        W 3651   2.517   2.438  22.015
 2788W        W 3652   2.310   0.328  23.362
 2789W        W 3653   3.690   1.143  22.780
 2790W        W 3654   0.388   3.501  24.873
 2791W        W 3655   0.594   2.710  24.376
 2792W        W 3656   0.068   3.545  22.487
 2793W        W 3657   2.296   0.583  23.989
 2794W        W 3658   1.017   2.681  22.011
 2795W        W 3659   3.230   3.121  22.345
 2796W        W 3660   1.824   1.615  22.586
 2797W        W 3661   1.080   0.935  22.929
 2798W        W 3662   1.988   0.847  22.105
 2799W        W 3663   2.335   2.381  25.063
 2800W        W 3664   2.846   0.545  22.620
 2801W        W 3665   0.160   0.165  22.129
 2802W        W 3666   1.485   2.557  24.411
 2803W        W 3667   1.256   2.572  23.533
 2804W        W 3668   0.773   2.271  21.773
 2805W        W 3669   0.281   3.092  22.563
 2806W        W 3670   0.794   1.763  25.251
 2807W        W 3671   1.522   0.428  25.243
 2808W        W 3672   2.064   0.638  24.642
 2809W        W 3673   1.350   0.150  23.084
 2810W        W 3674   2.227   0.038  22.543
 2811W        W 3675   0.577   0.149  23.796
 2812W        W 3676   0.346   1.073  23.386
 2813W        W 3677   3.138   0.263  23.869
 2814W        W 3678   0.614   0.812  22.751
 2815W        W 3679   2.932   0.641  24.320
 2816W        W 3680   3.438   1.735  22.006
 2817W        W 3681   0.925   0.575  23.774
 2818W        W 3682   1.976   1.076  24.917
 2819W        W 3683   0.148   0.695  22.048
 2820W        W 3684   0.840   2.117  24.854
 2821W        W 3685   1.988   1.559  23.853
 2822W        W 3686   1.933   3.427  22.069
 2823W        W 3687   0.222   2.029  21.980
 2824W        W 3688   0.992   2.598  25.080
 2825W        W 3689   0.550   1.690  24.752
 2826W        W 3690   1.367   1.953  24.408
 2827W        W 3691   3.056   0.284  24.735
 2828W        W 3692   3.638   1.854  24.816
 2829W        W 3693   3.552   1.739  22.567
 2830W        W 3694   1.990   2.117  22.575
 2831W        W 3695   2.877   3.637  21.880
 2832W        W 3696   2.191   1.621  25.541
 2833W        W 3697   0.369   2.503  25.450
 2834W        W 3698   3.729   0.599  25.363
 2835W        W 3699   3.058   1.325  23.795
 2836W        W 3700   1.820   3.553  25.318
 2837W        W 3701   1.449   0.206  22.249
 2838W        W 3702   2.989   2.700  21.964
 2839W        W 3703   0.836   0.813  25.016
 2840W        W 3704   1.493   2.801  24.885
 2841W        W 3705   3.358   0.759  24.616
 2842W        W 3706   2.645   3.717  22.341
 2843W        W 3707   2.726   2.190  23.852
 2844W        W 3708   1.083   0.472  24.638
 2845W        W 3709   1.332   1.680  25.275
 2846W        W 3710   0.911   2.862  22.553
 2847W        W 3711   2.492   2.074  22.781
 2848W        W 3712   0.697   0.802  24.519
 2849W        W 3713   1.682   2.730  23.218
 2850W        W 3714   3.389   1.516  23.419
 2851W        W 3715   1.896   0.168  24.919
 2852W        W 3716   2.747   2.723  24.028
 2853W        W 3717   2.975   3.065  23.727
 2854W        W 3718   1.841   2.907  22.105
 2855W        W 3719   0.198   2.884  25.160
 2856W        W 3720   1.029   0.986  24.121
 2857W        W 3721   0.963   0.211  23.414
 2858W        W 3722   2.664   0.963  23.935
 2859W        W 3723   1.212   2.205  22.089
 2860W        W 3724   3.216   2.031  23.914
 2861W        W 3725   0.680   2.918  25.352
 2862W        W 3726   3.013   3.477  22.795
 2863W        W 3727   1.235   0.634  23.321
 2864W        W 3728   0.933   2.206  23.332
 2865W        W 3729   1.174   3.583  24.237
 2866W        W 3730   3.246   3.618  25.140
 2867W        W 3731   2.258   1.893  24.157
 2868W        W 3732   0.378   1.509  22.390
 2869W        W 3733   3.376   3.205  23.101
 2870W        W 3734   3.331   0.820  22.564
 2871W        W 3735   1.383   0.083  24.875
 2872W        W 3736   3.159   2.763  23.306
 2873W        W 3737   2.956   1.389  23.209
 2874W        W 3738   1.254   1.147  23.394
 2875W        W 3739   1.552   1.333  24.751
 2876W        W 3740   2.648   2.512  24.650
 2877W        W 3741   1.451   0.935  24.407
 2878W        W 3742   1.175   3.530  23.460
 2879W        W 3743   0.832   3.418  25.162
 2880W        W 3744   0.552   2.860  22.175
 2881W        W 3745   3.444   2.482  22.899
 2882W        W 3746   1.053   1.131  24.668
 2883W        W 3747   3.448   1.294  22.329
 2884W        W 3748   1.167   2.429  22.585
 2885W        W 3749   2.075   1.574  24.725
 2886W        W 3750   2.351   1.388  24.245
 2887W        W 3751   0.874   1.823  24.353
 2888W        W 3752   3.055   3.432  24.184
 2889W        W 3753   2.849   0.269  25.243
 2890W        W 3754   0.579   0.349  24.775
 2891W        W 3755   0.927   1.488  23.918
 2892W        W 3756   1.183   1.191  22.133
 2893W        W 3757   0.188   3.024  24.675
 2894W        W 3758   1.380   1.740  23.928
 2895W        W 3759   1.482   0.736  22.167
 2896W        W 3760   0.687   1.665  22.804
 2897W        W 3761   0.406   3.488  24.337
 2898W        W 3762   3.059   1.632  22.351
 2899W        W 3763   3.272   0.555  25.124
 2900W        W 3764   2.936   2.342  22.953
 2901W        W 3765   0.287   1.603  25.300
 2902W        W 3766   3.205   0.279  22.319
 2903W        W 3767   2.872   2.514  22.447
 2904W        W 3768   1.315   1.567  22.467
 2905W        W 3769   2.850   0.581  22.093
 2906W        W 3770   2.854   1.218  24.348
 2907W        W 3771   0.543   1.562  23.553
 2908W        W 3772   0.965   2.654  23.046
 2909W        W 3773   2.528   1.135  23.141
 2910W        W 3774   1.909   0.565  23.630
 2911W        W 3775   3.597   2.548  24.293
 2912W        W 3776   3.641   0.711  24.048
 2913W        W 3777   0.119   3.307  23.318
 2914W        W 3778   0.459   2.631  22.672
 2915W        W 3779   0.533   0.492  25.287
 2916W        W 3780   1.694   3.038  25.353
 2917W        W 3781   3.624   1.948  23.529
 2918W        W 3782   2.757   2.036  22.294
 2919W        W 3783   2.162   3.707  24.255
 2920W        W 3784   2.888   2.360  25.313
 2921W        W 3785   1.702   0.059  22.699
 2922W        W 3786   2.364   0.838  23.524
 2923W        W 3787   0.283   2.590  23.912
 2924W        W 3788   1.422   0.523  22.681
 2925W        W 3789   1.128   2.156  25.305
 2926W        W 3790   2.081   0.894  23.105
 2927W        W 3791   2.413   2.380  24.217
 2928W        W 3792   0.677   3.052  24.838
 2929W        W 3793   1.185   3.024  25.296
 2930W        W 3794   1.016   0.752  22.427
 2931W        W 3795   2.448   0.913  22.674
 2932W        W 3796   2.510   3.042  24.817
 2933W        W 3797   1.064   1.656  23.422
 2934W        W 3798   0.847   3.184  24.353
 2935W        W 3799   3.384   3.399  21.927
 2936W        W 3800   0.390   2.081  25.111
 2937W        W 3801   2.219   2.269  23.757
 2938W        W 3802   0.740   2.237  22.832
 2939W        W 3803   1.365   3.091  24.328
 2940W        W 3804   1.794   0.415  23.127
 2941W        W 3805   0.148   2.411  22.319
 2942W        W 3806   1.689   1.300  22.193
 2943W        W 3807   0.501   1.949  23.199
 2944W        W 3808   1.598   0.448  24.561
 2945W        W 3809   3.256   0.457  21.799
 2946W        W 3810   3.338   2.079  25.179
 2947W        W 3811   2.238   3.308  25.174
 2948W        W 3812   3.646   2.384  24.795
 2949W        W 3813   3.126   3.142  25.302
 2950W        W 3814   0.789   3.613  23.843
 2951W        W 3815   3.816   2.146  23.059
 2952W        W 3816   2.124   1.421  23.365
 2953W        W 3817   2.096  28.982  23.038
 2954W        W 3818   1.044   3.203  23.048
 2955W        W 3819   1.810   0.704  24.134
 2956W        W 3820   1.434   0.308  23.644
 2957W        W 3821   0.454   3.415  22.167
 2958W        W 3822   1.894   2.274  23.105
 2959W        W 3823   1.174   3.228  24.795
 2960W        W 3824   0.435   2.013  22.495
 2961W        W 3825   0.392   0.602  23.597
 2962W        W 3826   1.748   2.429  23.630
 2963W        W 3827   0.020   0.320  22.598
 2964W        W 3828   2.648   1.651  24.584
 2965W        W 3829   2.519   0.960  22.160
 2966W        W 3830   3.218   2.565  23.816
 2967W        W 3831   1.910   3.051  23.606
 2968W        W 3832   1.228   3.295  22.547
 2969W        W 3833   2.366   0.088  22.011
 2970W        W 3834   0.341   3.367  23.782
 2971W        W 3835   2.250   1.133  25.351
 2972W        W 3836   0.476   1.017  25.401
 2973W        W 3837   0.355   1.254  22.861
 2974W        W 3838   0.883   1.253  22.567
 2975W        W 3839   2.461   1.599  25.101
 2976W        W 3840   0.927   2.000  23.812
 2977W        W 3841   2.604   0.122  22.944
 2978W        W 3842   1.714   3.547  23.440
 2979W        W 3843   2.870   2.961  24.458
 2980W        W 3844   2.693   2.632  23.533
 2981W        W 3845   2.532   2.175  23.316
 2982W        W 3846   1.884   0.452  22.429
 2983W        W 3847   3.507   0.215  23.179
 2984W        W 3848   1.159   1.689  21.978
 2985W        W 3849   3.358   1.054  23.169
 2986W        W 3850   2.084   2.100  22.056
 2987W        W 3851   3.116   2.337  24.800
 2988W        W 3852   2.543   3.257  21.994
 2989W        W 3853   1.394   0.794  24.907
 2990W        W 3854   1.254   1.442  24.327
 2991W        W 3855   3.347   2.819  24.678
 2992W        W 3856   2.432   0.772  25.000
 2993W        W 3857   0.213   1.241  24.941
 2994W        W 3858   1.760   1.627  24.319
 2995W        W 3859   0.494   2.484  23.213
 2996W        W 3860   0.478   1.744  24.042
 2997W        W 3861   2.831   2.074  24.379
 2998W        W 3862   2.725   3.458  25.079
 2999W        W 3863   2.450   1.216  24.754
 3000W        W 3864   2.878   3.221  23.239
 3001W        W 3865   1.836   2.949  24.482
 3002W        W 3866   1.103   3.197  23.878
 3003W        W 3867   3.090   2.506  24.323
 3004W        W 3868   1.969   2.566  25.394
 3005W        W 3869   0.747   2.511  23.698
 3006W        W 3870   3.331   1.982  23.090
 3007W        W 3871   2.582   3.242  24.042
 3008W        W 3872   0.644   2.977  23.927
 3009W        W 3873   1.660   0.990  25.317
 3010W        W 3874   1.727   3.211  22.519
 3011W        W 3875   1.452   2.567  25.344
 3012W        W 3876   1.372   2.890  22.835
 3013W        W 3877   0.721   1.359  21.947
 3014W        W 3878   0.069   3.740  28.806
 3015W        W 3879   0.503   2.519  28.577
 3016W        W 3880   3.163   2.166  26.209
 3017W        W 3881   3.356   3.233  28.161
 3018W        W 3882   1.429   3.362  25.674
 3019W        W 3883   1.271   1.508  26.522
 3020W        W 3884   0.807   1.454  26.763
 3021W        W 3885   1.801   2.062  26.131
 3022W        W 3886   1.574   3.306  28.441
 3023W        W 3887   0.403   0.826  28.484
 3024W        W 3888   0.759   0.058  28.185
 3025W        W 3889   2.740   0.625  27.351
 3026W        W 3890   2.341   1.280  25.940
 3027W        W 3891   2.786   0.908  28.789
 3028W        W 3892   0.371   0.457  28.089
 3029W        W 3893   0.294   3.292  28.932
 3030W        W 3894   1.798   2.551  25.887
 3031W        W 3895   0.233   1.197  27.531
 3032W        W 3896   1.156   1.372  28.754
 3033W        W 3897   3.401   1.263  27.227
 3034W        W 3898   3.325   2.109  28.017
 3035W        W 3899   1.671   1.472  27.123
 3036W        W 3900   2.203   2.883  27.576
 3037W        W 3901   0.597   2.172  27.778
 3038W        W 3902   0.019   1.652  27.397
 3039W        W 3903   1.188   1.807  28.442
 3040W        W 3904   3.309   1.600  28.715
 3041W        W 3905   0.985   2.753  27.024
 3042W        W 3906   2.127   2.622  28.183
 3043W        W 3907   1.420   1.146  27.436
 3044W        W 3908   1.634   1.989  27.160
 3045W        W 3909   2.524   2.779  28.996
 3046W        W 3910   1.609   2.107  28.951
 3047W        W 3911   1.705   1.877  28.493
 3048W        W 3912   0.217   1.089  28.932
 3049W        W 3913   2.864   2.624  28.622
 3050W        W 3914   0.495   0.389  26.590
 3051W        W 3915   1.203   2.670  27.509
 3052W        W 3916   3.562   2.468  27.127
 3053W        W 3917   2.971   0.798  27.789
 3054W        W 3918   3.288   0.869  25.569
 3055W        W 3919   3.647   1.633  27.893
 3056W        W 3920   1.481   3.410  27.474
 3057W        W 3921   3.438   2.626  26.204
 3058W        W 3922   0.615   3.688  26.175
 3059W        W 3923   0.958   3.542  26.550
 3060W        W 3924   0.822   0.418  27.824
 3061W        W 3925   3.340   1.362  28.216
 3062W        W 3926   2.565   1.704  26.758
 3063W        W 3927   2.665   1.665  25.791
 3064W        W 3928   1.931   2.477  27.698
 3065W        W 3929   1.677   0.914  27.015
 3066W        W 3930   2.340   3.096  28.022
 3067W        W 3931   3.037   1.892  26.624
 3068W        W 3932   2.219   0.479  26.442
 3069W        W 3933   0.770   3.173  26.238
 3070W        W 3934   0.130   0.733  26.685
 3071W        W 3935   2.588   1.382  27.176
 3072W        W 3936   0.463   2.822  27.134
 3073W        W 3937   1.780   3.116  25.956
 3074W        W 3938   2.742   1.289  25.451
 3075W        W 3939   0.255   3.006  27.848
 3076W        W 3940   1.050   2.860  27.991
 3077W        W 3941   1.351   2.081  26.685
 3078W        W 3942   1.323   0.543  27.753
 3079W        W 3943   3.518   0.363  27.245
 3080W        W 3944   0.703   2.144  25.604
 3081W        W 3945   0.594   1.159  25.919
 3082W        W 3946   0.644   2.863  26.633
 3083W        W 3947   1.446   2.590  26.760
 3084W        W 3948   2.960   3.112  28.485
 3085W        W 3949   1.946   0.983  26.162
 3086W        W 3950   3.227   3.592  27.070
 3087W        W 3951   2.897   1.360  28.518
 3088W        W 3952   3.629   2.756  26.676
 3089W        W 3953   2.238   2.099  28.284
 3090W        W 3954   0.133   1.647  26.410
 3091W        W 3955   1.050   2.353  27.902
 3092W        W 3956   2.179   1.433  26.453
 3093W        W 3957   2.184   1.980  26.504
 3094W        W 3958   0.636   1.268  27.863
 3095W        W 3959   0.674   1.188  28.729
 3096W        W 3960   0.502   0.159  27.045
 3097W        W 3961   2.289   0.379  27.371
 3098W        W 3962   1.928   0.717  28.804
 3099W        W 3963   2.397   0.455  25.957
 3100W        W 3964   3.434   2.973  28.694
 3101W        W 3965   2.354   0.211  28.655
 3102W        W 3966   3.268   2.507  28.909
 3103W        W 3967   2.967   0.894  28.301
 3104W        W 3968   2.610   0.627  26.750
 3105W        W 3969   2.946   1.818   0.047
 3106W        W 3970   0.765   3.238  26.959
 3107W        W 3971   1.424   1.075  26.239
 3108W        W 3972   0.984   0.439  28.770
 3109W        W 3973   2.961   0.941  26.489
 3110W        W 3974   3.319   1.281  26.348
 3111W        W 3975   1.267   3.525  28.804
 3112W        W 3976   1.071   0.125  26.075
 3113W        W 3977   3.245   0.791  27.342
 3114W        W 3978   3.573   2.920  25.532
 3115W        W 3979   0.368   2.061  27.258
 3116W        W 3980   2.426   0.475  25.433
 3117W        W 3981   3.585   2.896  27.438
 3118W        W 3982   3.579   0.098  27.972
 3119W        W 3983   1.899   1.214  28.630
 3120W        W 3984   1.917   2.501  26.389
 3121W        W 3985   2.436   1.899   0.203
 3122W        W 3986   2.202   0.045  26.978
 3123W        W 3987   0.666   1.029  27.255
 3124W        W 3988   0.276   2.193  28.183
 3125W        W 3989   2.201   3.412  26.868
 3126W        W 3990   3.396   1.123  27.751
 3127W        W 3991   2.078   3.356  28.400
 3128W        W 3992   3.253   1.954  25.676
 3129W        W 3993   1.736   1.751  26.641
 3130W        W 3994   3.571   0.326  28.451
 3131W        W 3995   1.779   2.189  28.078
 3132W        W 3996   1.972   1.064  27.420
 3133W        W 3997   2.700   1.420  26.311
 3134W        W 3998   2.939   1.160  25.947
 3135W        W 3999   3.114   2.885  26.522
 3136W        W 4000   2.598   2.435  27.353
 3137W        W 4001   2.658   1.923  26.257
 3138W        W 4002   2.106   1.812  26.995
 3139W        W 4003   3.043   1.678  27.215
 3140W        W 4004   0.492   0.782  27.681
 3141W        W 4005   3.012   1.769  28.230
 3142W        W 4006   3.426   3.356  27.566
 3143W        W 4007   1.453   3.011  27.075
 3144W        W 4008   2.591   3.463  28.373
 3145W        W 4009   2.514   0.847  28.067
 3146W        W 4010   1.753   3.602  28.046
 3147W        W 4011   3.309   0.531  26.510
 3148W        W 4012   3.163   1.626  27.732
 3149W        W 4013   0.175   1.001  28.039
 3150W        W 4014   2.901   0.978  27.022
 3151W        W 4015   3.315   1.065  28.642
 3152W        W 4016   2.182   2.660  27.098
 3153W        W 4017   1.549   3.347  26.618
 3154W        W 4018   0.647   0.656  25.774
 3155W        W 4019   1.659   0.093  27.642
 3156W        W 4020   0.947   3.166  25.740
 3157W        W 4021   1.332   1.869  26.157
 3158W        W 4022   1.819   2.392  28.550
 3159W        W 4023   1.717   0.658  26.523
 3160W        W 4024   3.077   0.485  26.959
 3161W        W 4025   2.707   3.612  27.185
 3162W        W 4026   1.984   3.352  27.662
 3163W        W 4027   1.442   2.215  27.607
 3164W        W 4028   3.202   2.938  27.770
 3165W        W 4029   0.903   0.550  26.342
 3166W        W 4030   1.652   2.937  27.584
 3167W        W 4031   1.169   0.774  25.428
 3168W        W 4032   1.732   1.409  27.749
 3169W        W 4033   2.627   0.390  27.820
 3170W        W 4034   0.102   2.042  27.720
 3171W        W 4035   1.648   1.745  25.715
 3172W        W 4036   0.840   0.182  25.618
 3173W        W 4037   1.711   1.237  26.629
 3174W        W 4038   2.726   0.446  28.344
 3175W        W 4039   1.334   2.293  28.351
 3176W        W 4040   2.116   2.070  28.839
 3177W        W 4041   2.600   1.931  28.631
 3178W        W 4042   1.994   0.321   0.137
 3179W        W 4043   1.208   0.744  27.202
 3180W        W 4044   0.669   0.832  26.781
 3181W        W 4045   0.430   3.374  26.569
 3182W        W 4046   1.920   2.896  28.581
 3183W        W 4047   0.955   2.239  26.048
 3184W        W 4048   2.548   1.896  27.293
 3185W        W 4049   2.609   1.545  27.663
 3186W        W 4050   1.829   1.904  27.636
 3187W        W 4051   2.423   2.480  25.630
 3188W        W 4052   2.014   0.519  26.943
 3189W        W 4053   3.663   0.889  26.357
 3190W        W 4054   0.340   3.421  28.450
 3191W        W 4055   0.567   2.611  28.065
 3192W        W 4056   0.087   3.517  26.158
 3193W        W 4057   2.141   0.684  27.755
 3194W        W 4058   1.381   2.851  25.784
 3195W        W 4059   3.182   3.424  26.011
 3196W        W 4060   2.199   1.758  26.035
 3197W        W 4061   0.898   1.092  26.391
 3198W        W 4062   2.066   0.771  25.681
 3199W        W 4063   2.377   2.458  28.614
 3200W        W 4064   2.812   0.484  26.287
 3201W        W 4065   0.231   0.351  25.694
 3202W        W 4066   1.503   2.608  27.946
 3203W        W 4067   1.233   2.310  27.141
 3204W        W 4068   0.994   2.572  25.610
 3205W        W 4069   0.284   2.970  26.227
 3206W        W 4070   0.744   1.710  28.653
 3207W        W 4071   1.480   0.485  28.942
 3208W        W 4072   2.232   0.377  28.177
 3209W        W 4073   1.312   0.196  26.524
 3210W        W 4074   2.190   0.034  26.182
 3211W        W 4075   0.341   0.290  27.587
 3212W        W 4076   0.193   1.095  27.039
 3213W        W 4077   3.085   0.307  27.548
 3214W        W 4078   0.467   0.808  26.270
 3215W        W 4079   3.172   0.431  28.086
 3216W        W 4080   3.231   1.419  25.614
 3217W        W 4081   0.778   0.509  27.331
 3218W        W 4082   1.994   0.874  28.236
 3219W        W 4083   0.161   0.858  25.832
 3220W        W 4084   0.777   2.158  28.286
 3221W        W 4085   2.147   1.549  27.442
 3222W        W 4086   2.018   3.543  25.787
 3223W        W 4087   0.211   2.028  25.600
 3224W        W 4088   0.972   2.662  28.461
 3225W        W 4089   0.516   1.725  28.175
 3226W        W 4090   1.466   1.800  28.004
 3227W        W 4091   3.065   0.083  28.438
 3228W        W 4092   3.610   1.844  28.372
 3229W        W 4093   3.617   1.671  25.895
 3230W        W 4094   2.302   2.270  26.086
 3231W        W 4095   2.966   3.602  25.554
 3232W        W 4096   2.089   1.551   0.070
 3233W        W 4097   0.425   2.416   0.084
 3234W        W 4098   3.649   0.668  28.859
 3235W        W 4099   2.966   1.216  27.481
 3236W        W 4100   1.777   3.511  28.855
 3237W        W 4101   1.455   0.287  25.733
 3238W        W 4102   3.259   2.467  25.706
 3239W        W 4103   1.070   0.898  28.578
 3240W        W 4104   1.449   2.819  28.396
 3241W        W 4105   3.465   0.833  28.201
 3242W        W 4106   2.758   3.740  26.005
 3243W        W 4107   2.814   2.005  27.773
 3244W        W 4108   1.120   0.448  28.245
 3245W        W 4109   1.606   1.565  28.912
 3246W        W 4110   1.038   2.745  26.165
 3247W        W 4111   2.766   2.342  26.534
 3248W        W 4112   0.765   0.839  28.130
 3249W        W 4113   1.861   2.908  26.749
 3250W        W 4114   3.559   1.483  26.795
 3251W        W 4115   1.840   0.253  28.564
 3252W        W 4116   2.706   2.860  27.638
 3253W        W 4117   2.983   3.190  27.356
 3254W        W 4118   2.142   3.017  25.604
 3255W        W 4119   0.171   2.805  28.878
 3256W        W 4120   0.990   0.926  27.652
 3257W        W 4121   0.959   0.389  26.863
 3258W        W 4122   2.503   1.030  27.580
 3259W        W 4123   1.400   2.234  25.763
 3260W        W 4124   3.236   2.116  27.472
 3261W        W 4125   0.643   3.013  28.676
 3262W        W 4126   3.135   3.673  26.490
 3263W        W 4127   1.240   0.783  26.658
 3264W        W 4128   0.841   2.060  26.958
 3265W        W 4129   1.265   3.739  27.846
 3266W        W 4130   3.276   3.483  28.671
 3267W        W 4131   2.305   1.951  27.774
 3268W        W 4132   0.563   1.657  25.749
 3269W        W 4133   3.441   3.278  26.641
 3270W        W 4134   3.232   0.757  26.066
 3271W        W 4135   1.338   0.119  28.577
 3272W        W 4136   3.297   2.949  27.015
 3273W        W 4137   3.028   1.399  26.767
 3274W        W 4138   1.233   1.205  26.952
 3275W        W 4139   1.485   1.378  28.328
 3276W        W 4140   2.706   2.755  28.151
 3277W        W 4141   1.268   0.934  28.107
 3278W        W 4142   1.230   3.481  27.000
 3279W        W 4143   0.754   3.514  28.737
 3280W        W 4144   0.595   2.785  25.856
 3281W        W 4145   3.220   2.440  26.745
 3282W        W 4146   0.920   1.354  28.291
 3283W        W 4147   3.573   1.161  25.911
 3284W        W 4148   1.408   2.382  26.265
 3285W        W 4149   2.173   1.645  28.567
 3286W        W 4150   2.209   1.260  27.925
 3287W        W 4151   0.957   1.808  27.937
 3288W        W 4152   2.992   3.602  27.691
 3289W        W 4153   2.819   0.298  28.845
 3290W        W 4154   0.519   0.336  28.588
 3291W        W 4155   0.940   1.437  27.403
 3292W        W 4156   1.378   1.293  25.650
 3293W        W 4157   0.203   2.912  28.368
 3294W        W 4158   1.381   1.691  27.502
 3295W        W 4159   1.570   0.821  25.791
 3296W        W 4160   0.614   1.538  26.269
 3297W        W 4161   0.391   3.545  27.954
 3298W        W 4162   3.096   1.663  26.074
 3299W        W 4163   3.176   0.574  28.630
 3300W        W 4164   2.807   2.704  26.943
 3301W        W 4165   0.323   1.580  28.914
 3302W        W 4166   3.225   0.228  26.077
 3303W        W 4167   2.914   2.601  26.098
 3304W        W 4168   1.731   1.504  26.170
 3305W        W 4169   2.885   0.485  25.747
 3306W        W 4170   2.860   1.279  28.000
 3307W        W 4171   0.463   1.525  27.141
 3308W        W 4172   0.971   2.436  26.595
 3309W        W 4173   2.553   1.168  26.715
 3310W        W 4174   1.734   0.563  27.408
 3311W        W 4175   3.559   2.571  27.872
 3312W        W 4176   3.498   0.596  27.731
 3313W        W 4177   0.135   3.221  26.997
 3314W        W 4178   0.552   2.504  26.286
 3315W        W 4179   0.643   0.167   0.091
 3316W        W 4180   1.689   2.983   0.040
 3317W        W 4181   3.429   1.988  26.953
 3318W        W 4182   2.804   2.168  25.816
 3319W        W 4183   2.286   3.609  27.993
 3320W        W 4184   2.728   2.286  28.986
 3321W        W 4185   1.609  28.989  26.148
 3322W        W 4186   2.355   0.877  27.117
 3323W        W 4187   0.283   2.528  27.580
 3324W        W 4188   1.372   0.554  26.167
 3325W        W 4189   0.958   2.220  28.744
 3326W        W 4190   2.123   0.927  26.645
 3327W        W 4191   2.454   2.433  27.840
 3328W        W 4192   0.636   3.116  28.167
 3329W        W 4193   1.203   3.021  28.859
 3330W        W 4194   1.062   0.919  25.916
 3331W        W 4195   2.487   0.901  26.259
 3332W        W 4196   2.428   2.970  28.517
 3333W        W 4197   1.208   1.713  27.018
 3334W        W 4198   0.877   3.361  27.794
 3335W        W 4199   3.478   3.429  25.580
 3336W        W 4200   0.351   2.043  28.673
 3337W        W 4201   2.118   2.197  27.325
 3338W        W 4202   0.909   1.914  26.461
 3339W        W 4203   1.375   3.245  27.958
 3340W        W 4204   1.501   0.416  26.940
 3341W        W 4205   0.138   2.452  25.936
 3342W        W 4206   1.877   1.258  25.718
 3343W        W 4207   0.457   1.848  26.723
 3344W        W 4208   1.742   0.444  28.040
 3345W        W 4209   3.361   0.343  25.596
 3346W        W 4210   3.544   2.031  28.873
 3347W        W 4211   2.166   3.178  28.933
 3348W        W 4212   3.509   2.354  28.457
 3349W        W 4213   3.034   2.984   0.004
 3350W        W 4214   0.854   3.615  27.343
 3351W        W 4215   3.619   2.248  26.511
 3352W        W 4216   2.120   1.310  26.969
 3353W        W 4217   1.845   0.152  26.596
 3354W        W 4218   1.137   3.032  26.621
 3355W        W 4219   1.683   0.908  27.818
 3356W        W 4220   1.231   0.237  27.359
 3357W        W 4221   0.450   3.302  25.862
 3358W        W 4222   1.892   2.277  26.840
 3359W        W 4223   1.076   3.193  28.403
 3360W        W 4224   0.479   2.021  26.113
 3361W        W 4225   0.312   0.622  27.175
 3362W        W 4226   1.684   2.547  27.240
 3363W        W 4227   0.097   0.464  26.226
 3364W        W 4228   2.512   1.660  28.166
 3365W        W 4229   2.566   0.884  25.722
 3366W        W 4230   3.108   2.617  27.356
 3367W        W 4231   1.944   3.128  27.205
 3368W        W 4232   1.273   3.240  26.156
 3369W        W 4233   2.414   0.005  25.689
 3370W        W 4234   0.470   3.271  27.427
 3371W        W 4235   2.294   1.071  28.947
 3372W        W 4236   0.593   0.714  28.968
 3373W        W 4237   0.358   1.214  26.575
 3374W        W 4238   1.063   1.428  26.039
 3375W        W 4239   2.572   1.487  28.888
 3376W        W 4240   0.960   1.973  27.451
 3377W        W 4241   2.551   0.113  26.603
 3378W        W 4242   1.742   3.593  27.069
 3379W        W 4243   2.844   3.226  27.994
 3380W        W 4244   2.499   3.079  27.172
 3381W        W 4245   2.423   2.222  26.901
 3382W        W 4246   1.869   0.445  26.053
 3383W        W 4247   3.571   0.101  26.679
 3384W        W 4248   1.084   1.810  25.703
 3385W        W 4249   3.387   0.965  26.805
 3386W        W 4250   2.034   2.112  25.658
 3387W        W 4251   3.089   2.103  28.626
 3388W        W 4252   2.623   3.226  25.538
 3389W        W 4253   1.541   0.684  28.465
 3390W        W 4254   1.203   1.366  27.856
 3391W        W 4255   3.215   2.724  28.249
 3392W        W 4256   2.365   0.723  28.551
 3393W        W 4257   0.281   1.342  28.427
 3394W        W 4258   1.978   1.693  28.093
 3395W        W 4259   0.469   2.382  26.824
 3396W        W 4260   0.521   1.700  27.618
 3397W        W 4261   2.751   2.244  28.244
 3398W        W 4262   2.646   3.289  28.850
 3399W        W 4263   2.411   1.212  28.428
 3400W        W 4264   2.906   3.256  26.839
 3401W        W 4265   1.828   3.029  28.067
 3402W        W 4266   1.053   3.139  27.373
 3403W        W 4267   3.003   2.470  27.836
 3404W        W 4268   2.027   2.568  29.000
 3405W        W 4269   0.741   2.421  27.332
 3406W        W 4270   2.925   2.169  27.054
 3407W        W 4271   2.517   3.361  27.602
 3408W        W 4272   0.700   2.850  27.618
 3409W        W 4273   1.504   1.021  28.914
 3410W        W 4274   2.002   3.292  26.391
 3411W        W 4275   1.384   2.549  28.827
 3412W        W 4276   1.550   2.866  26.335
 3413W        W 4277   0.889   1.321  25.529
 3414W        W 4278   0.234   7.321   3.368
 3415W        W 4279   0.601   6.169   2.982
 3416W        W 4280   3.091   5.855   0.795
 3417W        W 4281   3.427   7.020   2.705
 3418W        W 4282   1.490   6.948   0.348
 3419W        W 4283   1.214   5.082   1.074
 3420W        W 4284   0.793   4.914   1.454
 3421W        W 4285   1.710   5.621   0.755
 3422W        W 4286   1.663   6.881   3.055
 3423W        W 4287   0.345   4.505   3.029
 3424W        W 4288   0.914   3.627   2.873
 3425W        W 4289   2.780   4.041   1.803
 3426W        W 4290   2.301   4.791   0.509
 3427W        W 4291   2.848   4.440   3.314
 3428W        W 4292   0.363   3.971   2.598
 3429W        W 4293   0.440   6.863   3.462
 3430W        W 4294   1.701   5.980   0.368
 3431W        W 4295   0.284   4.822   2.049
 3432W        W 4296   1.109   4.953   3.310
 3433W        W 4297   3.385   4.544   1.868
 3434W        W 4298   3.274   5.777   2.572
 3435W        W 4299   1.690   5.055   1.644
 3436W        W 4300   2.345   6.465   2.083
 3437W        W 4301   0.618   5.776   2.174
 3438W        W 4302   0.025   5.256   1.954
 3439W        W 4303   1.062   5.200   2.869
 3440W        W 4304   3.352   5.079   3.155
 3441W        W 4305   1.004   6.433   1.667
 3442W        W 4306   2.164   6.283   2.700
 3443W        W 4307   1.429   4.699   1.968
 3444W        W 4308   1.560   5.603   1.665
 3445W        W 4309   2.457   6.535   3.453
 3446W        W 4310   1.615   5.772   3.464
 3447W        W 4311   1.694   5.507   2.985
 3448W        W 4312   0.116   4.814   3.429
 3449W        W 4313   2.866   6.347   3.202
 3450W        W 4314   0.504   3.931   1.174
 3451W        W 4315   0.995   6.143   2.110
 3452W        W 4316   3.303   6.070   1.543
 3453W        W 4317   2.873   4.493   2.042
 3454W        W 4318   3.218   4.353   0.113
 3455W        W 4319   3.637   4.991   2.392
 3456W        W 4320   1.631   6.658   2.212
 3457W        W 4321   3.141   6.378   0.587
 3458W        W 4322   0.590   7.341   0.733
 3459W        W 4323   0.917   7.190   1.112
 3460W        W 4324   0.838   3.912   2.406
 3461W        W 4325   3.215   4.960   2.680
 3462W        W 4326   2.594   5.233   1.232
 3463W        W 4327   2.683   5.037   0.285
 3464W        W 4328   1.912   6.199   2.224
 3465W        W 4329   1.660   4.430   1.532
 3466W        W 4330   2.184   6.748   2.502
 3467W        W 4331   3.082   5.456   1.140
 3468W        W 4332   2.232   4.041   1.004
 3469W        W 4333   0.723   6.844   0.768
 3470W        W 4334   0.195   4.327   1.208
 3471W        W 4335   2.718   4.891   1.744
 3472W        W 4336   0.405   6.459   1.619
 3473W        W 4337   1.795   6.716   0.724
 3474W        W 4338   2.968   4.794  28.959
 3475W        W 4339   0.255   6.655   2.344
 3476W        W 4340   1.042   6.315   2.768
 3477W        W 4341   1.281   5.703   1.217
 3478W        W 4342   1.446   3.964   2.466
 3479W        W 4343   3.632   3.753   1.843
 3480W        W 4344   0.826   5.453   0.298
 3481W        W 4345   0.506   4.747   0.504
 3482W        W 4346   0.603   6.515   1.148
 3483W        W 4347   1.488   6.176   1.414
 3484W        W 4348   2.980   6.813   2.895
 3485W        W 4349   1.956   4.497   0.794
 3486W        W 4350   3.290   7.146   1.649
 3487W        W 4351   2.872   4.919   3.078
 3488W        W 4352   3.669   6.520   1.323
 3489W        W 4353   2.247   5.800   2.781
 3490W        W 4354   0.291   5.162   0.738
 3491W        W 4355   1.004   5.847   2.510
 3492W        W 4356   2.214   4.926   1.002
 3493W        W 4357   2.147   5.449   1.041
 3494W        W 4358   0.720   4.811   2.315
 3495W        W 4359   0.598   4.967   3.302
 3496W        W 4360   0.500   3.697   1.616
 3497W        W 4361   2.470   4.191   2.180
 3498W        W 4362   1.979   4.400   3.253
 3499W        W 4363   2.453   4.023   0.524
 3500W        W 4364   3.366   6.591   3.168
 3501W        W 4365   2.394   3.747   3.101
 3502W        W 4366   3.302   6.121   3.385
 3503W        W 4367   2.885   4.374   2.787
 3504W        W 4368   2.607   4.191   1.316
 3505W        W 4369   2.949   5.355   3.409
 3506W        W 4370   0.691   6.885   1.527
 3507W        W 4371   1.431   4.645   0.752
 3508W        W 4372   1.092   3.961   3.311
 3509W        W 4373   2.988   4.549   1.009
 3510W        W 4374   3.264   4.979   0.873
 3511W        W 4375   1.284   7.220   3.074
 3512W        W 4376   1.102   3.645   0.638
 3513W        W 4377   3.310   4.088   1.637
 3514W        W 4378   3.577   6.435   0.311
 3515W        W 4379   0.285   5.686   1.745
 3516W        W 4380   2.423   4.094   0.008
 3517W        W 4381   3.524   6.701   1.781
 3518W        W 4382   3.402   3.709   2.443
 3519W        W 4383   1.975   4.957   3.171
 3520W        W 4384   1.822   6.156   0.849
 3521W        W 4385   2.487   5.540   3.642
 3522W        W 4386   2.290   3.820   1.882
 3523W        W 4387   0.712   4.570   1.845
 3524W        W 4388   0.428   5.788   2.666
 3525W        W 4389   1.871   7.007   1.562
 3526W        W 4390   3.249   4.539   2.397
 3527W        W 4391   2.138   7.035   2.925
 3528W        W 4392   3.202   5.687   0.305
 3529W        W 4393   1.655   5.329   1.199
 3530W        W 4394   3.581   3.767   2.953
 3531W        W 4395   1.771   5.835   2.565
 3532W        W 4396   1.960   4.666   1.860
 3533W        W 4397   2.712   4.934   0.809
 3534W        W 4398   3.097   4.740   0.464
 3535W        W 4399   2.926   6.626   1.011
 3536W        W 4400   2.737   6.147   1.863
 3537W        W 4401   2.425   5.343   0.606
 3538W        W 4402   2.035   5.457   1.576
 3539W        W 4403   3.036   5.312   1.792
 3540W        W 4404   0.415   4.329   2.198
 3541W        W 4405   3.053   5.401   2.898
 3542W        W 4406   3.481   7.054   2.152
 3543W        W 4407   1.456   6.683   1.607
 3544W        W 4408   2.588   7.049   2.647
 3545W        W 4409   2.398   4.470   2.580
 3546W        W 4410   1.705   7.033   2.564
 3547W        W 4411   3.233   4.118   1.123
 3548W        W 4412   3.082   5.358   2.373
 3549W        W 4413   0.236   4.675   2.545
 3550W        W 4414   2.973   4.472   1.537
 3551W        W 4415   3.289   4.575   3.035
 3552W        W 4416   2.301   6.255   1.576
 3553W        W 4417   1.573   6.939   1.155
 3554W        W 4418   0.660   4.117   0.385
 3555W        W 4419   1.745   3.696   2.091
 3556W        W 4420   0.979   6.831   0.331
 3557W        W 4421   1.089   5.497   0.778
 3558W        W 4422   1.849   6.032   3.052
 3559W        W 4423   1.730   4.144   1.098
 3560W        W 4424   2.949   3.791   1.396
 3561W        W 4425   2.375   7.091   1.649
 3562W        W 4426   2.043   6.948   2.058
 3563W        W 4427   1.417   5.799   2.138
 3564W        W 4428   3.243   6.660   2.393
 3565W        W 4429   0.935   4.037   0.929
 3566W        W 4430   1.455   6.272   1.925
 3567W        W 4431   1.130   4.365   0.000
 3568W        W 4432   1.764   4.873   2.307
 3569W        W 4433   2.659   3.712   2.231
 3570W        W 4434   0.117   5.712   2.249
 3571W        W 4435   1.663   5.217   0.171
 3572W        W 4436   0.968   3.759   0.154
 3573W        W 4437   1.716   4.807   1.165
 3574W        W 4438   2.574   3.970   2.662
 3575W        W 4439   1.361   5.904   2.896
 3576W        W 4440   2.108   5.628   3.290
 3577W        W 4441   2.606   5.616   3.090
 3578W        W 4442   1.996   3.973   3.560
 3579W        W 4443   1.163   4.318   1.724
 3580W        W 4444   0.714   4.373   1.363
 3581W        W 4445   0.395   7.022   1.115
 3582W        W 4446   2.025   6.524   3.146
 3583W        W 4447   0.888   5.916   0.529
 3584W        W 4448   2.520   5.376   1.722
 3585W        W 4449   2.649   5.166   2.174
 3586W        W 4450   1.891   5.627   2.076
 3587W        W 4451   2.347   5.968   0.165
 3588W        W 4452   2.019   4.026   1.505
 3589W        W 4453   3.463   4.474   0.822
 3590W        W 4454   0.392   7.038   2.961
 3591W        W 4455   0.615   6.250   2.469
 3592W        W 4456   0.094   7.142   0.708
 3593W        W 4457   1.983   4.397   2.294
 3594W        W 4458   1.451   6.434   0.454
 3595W        W 4459   3.172   6.928   0.671
 3596W        W 4460   1.950   5.170   0.630
 3597W        W 4461   0.961   4.647   1.002
 3598W        W 4462   2.115   4.348   0.331
 3599W        W 4463   2.360   6.089   3.211
 3600W        W 4464   2.778   3.946   0.917
 3601W        W 4465   0.220   3.872   0.289
 3602W        W 4466   1.422   6.199   2.448
 3603W        W 4467   1.150   5.904   1.678
 3604W        W 4468   1.015   6.302   0.213
 3605W        W 4469   0.243   6.639   0.750
 3606W        W 4470   0.735   5.455   3.464
 3607W        W 4471   1.533   4.228   3.475
 3608W        W 4472   2.060   4.103   2.717
 3609W        W 4473   1.361   3.758   1.095
 3610W        W 4474   2.249   3.597   0.713
 3611W        W 4475   0.335   3.831   2.090
 3612W        W 4476   0.294   4.700   1.546
 3613W        W 4477   3.136   3.718   1.998
 3614W        W 4478   0.554   4.353   0.831
 3615W        W 4479   2.987   4.083   2.347
 3616W        W 4480   3.342   5.181   0.248
 3617W        W 4481   0.766   4.049   1.909
 3618W        W 4482   1.920   4.623   2.771
 3619W        W 4483   0.180   4.379   0.352
 3620W        W 4484   0.864   5.724   2.977
 3621W        W 4485   2.112   5.156   2.013
 3622W        W 4486   2.001   7.058   0.346
 3623W        W 4487   0.196   5.666   0.138
 3624W        W 4488   1.044   6.115   3.258
 3625W        W 4489   0.549   5.338   2.927
 3626W        W 4490   1.356   5.474   2.551
 3627W        W 4491   3.034   3.744   2.828
 3628W        W 4492   3.546   5.369   2.740
 3629W        W 4493   3.450   5.455   0.713
 3630W        W 4494   2.221   5.847   0.678
 3631W        W 4495   3.006   7.121   0.217
 3632W        W 4496   2.074   5.227   3.655
 3633W        W 4497   0.118   5.998   3.567
 3634W        W 4498   3.722   4.152   3.445
 3635W        W 4499   3.147   4.935   2.104
 3636W        W 4500   1.675   7.207   3.438
 3637W        W 4501   1.496   3.783   0.305
 3638W        W 4502   2.769   6.261   0.250
 3639W        W 4503   0.840   4.468   3.189
 3640W        W 4504   1.461   6.399   3.111
 3641W        W 4505   3.356   4.154   2.698
 3642W        W 4506   2.718   7.244   0.630
 3643W        W 4507   2.768   5.670   2.084
 3644W        W 4508   1.091   4.134   2.817
 3645W        W 4509   1.593   5.189   3.418
 3646W        W 4510   0.973   6.399   0.729
 3647W        W 4511   2.641   5.666   0.952
 3648W        W 4512   0.684   4.379   2.640
 3649W        W 4513   1.860   6.510   1.277
 3650W        W 4514   3.472   5.009   1.671
 3651W        W 4515   1.885   3.794   3.082
 3652W        W 4516   3.036   6.814   1.954
 3653W        W 4517   2.825   7.258   1.860
 3654W        W 4518   2.075   6.339   0.431
 3655W        W 4519   0.320   6.392   3.336
 3656W        W 4520   1.040   4.380   2.235
 3657W        W 4521   0.968   3.913   1.447
 3658W        W 4522   2.402   4.714   2.120
 3659W        W 4523   1.338   5.617   0.352
 3660W        W 4524   3.261   5.821   2.017
 3661W        W 4525   0.807   6.491   3.532
 3662W        W 4526   3.067   7.314   1.022
 3663W        W 4527   1.262   4.296   1.218
 3664W        W 4528   0.759   5.568   1.516
 3665W        W 4529   1.239   7.116   2.369
 3666W        W 4530   3.321   7.100   3.218
 3667W        W 4531   2.318   5.507   2.359
 3668W        W 4532   0.374   5.189   0.232
 3669W        W 4533   3.353   6.912   1.184
 3670W        W 4534   3.076   4.229   0.608
 3671W        W 4535   1.400   3.726   2.949
 3672W        W 4536   3.128   6.559   1.493
 3673W        W 4537   3.047   4.980   1.351
 3674W        W 4538   1.276   4.762   1.471
 3675W        W 4539   1.569   5.023   2.811
 3676W        W 4540   2.651   6.156   2.784
 3677W        W 4541   1.164   4.666   2.838
 3678W        W 4542   1.263   7.152   1.506
 3679W        W 4543   0.792   7.165   3.250
 3680W        W 4544   0.536   6.443   0.350
 3681W        W 4545   3.294   6.256   1.067
 3682W        W 4546   0.676   4.856   2.815
 3683W        W 4547   3.624   4.804   0.473
 3684W        W 4548   1.331   5.986   0.772
 3685W        W 4549   2.171   5.316   2.877
 3686W        W 4550   2.225   4.980   2.499
 3687W        W 4551   0.803   5.350   2.453
 3688W        W 4552   3.007   7.150   2.358
 3689W        W 4553   2.835   3.844   3.334
 3690W        W 4554   0.599   4.019   3.046
 3691W        W 4555   1.010   4.995   1.929
 3692W        W 4556   1.295   4.822   0.257
 3693W        W 4557   0.286   6.550   2.841
 3694W        W 4558   1.489   5.266   2.072
 3695W        W 4559   1.601   4.291   0.263
 3696W        W 4560   0.712   5.255   1.065
 3697W        W 4561   0.345   7.182   2.481
 3698W        W 4562   2.957   5.344   0.621
 3699W        W 4563   3.261   4.085   3.198
 3700W        W 4564   2.800   6.187   1.316
 3701W        W 4565   0.222   5.322   3.357
 3702W        W 4566   3.253   3.750   0.519
 3703W        W 4567   2.684   6.185   0.778
 3704W        W 4568   1.444   5.160   0.627
 3705W        W 4569   2.870   3.967   0.220
 3706W        W 4570   2.786   4.777   2.475
 3707W        W 4571   0.376   5.214   1.521
 3708W        W 4572   1.009   6.177   1.210
 3709W        W 4573   2.592   4.712   1.280
 3710W        W 4574   1.592   4.208   2.011
 3711W        W 4575   3.489   6.203   2.395
 3712W        W 4576   3.489   4.134   2.170
 3713W        W 4577   0.118   6.874   1.519
 3714W        W 4578   0.490   6.163   0.787
 3715W        W 4579   0.629   4.069   3.552
 3716W        W 4580   1.703   6.685   3.524
 3717W        W 4581   3.431   5.572   1.575
 3718W        W 4582   2.710   5.769   0.455
 3719W        W 4583   2.132   7.287   2.462
 3720W        W 4584   2.816   5.898   3.465
 3721W        W 4585   1.617   3.508   0.726
 3722W        W 4586   2.423   4.434   1.709
 3723W        W 4587   0.301   6.174   2.053
 3724W        W 4588   1.382   4.119   0.703
 3725W        W 4589   1.229   5.511   3.248
 3726W        W 4590   2.126   4.485   1.284
 3727W        W 4591   2.431   6.023   2.335
 3728W        W 4592   0.765   6.674   3.054
 3729W        W 4593   1.203   6.797   3.361
 3730W        W 4594   0.982   4.495   0.506
 3731W        W 4595   2.501   4.445   0.840
 3732W        W 4596   2.490   6.629   2.942
 3733W        W 4597   1.194   5.279   1.544
 3734W        W 4598   0.708   6.784   2.547
 3735W        W 4599   3.502   6.971   0.273
 3736W        W 4600   0.396   5.756   3.198
 3737W        W 4601   2.319   5.823   1.883
 3738W        W 4602   0.751   5.774   1.028
 3739W        W 4603   1.128   6.598   2.313
 3740W        W 4604   1.498   3.942   1.555
 3741W        W 4605   0.087   6.081   0.428
 3742W        W 4606   1.798   4.758   0.363
 3743W        W 4607   0.265   5.528   1.114
 3744W        W 4608   1.590   4.226   2.938
 3745W        W 4609   3.347   3.847   0.032
 3746W        W 4610   3.421   5.597   3.198
 3747W        W 4611   2.155   6.976   3.439
 3748W        W 4612   3.545   6.050   2.922
 3749W        W 4613   2.955   6.781   3.439
 3750W        W 4614   0.780   7.265   2.206
 3751W        W 4615   3.508   5.784   1.100
 3752W        W 4616   2.221   4.968   1.529
 3753W        W 4617   1.917   3.648   1.127
 3754W        W 4618   1.079   6.714   1.239
 3755W        W 4619   1.489   4.481   2.480
 3756W        W 4620   1.231   3.830   1.990
 3757W        W 4621   0.426   6.947   0.348
 3758W        W 4622   1.830   5.817   1.245
 3759W        W 4623   1.223   6.796   2.789
 3760W        W 4624   0.447   5.658   0.614
 3761W        W 4625   0.319   4.188   1.689
 3762W        W 4626   1.865   6.010   1.729
 3763W        W 4627   0.149   4.058   0.763
 3764W        W 4628   2.636   5.209   2.702
 3765W        W 4629   2.691   4.454   0.332
 3766W        W 4630   3.209   6.340   1.974
 3767W        W 4631   1.909   6.523   1.796
 3768W        W 4632   1.240   6.869   0.778
 3769W        W 4633   2.437   3.596   0.213
 3770W        W 4634   0.413   6.975   1.962
 3771W        W 4635   2.373   4.680   3.444
 3772W        W 4636   0.532   4.564   3.609
 3773W        W 4637   0.475   4.793   1.066
 3774W        W 4638   0.933   5.020   0.626
 3775W        W 4639   2.447   5.176   3.279
 3776W        W 4640   1.023   5.511   1.994
 3777W        W 4641   2.414   3.695   1.373
 3778W        W 4642   1.557   7.095   1.952
 3779W        W 4643   2.724   6.568   2.467
 3780W        W 4644   2.639   6.635   1.685
 3781W        W 4645   2.390   5.778   1.379
 3782W        W 4646   1.880   3.969   0.633
 3783W        W 4647   3.537   3.727   1.295
 3784W        W 4648   1.200   5.266  28.982
 3785W        W 4649   3.416   4.615   1.318
 3786W        W 4650   2.011   5.572   0.294
 3787W        W 4651   3.037   5.895   3.005
 3788W        W 4652   2.736   6.733   0.461
 3789W        W 4653   1.536   4.681   3.213
 3790W        W 4654   1.225   4.961   2.409
 3791W        W 4655   3.145   6.336   2.768
 3792W        W 4656   2.433   4.283   3.050
 3793W        W 4657   0.184   4.985   2.948
 3794W        W 4658   1.843   5.334   2.489
 3795W        W 4659   0.399   6.018   1.301
 3796W        W 4660   0.555   5.276   2.000
 3797W        W 4661   2.749   5.695   2.597
 3798W        W 4662   2.605   7.098   3.179
 3799W        W 4663   2.401   4.800   2.945
 3800W        W 4664   2.859   7.013   1.396
 3801W        W 4665   1.725   6.527   2.695
 3802W        W 4666   1.047   6.915   1.910
 3803W        W 4667   2.948   6.107   2.346
 3804W        W 4668   1.930   6.197   3.553
 3805W        W 4669   0.670   6.038   1.728
 3806W        W 4670   2.889   5.738   1.560
 3807W        W 4671   2.550   6.941   2.144
 3808W        W 4672   0.678   6.550   2.051
 3809W        W 4673   1.862   4.763   3.622
 3810W        W 4674   2.113   6.938   1.105
 3811W        W 4675   1.397   6.261   3.606
 3812W        W 4676   1.428   6.447   0.987
 3813W        W 4677   0.815   4.943   0.121
 3814W        W 4678   0.245   7.424   7.058
 3815W        W 4679   0.559   6.242   6.603
 3816W        W 4680   3.051   5.991   4.663
 3817W        W 4681   3.492   7.047   6.408
 3818W        W 4682   1.385   6.965   3.829
 3819W        W 4683   1.329   5.113   4.731
 3820W        W 4684   0.870   5.063   5.016
 3821W        W 4685   1.885   5.842   4.496
 3822W        W 4686   1.654   6.903   6.743
 3823W        W 4687   0.206   4.488   6.650
 3824W        W 4688   0.847   3.641   6.429
 3825W        W 4689   2.566   4.141   5.355
 3826W        W 4690   2.252   4.872   4.001
 3827W        W 4691   2.914   4.322   7.135
 3828W        W 4692   0.254   4.227   6.209
 3829W        W 4693   0.426   6.797   7.272
 3830W        W 4694   1.553   5.927   3.983
 3831W        W 4695   0.246   4.902   5.711
 3832W        W 4696   1.134   4.883   6.926
 3833W        W 4697   3.338   4.498   5.495
 3834W        W 4698   3.221   5.727   6.225
 3835W        W 4699   1.761   5.003   5.322
 3836W        W 4700   2.418   6.402   5.745
 3837W        W 4701   0.694   5.815   5.838
 3838W        W 4702   0.041   5.345   5.557
 3839W        W 4703   1.273   5.217   6.528
 3840W        W 4704   3.292   5.099   6.865
 3841W        W 4705   1.008   6.486   5.260
 3842W        W 4706   2.039   6.308   6.430
 3843W        W 4707   1.355   4.712   5.626
 3844W        W 4708   1.644   5.604   5.387
 3845W        W 4709   2.400   6.576   7.167
 3846W        W 4710   1.658   5.673   7.166
 3847W        W 4711   1.702   5.504   6.661
 3848W        W 4712   0.095   4.815   7.103
 3849W        W 4713   2.809   6.426   6.834
 3850W        W 4714   0.636   3.899   4.745
 3851W        W 4715   1.060   6.180   5.763
 3852W        W 4716   3.299   6.245   5.260
 3853W        W 4717   2.849   4.530   5.667
 3854W        W 4718   3.248   4.369   3.628
 3855W        W 4719   3.933   5.296   6.035
 3856W        W 4720   1.677   6.860   5.796
 3857W        W 4721   3.169   6.412   4.259
 3858W        W 4722   0.584   7.263   4.284
 3859W        W 4723   0.925   7.127   4.662
 3860W        W 4724   0.711   4.026   6.091
 3861W        W 4725   3.420   5.246   6.084
 3862W        W 4726   2.678   5.313   4.989
 3863W        W 4727   2.645   5.027   3.716
 3864W        W 4728   1.924   6.321   5.913
 3865W        W 4729   1.710   4.486   5.252
 3866W        W 4730   2.248   6.698   6.137
 3867W        W 4731   3.145   5.492   4.804
 3868W        W 4732   2.203   4.123   4.529
 3869W        W 4733   0.799   6.773   4.309
 3870W        W 4734   0.300   4.279   4.841
 3871W        W 4735   2.836   4.911   5.303
 3872W        W 4736   0.471   6.454   5.242
 3873W        W 4737   1.618   6.512   4.003
 3874W        W 4738   3.090   4.853   3.546
 3875W        W 4739   0.307   6.633   5.930
 3876W        W 4740   1.040   6.309   6.425
 3877W        W 4741   1.337   5.660   4.912
 3878W        W 4742   1.204   4.037   5.903
 3879W        W 4743   3.482   3.830   5.600
 3880W        W 4744   0.751   5.348   4.020
 3881W        W 4745   0.560   4.674   4.112
 3882W        W 4746   0.660   6.492   4.763
 3883W        W 4747   1.602   6.116   4.921
 3884W        W 4748   3.053   6.888   6.632
 3885W        W 4749   1.977   4.533   4.305
 3886W        W 4750   3.214   7.260   5.155
 3887W        W 4751   3.139   4.953   6.397
 3888W        W 4752   3.661   6.580   5.110
 3889W        W 4753   2.215   5.761   6.540
 3890W        W 4754   0.072   5.326   4.662
 3891W        W 4755   1.107   5.863   6.146
 3892W        W 4756   2.356   5.011   4.483
 3893W        W 4757   2.219   5.471   4.683
 3894W        W 4758   0.702   4.911   5.984
 3895W        W 4759   0.571   4.795   6.900
 3896W        W 4760   0.525   3.816   5.238
 3897W        W 4761   2.126   3.965   5.576
 3898W        W 4762   1.989   4.292   6.910
 3899W        W 4763   2.455   4.090   4.074
 3900W        W 4764   3.512   6.766   6.860
 3901W        W 4765   2.229   3.785   6.973
 3902W        W 4766   3.247   6.181   7.057
 3903W        W 4767   2.923   4.477   6.400
 3904W        W 4768   2.575   4.281   4.844
 3905W        W 4769   2.922   5.320   7.144
 3906W        W 4770   0.730   6.889   5.091
 3907W        W 4771   1.489   4.657   4.480
 3908W        W 4772   0.999   3.912   6.884
 3909W        W 4773   3.028   4.565   4.596
 3910W        W 4774   3.321   5.054   4.394
 3911W        W 4775   1.186   7.022   6.936
 3912W        W 4776   1.196   3.589   4.255
 3913W        W 4777   3.380   4.068   5.156
 3914W        W 4778   3.349   6.544   3.700
 3915W        W 4779   0.421   5.688   5.408
 3916W        W 4780   2.474   4.146   3.533
 3917W        W 4781   3.444   6.616   5.596
 3918W        W 4782   3.472   3.831   6.116
 3919W        W 4783   1.985   4.824   7.007
 3920W        W 4784   2.003   6.168   4.085
 3921W        W 4785   2.484   5.486   7.381
 3922W        W 4786   2.326   3.696   5.159
 3923W        W 4787   0.823   4.642   5.458
 3924W        W 4788   0.436   5.819   6.307
 3925W        W 4789   2.236   6.923   5.150
 3926W        W 4790   3.270   4.642   6.014
 3927W        W 4791   2.093   7.029   6.499
 3928W        W 4792   3.249   5.692   3.685
 3929W        W 4793   1.766   5.365   4.941
 3930W        W 4794   3.570   3.798   6.605
 3931W        W 4795   1.802   5.877   6.261
 3932W        W 4796   1.863   4.656   5.754
 3933W        W 4797   2.845   5.175   4.523
 3934W        W 4798   2.892   4.836   4.153
 3935W        W 4799   3.014   6.751   4.657
 3936W        W 4800   2.789   6.176   5.453
 3937W        W 4801   2.565   5.322   4.123
 3938W        W 4802   2.170   5.443   5.355
 3939W        W 4803   3.136   5.324   5.287
 3940W        W 4804   0.489   4.454   5.826
 3941W        W 4805   3.021   5.423   6.589
 3942W        W 4806   3.544   7.051   5.865
 3943W        W 4807   1.491   6.573   5.153
 3944W        W 4808   2.613   7.088   6.432
 3945W        W 4809   2.440   4.418   6.233
 3946W        W 4810   1.764   7.257   6.184
 3947W        W 4811   3.297   4.117   4.653
 3948W        W 4812   2.900   5.319   6.079
 3949W        W 4813   0.274   4.759   6.203
 3950W        W 4814   2.957   4.435   5.142
 3951W        W 4815   3.208   4.590   6.795
 3952W        W 4816   2.330   6.299   5.217
 3953W        W 4817   1.604   6.907   4.772
 3954W        W 4818   0.731   4.185   4.034
 3955W        W 4819   1.738   3.685   5.825
 3956W        W 4820   0.865   6.963   3.761
 3957W        W 4821   1.181   5.580   4.164
 3958W        W 4822   1.829   6.001   6.784
 3959W        W 4823   1.765   4.293   4.762
 3960W        W 4824   2.906   3.916   5.019
 3961W        W 4825   2.590   7.231   5.456
 3962W        W 4826   2.170   6.967   5.673
 3963W        W 4827   1.513   5.911   5.807
 3964W        W 4828   3.322   6.635   6.129
 3965W        W 4829   1.027   4.036   4.447
 3966W        W 4830   1.491   6.408   5.637
 3967W        W 4831   1.057   4.384   3.658
 3968W        W 4832   1.706   4.969   6.154
 3969W        W 4833   2.592   3.994   5.857
 3970W        W 4834   0.166   5.759   5.851
 3971W        W 4835   1.622   5.411   3.897
 3972W        W 4836   0.982   3.737   3.784
 3973W        W 4837   1.860   4.997   4.595
 3974W        W 4838   2.709   3.996   6.374
 3975W        W 4839   1.370   5.902   6.575
 3976W        W 4840   2.147   5.696   7.055
 3977W        W 4841   2.593   5.565   6.832
 3978W        W 4842   1.942   4.008   7.367
 3979W        W 4843   1.228   4.274   5.368
 3980W        W 4844   0.786   4.321   5.043
 3981W        W 4845   0.422   6.980   4.675
 3982W        W 4846   1.951   6.517   6.909
 3983W        W 4847   0.760   5.878   4.074
 3984W        W 4848   2.691   5.493   5.483
 3985W        W 4849   2.472   4.999   5.652
 3986W        W 4850   1.954   5.672   5.802
 3987W        W 4851   2.410   6.071   3.749
 3988W        W 4852   2.124   4.176   5.095
 3989W        W 4853   3.541   4.522   4.435
 3990W        W 4854   0.389   7.170   6.606
 3991W        W 4855   0.649   6.261   6.092
 3992W        W 4856   0.072   7.093   4.284
 3993W        W 4857   2.018   4.186   6.023
 3994W        W 4858   1.104   6.537   3.956
 3995W        W 4859   3.192   6.962   4.205
 3996W        W 4860   2.051   5.339   4.190
 3997W        W 4861   0.997   4.727   4.644
 3998W        W 4862   2.148   4.408   3.820
 3999W        W 4863   2.327   6.149   6.886
 4000W        W 4864   2.829   4.100   4.437
 4001W        W 4865   0.322   3.801   3.886
 4002W        W 4866   1.478   6.258   6.168
 4003W        W 4867   1.309   6.015   5.332
 4004W        W 4868   0.638   6.000   3.579
 4005W        W 4869   0.319   6.588   4.371
 4006W        W 4870   0.789   5.280   6.933
 4007W        W 4871   1.496   4.037   7.067
 4008W        W 4872   2.202   4.033   6.494
 4009W        W 4873   1.402   3.787   4.723
 4010W        W 4874   2.222   3.655   4.264
 4011W        W 4875   0.323   3.921   5.765
 4012W        W 4876   0.446   4.728   5.057
 4013W        W 4877   3.035   4.065   5.528
 4014W        W 4878   0.660   4.380   4.512
 4015W        W 4879   3.077   4.162   6.030
 4016W        W 4880   3.474   5.215   3.622
 4017W        W 4881   0.797   4.104   5.576
 4018W        W 4882   1.942   4.521   6.401
 4019W        W 4883   0.234   4.297   3.936
 4020W        W 4884   0.881   5.598   6.532
 4021W        W 4885   1.991   5.168   5.759
 4022W        W 4886   1.884   7.081   3.877
 4023W        W 4887   0.344   5.598   3.803
 4024W        W 4888   0.948   5.994   6.868
 4025W        W 4889   0.479   5.305   6.327
 4026W        W 4890   1.483   5.492   6.148
 4027W        W 4891   3.086   3.652   6.406
 4028W        W 4892   3.554   5.455   6.534
 4029W        W 4893   3.160   5.594   4.309
 4030W        W 4894   2.332   5.778   4.199
 4031W        W 4895   2.956   7.277   3.531
 4032W        W 4896   2.017   5.243   7.317
 4033W        W 4897   0.222   6.070   7.236
 4034W        W 4898   3.565   4.221   6.940
 4035W        W 4899   3.134   5.022   5.705
 4036W        W 4900   1.637   7.154   7.182
 4037W        W 4901   1.454   3.914   3.911
 4038W        W 4902   2.867   6.338   3.744
 4039W        W 4903   0.913   4.409   6.875
 4040W        W 4904   1.524   6.401   6.655
 4041W        W 4905   3.448   4.307   6.387
 4042W        W 4906   2.814   7.325   4.045
 4043W        W 4907   2.766   5.862   5.856
 4044W        W 4908   1.094   4.126   6.412
 4045W        W 4909   1.564   5.154   7.074
 4046W        W 4910   0.983   6.284   4.394
 4047W        W 4911   2.687   5.655   4.552
 4048W        W 4912   0.683   4.489   6.376
 4049W        W 4913   1.943   6.527   4.912
 4050W        W 4914   3.482   4.936   5.277
 4051W        W 4915   1.798   3.815   6.714
 4052W        W 4916   2.956   6.534   5.783
 4053W        W 4917   3.079   7.033   5.601
 4054W        W 4918   2.117   6.615   3.835
 4055W        W 4919   0.211   6.463   6.914
 4056W        W 4920   0.992   4.487   5.953
 4057W        W 4921   1.037   3.867   5.094
 4058W        W 4922   2.343   4.461   5.730
 4059W        W 4923   1.120   5.809   3.682
 4060W        W 4924   3.167   5.562   5.731
 4061W        W 4925   0.655   6.351   7.112
 4062W        W 4926   3.125   7.278   4.620
 4063W        W 4927   1.260   4.289   4.835
 4064W        W 4928   0.896   5.575   5.182
 4065W        W 4929   1.279   7.126   6.040
 4066W        W 4930   3.321   7.233   6.916
 4067W        W 4931   2.415   5.463   5.923
 4068W        W 4932   0.403   5.080   3.771
 4069W        W 4933   3.459   6.947   4.835
 4070W        W 4934   3.130   4.373   4.130
 4071W        W 4935   1.338   3.691   6.572
 4072W        W 4936   3.151   6.733   5.182
 4073W        W 4937   3.143   4.981   4.892
 4074W        W 4938   1.262   4.735   5.111
 4075W        W 4939   1.613   4.843   6.649
 4076W        W 4940   2.553   6.198   6.434
 4077W        W 4941   1.180   4.628   6.470
 4078W        W 4942   1.231   7.066   5.080
 4079W        W 4943   0.695   7.179   7.010
 4080W        W 4944   0.579   6.366   3.986
 4081W        W 4945   3.366   6.388   4.755
 4082W        W 4946   0.823   4.984   6.489
 4083W        W 4947   3.400   4.773   3.949
 4084W        W 4948   1.368   5.943   4.481
 4085W        W 4949   2.150   5.261   6.774
 4086W        W 4950   2.220   4.874   6.109
 4087W        W 4951   0.945   5.379   6.071
 4088W        W 4952   3.060   7.082   6.121
 4089W        W 4953   2.734   3.870   6.968
 4090W        W 4954   0.560   4.049   6.628
 4091W        W 4955   0.966   5.126   5.597
 4092W        W 4956   1.373   4.818   3.731
 4093W        W 4957   0.267   6.676   6.438
 4094W        W 4958   1.478   5.218   5.718
 4095W        W 4959   1.613   4.432   3.949
 4096W        W 4960   0.833   5.222   4.516
 4097W        W 4961   0.376   7.103   6.111
 4098W        W 4962   3.054   5.264   3.925
 4099W        W 4963   3.117   4.081   6.707
 4100W        W 4964   2.856   6.354   4.980
 4101W        W 4965   0.291   5.281   7.026
 4102W        W 4966   3.251   3.872   4.171
 4103W        W 4967   2.709   6.144   4.279
 4104W        W 4968   1.594   5.422   4.426
 4105W        W 4969   2.895   4.031   3.819
 4106W        W 4970   2.739   4.832   6.075
 4107W        W 4971   0.504   5.175   5.343
 4108W        W 4972   1.055   6.134   4.891
 4109W        W 4973   2.653   4.801   4.837
 4110W        W 4974   1.641   4.176   5.668
 4111W        W 4975   3.544   6.166   6.171
 4112W        W 4976   3.587   4.257   5.879
 4113W        W 4977   0.162   6.840   5.086
 4114W        W 4978   0.499   6.106   4.462
 4115W        W 4979   0.587   4.035   7.169
 4116W        W 4980   1.481   6.634   7.181
 4117W        W 4981   3.481   5.792   5.412
 4118W        W 4982   2.811   5.755   3.966
 4119W        W 4983   2.283   7.276   6.078
 4120W        W 4984   2.870   5.837   7.195
 4121W        W 4985   1.698   3.658   4.319
 4122W        W 4986   2.403   4.620   5.247
 4123W        W 4987   0.363   6.190   5.662
 4124W        W 4988   1.508   4.150   4.360
 4125W        W 4989   1.229   5.545   6.928
 4126W        W 4990   2.175   4.602   4.773
 4127W        W 4991   2.287   5.971   6.062
 4128W        W 4992   0.663   6.741   6.758
 4129W        W 4993   1.088   6.499   6.901
 4130W        W 4994   1.101   4.531   4.158
 4131W        W 4995   2.520   4.528   4.363
 4132W        W 4996   2.388   6.646   6.647
 4133W        W 4997   1.307   5.248   5.231
 4134W        W 4998   0.745   6.755   6.232
 4135W        W 4999   3.401   7.057   3.745
 4136W        W 5000   0.475   5.740   6.846
 4137W        W 5001   2.345   5.897   5.548
 4138W        W 5002   0.887   5.742   4.606
 4139W        W 5003   1.179   6.625   5.993
 4140W        W 5004   1.613   3.969   5.168
 4141W        W 5005   0.162   6.006   4.086
 4142W        W 5006   1.728   4.941   4.093
 4143W        W 5007   0.510   5.436   4.883
 4144W        W 5008   1.602   3.976   6.234
 4145W        W 5009   3.370   3.865   3.671
 4146W        W 5010   3.332   5.615   6.991
 4147W        W 5011   2.116   7.008   7.021
 4148W        W 5012   3.506   5.954   6.632
 4149W        W 5013   3.082   6.744   7.144
 4150W        W 5014   0.820   7.104   5.802
 4151W        W 5015   3.498   5.897   4.911
 4152W        W 5016   2.211   5.059   5.008
 4153W        W 5017   1.930   3.763   4.789
 4154W        W 5018   1.135   6.658   4.770
 4155W        W 5019   1.504   4.470   6.095
 4156W        W 5020   1.303   3.721   5.519
 4157W        W 5021   0.408   6.880   3.967
 4158W        W 5022   2.009   5.817   5.029
 4159W        W 5023   1.226   6.795   6.471
 4160W        W 5024   0.450   5.593   4.379
 4161W        W 5025   0.358   4.285   5.360
 4162W        W 5026   1.852   6.076   5.444
 4163W        W 5027   0.298   4.032   4.374
 4164W        W 5028   2.507   5.228   6.397
 4165W        W 5029   2.687   4.509   3.829
 4166W        W 5030   3.228   6.084   5.752
 4167W        W 5031   1.946   6.578   5.439
 4168W        W 5032   1.314   6.910   4.339
 4169W        W 5033   2.434   3.677   3.745
 4170W        W 5034   0.423   6.934   5.521
 4171W        W 5035   2.481   4.718   7.139
 4172W        W 5036   0.666   4.506   7.371
 4173W        W 5037   0.347   5.092   4.300
 4174W        W 5038   1.222   5.053   4.194
 4175W        W 5039   2.782   4.977   6.768
 4176W        W 5040   1.136   5.619   5.638
 4177W        W 5041   2.540   3.752   4.684
 4178W        W 5042   1.711   7.027   5.282
 4179W        W 5043   2.785   6.632   6.278
 4180W        W 5044   2.660   6.704   5.387
 4181W        W 5045   2.526   5.808   5.060
 4182W        W 5046   1.933   4.041   4.083
 4183W        W 5047   3.595   3.707   4.835
 4184W        W 5048   1.167   5.297   3.713
 4185W        W 5049   3.420   4.545   4.952
 4186W        W 5050   2.016   5.728   3.797
 4187W        W 5051   2.980   5.943   6.677
 4188W        W 5052   2.581   6.912   3.784
 4189W        W 5053   1.539   4.297   6.631
 4190W        W 5054   1.207   4.945   6.071
 4191W        W 5055   3.264   6.407   6.586
 4192W        W 5056   2.559   4.332   6.749
 4193W        W 5057   0.167   5.005   6.622
 4194W        W 5058   2.013   5.379   6.249
 4195W        W 5059   0.475   5.959   4.956
 4196W        W 5060   0.491   5.351   5.818
 4197W        W 5061   2.680   5.713   6.328
 4198W        W 5062   2.650   6.993   6.947
 4199W        W 5063   2.332   4.780   6.616
 4200W        W 5064   2.771   7.054   5.003
 4201W        W 5065   1.727   6.706   6.275
 4202W        W 5066   1.224   6.864   5.546
 4203W        W 5067   3.008   6.184   6.198
 4204W        W 5068   1.915   6.147   7.272
 4205W        W 5069   0.781   6.045   5.363
 4206W        W 5070   3.024   5.816   5.179
 4207W        W 5071   2.635   6.929   5.879
 4208W        W 5072   0.756   6.585   5.691
 4209W        W 5073   1.543   4.567   7.089
 4210W        W 5074   1.853   6.837   4.328
 4211W        W 5075   1.412   6.111   7.080
 4212W        W 5076   1.531   6.444   4.517
 4213W        W 5077   0.880   4.888   3.784
 4214W        W 5078   0.089   7.417  10.631
 4215W        W 5079   0.496   6.294  10.169
 4216W        W 5080   3.282   5.711   8.039
 4217W        W 5081   3.406   6.963  10.058
 4218W        W 5082   1.388   6.969   7.583
 4219W        W 5083   1.141   5.149   8.356
 4220W        W 5084   0.704   5.038   8.692
 4221W        W 5085   1.662   5.645   8.063
 4222W        W 5086   1.556   6.894  10.372
 4223W        W 5087   0.349   4.467  10.247
 4224W        W 5088   0.833   3.553  10.057
 4225W        W 5089   2.735   4.060   9.069
 4226W        W 5090   2.250   4.885   7.672
 4227W        W 5091   2.799   4.436  10.635
 4228W        W 5092   0.268   4.124   9.843
 4229W        W 5093   0.204   6.894  10.710
 4230W        W 5094   1.559   5.963   7.615
 4231W        W 5095   0.342   4.847   9.270
 4232W        W 5096   1.024   4.871  10.586
 4233W        W 5097   3.403   4.604   9.044
 4234W        W 5098   3.134   5.739   9.773
 4235W        W 5099   1.590   5.010   8.908
 4236W        W 5100   2.391   6.407   9.385
 4237W        W 5101   0.705   5.705   9.586
 4238W        W 5102  29.000   5.279   9.247
 4239W        W 5103   1.160   5.220  10.230
 4240W        W 5104   3.238   5.115  10.473
 4241W        W 5105   0.884   6.399   8.914
 4242W        W 5106   2.021   6.275  10.018
 4243W        W 5107   1.312   4.694   9.217
 4244W        W 5108   1.528   5.639   8.931
 4245W        W 5109   2.393   6.551  10.768
 4246W        W 5110   1.550   5.627  10.694
 4247W        W 5111   1.749   5.422  10.247
 4248W        W 5112  28.991   4.898  10.821
 4249W        W 5113   2.771   6.329  10.470
 4250W        W 5114   0.503   3.802   8.399
 4251W        W 5115   1.006   6.169   9.386
 4252W        W 5116   3.383   6.080   8.939
 4253W        W 5117   3.022   4.396   9.325
 4254W        W 5118   3.364   4.497   7.341
 4255W        W 5119   3.636   5.104   9.719
 4256W        W 5120   1.550   6.946   9.492
 4257W        W 5121   3.446   6.676   7.838
 4258W        W 5122   0.582   7.389   7.999
 4259W        W 5123   0.932   7.190   8.334
 4260W        W 5124   0.746   3.929   9.679
 4261W        W 5125   3.172   4.993   9.976
 4262W        W 5126   2.532   5.267   8.531
 4263W        W 5127   2.713   5.057   7.557
 4264W        W 5128   1.887   6.281   9.510
 4265W        W 5129   1.585   4.483   8.800
 4266W        W 5130   2.209   6.710   9.772
 4267W        W 5131   3.088   5.395   8.407
 4268W        W 5132   2.232   4.130   8.296
 4269W        W 5133   0.718   6.881   7.820
 4270W        W 5134   0.221   4.211   8.531
 4271W        W 5135   2.479   4.898   8.928
 4272W        W 5136   0.374   6.435   8.943
 4273W        W 5137   1.404   6.452   7.751
 4274W        W 5138   2.993   4.817   7.210
 4275W        W 5139   0.220   6.629   9.568
 4276W        W 5140   0.928   6.329   9.891
 4277W        W 5141   1.255   5.653   8.453
 4278W        W 5142   1.304   3.938   9.649
 4279W        W 5143   3.499   3.814   9.024
 4280W        W 5144   0.753   5.444   7.629
 4281W        W 5145   0.532   4.741   7.827
 4282W        W 5146   0.606   6.496   8.467
 4283W        W 5147   1.590   6.021   8.524
 4284W        W 5148   2.958   6.793  10.254
 4285W        W 5149   1.927   4.531   7.930
 4286W        W 5150   3.207   7.236   8.801
 4287W        W 5151   2.754   4.947  10.395
 4288W        W 5152   3.664   6.508   8.695
 4289W        W 5153   2.144   5.732  10.127
 4290W        W 5154   0.134   5.375   8.282
 4291W        W 5155   1.142   5.867   9.777
 4292W        W 5156   2.188   4.962   8.195
 4293W        W 5157   2.116   5.475   8.306
 4294W        W 5158   0.751   4.798   9.603
 4295W        W 5159   0.496   4.806  10.601
 4296W        W 5160   0.317   3.796   8.868
 4297W        W 5161   2.265   4.071   9.276
 4298W        W 5162   1.898   4.367  10.596
 4299W        W 5163   2.300   4.145   7.721
 4300W        W 5164   3.430   6.699  10.520
 4301W        W 5165   2.284   3.739  10.436
 4302W        W 5166   3.241   6.176  10.638
 4303W        W 5167   2.785   4.289  10.151
 4304W        W 5168   2.718   4.174   8.540
 4305W        W 5169   2.836   5.360  10.695
 4306W        W 5170   0.689   6.896   8.779
 4307W        W 5171   1.414   4.627   7.963
 4308W        W 5172   0.957   3.956  10.613
 4309W        W 5173   2.943   4.515   8.163
 4310W        W 5174   3.243   4.951   8.195
 4311W        W 5175   1.079   7.030  10.626
 4312W        W 5176   1.082   3.650   7.847
 4313W        W 5177   3.198   4.175   8.864
 4314W        W 5178   3.524   6.520   7.344
 4315W        W 5179   0.207   5.675   8.956
 4316W        W 5180   2.410   4.202   7.222
 4317W        W 5181   3.471   6.534   9.192
 4318W        W 5182   3.382   3.811   9.732
 4319W        W 5183   1.937   4.895  10.405
 4320W        W 5184   1.801   6.152   8.052
 4321W        W 5185   2.458   5.562  10.972
 4322W        W 5186   2.364   3.817   8.818
 4323W        W 5187   0.794   4.660   9.093
 4324W        W 5188   0.359   5.809   9.981
 4325W        W 5189   2.140   6.984   8.822
 4326W        W 5190   3.301   4.771   9.523
 4327W        W 5191   2.056   6.977  10.200
 4328W        W 5192   3.200   5.555   7.507
 4329W        W 5193   1.646   5.333   8.497
 4330W        W 5194   3.523   3.853  10.236
 4331W        W 5195   1.719   5.826   9.845
 4332W        W 5196   2.002   4.681   9.055
 4333W        W 5197   2.706   4.964   8.107
 4334W        W 5198   3.128   4.794   7.725
 4335W        W 5199   3.066   6.763   8.204
 4336W        W 5200   2.878   5.984   9.084
 4337W        W 5201   2.453   5.358   7.895
 4338W        W 5202   2.026   5.600   8.817
 4339W        W 5203   2.915   5.444   8.896
 4340W        W 5204   0.480   4.388   9.469
 4341W        W 5205   2.954   5.419  10.189
 4342W        W 5206   3.516   6.984   9.460
 4343W        W 5207   1.447   6.578   8.808
 4344W        W 5208   2.565   7.047  10.030
 4345W        W 5209   2.401   4.325   9.754
 4346W        W 5210   1.679   7.227   9.936
 4347W        W 5211   3.180   4.068   8.321
 4348W        W 5212   3.127   5.264   9.555
 4349W        W 5213   0.291   4.805   9.832
 4350W        W 5214   2.854   4.546   8.877
 4351W        W 5215   3.164   4.621  10.315
 4352W        W 5216   2.291   6.284   8.875
 4353W        W 5217   1.525   6.972   8.455
 4354W        W 5218   0.700   4.039   7.694
 4355W        W 5219   1.838   3.809   9.169
 4356W        W 5220   0.946   6.780   7.336
 4357W        W 5221   1.151   5.517   7.947
 4358W        W 5222   1.756   5.991  10.356
 4359W        W 5223   1.699   4.247   8.316
 4360W        W 5224   2.975   3.757   8.702
 4361W        W 5225   2.593   7.241   9.030
 4362W        W 5226   2.054   6.993   9.354
 4363W        W 5227   1.492   5.942   9.394
 4364W        W 5228   3.289   6.585   9.697
 4365W        W 5229   0.910   3.998   8.189
 4366W        W 5230   1.441   6.458   9.305
 4367W        W 5231   1.090   4.192   7.360
 4368W        W 5232   1.721   4.855   9.500
 4369W        W 5233   2.587   3.748   9.495
 4370W        W 5234   0.212   5.720   9.475
 4371W        W 5235   1.540   5.406   7.578
 4372W        W 5236   0.923   3.699   7.365
 4373W        W 5237   1.581   4.818   8.412
 4374W        W 5238   2.505   3.879   9.988
 4375W        W 5239   1.337   5.738  10.227
 4376W        W 5240   2.061   5.689  10.659
 4377W        W 5241   2.552   5.695  10.417
 4378W        W 5242   1.930   3.887  10.814
 4379W        W 5243   1.117   4.292   8.930
 4380W        W 5244   0.732   4.320   8.584
 4381W        W 5245   0.468   6.964   8.281
 4382W        W 5246   1.912   6.531  10.476
 4383W        W 5247   0.853   5.943   7.786
 4384W        W 5248   2.430   5.391   9.045
 4385W        W 5249   2.654   5.057   9.385
 4386W        W 5250   1.916   5.671   9.334
 4387W        W 5251   2.409   6.006   7.395
 4388W        W 5252   1.947   4.107   8.754
 4389W        W 5253   3.470   4.434   8.092
 4390W        W 5254   0.330   7.189  10.159
 4391W        W 5255   0.499   6.183   9.638
 4392W        W 5256   0.158   7.116   7.895
 4393W        W 5257   1.947   4.397   9.490
 4394W        W 5258   1.056   6.258   7.421
 4395W        W 5259   3.144   7.075   7.771
 4396W        W 5260   1.959   5.271   7.842
 4397W        W 5261   0.842   4.732   8.269
 4398W        W 5262   2.038   4.507   7.407
 4399W        W 5263   2.253   6.135  10.480
 4400W        W 5264   2.717   4.070   8.034
 4401W        W 5265   0.284   3.774   7.533
 4402W        W 5266   1.440   6.279   9.791
 4403W        W 5267   1.296   6.097   8.947
 4404W        W 5268   0.691   5.873   7.305
 4405W        W 5269   0.264   6.608   7.956
 4406W        W 5270   0.725   5.270  10.509
 4407W        W 5271   1.464   4.030  10.627
 4408W        W 5272   1.982   4.017   9.872
 4409W        W 5273   1.314   3.713   8.333
 4410W        W 5274   2.228   3.695   7.983
 4411W        W 5275   0.303   3.865   9.383
 4412W        W 5276   0.378   4.644   8.787
 4413W        W 5277   3.086   3.778   9.307
 4414W        W 5278   0.528   4.320   8.113
 4415W        W 5279   2.904   4.081   9.698
 4416W        W 5280   3.422   5.060   7.359
 4417W        W 5281   0.645   4.145   9.060
 4418W        W 5282   1.939   4.580   9.970
 4419W        W 5283   0.240   4.293   7.624
 4420W        W 5284   0.830   5.626  10.127
 4421W        W 5285   1.998   5.176   9.208
 4422W        W 5286   1.890   7.168   7.640
 4423W        W 5287   0.285   5.595   7.441
 4424W        W 5288   0.949   6.074  10.331
 4425W        W 5289   0.432   5.287  10.071
 4426W        W 5290   1.370   5.419   9.813
 4427W        W 5291   3.019   3.791  10.112
 4428W        W 5292   3.465   5.443  10.082
 4429W        W 5293   3.491   5.247   7.838
 4430W        W 5294   2.269   5.846   7.971
 4431W        W 5295   2.976   7.229   7.293
 4432W        W 5296   2.029   5.275  10.983
 4433W        W 5297   0.265   5.983  10.956
 4434W        W 5298   3.668   4.230  10.784
 4435W        W 5299   3.058   4.979   9.097
 4436W        W 5300   1.570   7.083  10.846
 4437W        W 5301   1.454   3.832   7.528
 4438W        W 5302   3.197   6.071   7.612
 4439W        W 5303   0.831   4.423  10.439
 4440W        W 5304   1.415   6.379  10.298
 4441W        W 5305   3.297   4.260   9.975
 4442W        W 5306   2.725   7.351   7.749
 4443W        W 5307   2.765   5.587   9.395
 4444W        W 5308   1.105   4.084  10.116
 4445W        W 5309   1.492   5.106  10.607
 4446W        W 5310   0.933   6.417   8.026
 4447W        W 5311   2.694   5.667   8.232
 4448W        W 5312   0.742   4.395   9.919
 4449W        W 5313   1.888   6.453   8.572
 4450W        W 5314   3.425   5.023   8.713
 4451W        W 5315   1.785   3.756  10.300
 4452W        W 5316   2.926   6.511   9.309
 4453W        W 5317   3.034   7.029   9.234
 4454W        W 5318   1.928   6.699   7.412
 4455W        W 5319  28.913   6.517  10.488
 4456W        W 5320   1.008   4.337   9.454
 4457W        W 5321   0.931   3.841   8.707
 4458W        W 5322   2.522   4.549   9.312
 4459W        W 5323   1.164   5.725   7.410
 4460W        W 5324   3.254   5.659   9.243
 4461W        W 5325   0.398   6.408  10.675
 4462W        W 5326   3.127   7.288   8.272
 4463W        W 5327   1.215   4.372   8.403
 4464W        W 5328   0.894   5.802   8.803
 4465W        W 5329   1.178   7.221   9.794
 4466W        W 5330   3.201   7.156  10.568
 4467W        W 5331   2.316   5.411   9.563
 4468W        W 5332   0.303   5.192   7.794
 4469W        W 5333   3.458   6.921   8.486
 4470W        W 5334   3.147   4.263   7.747
 4471W        W 5335   1.271   3.631  10.321
 4472W        W 5336   3.134   6.708   8.838
 4473W        W 5337   2.928   4.958   8.600
 4474W        W 5338   1.150   4.779   8.724
 4475W        W 5339   1.595   4.973  10.036
 4476W        W 5340   2.532   6.136  10.051
 4477W        W 5341   1.193   4.629  10.119
 4478W        W 5342   1.164   7.174   8.785
 4479W        W 5343   0.573   7.238  10.621
 4480W        W 5344   0.557   6.350   7.613
 4481W        W 5345   3.243   6.348   8.476
 4482W        W 5346   0.732   4.873  10.137
 4483W        W 5347   3.652   4.739   7.718
 4484W        W 5348   1.288   6.014   8.060
 4485W        W 5349   2.196   5.200  10.051
 4486W        W 5350   2.228   4.873   9.624
 4487W        W 5351   0.884   5.259   9.788
 4488W        W 5352   3.011   7.035   9.743
 4489W        W 5353   2.761   3.894  10.541
 4490W        W 5354   0.601   3.996  10.237
 4491W        W 5355   0.987   5.117   9.282
 4492W        W 5356   1.183   4.701   7.441
 4493W        W 5357   0.178   6.692  10.078
 4494W        W 5358   1.484   5.295   9.324
 4495W        W 5359   1.569   4.341   7.554
 4496W        W 5360   0.683   5.264   8.148
 4497W        W 5361   0.301   7.132   9.654
 4498W        W 5362   2.983   5.323   7.904
 4499W        W 5363   3.218   4.151  10.516
 4500W        W 5364   2.786   6.328   8.718
 4501W        W 5365   0.245   5.296  10.633
 4502W        W 5366   3.212   3.748   7.767
 4503W        W 5367   2.965   6.106   8.111
 4504W        W 5368   1.505   5.131   8.007
 4505W        W 5369   2.772   4.014   7.526
 4506W        W 5370   2.833   4.640   9.754
 4507W        W 5371   0.638   5.443   9.097
 4508W        W 5372   1.059   6.185   8.486
 4509W        W 5373   2.533   4.663   8.482
 4510W        W 5374   1.518   4.208   9.241
 4511W        W 5375   3.591   6.148   9.817
 4512W        W 5376   3.491   4.263   9.478
 4513W        W 5377   0.183   6.850   8.681
 4514W        W 5378   0.484   6.160   8.107
 4515W        W 5379   0.495   4.150  10.769
 4516W        W 5380   1.462   6.577  10.787
 4517W        W 5381   3.418   5.531   8.783
 4518W        W 5382   2.768   5.766   7.724
 4519W        W 5383   2.173   7.270   9.776
 4520W        W 5384   2.811   5.909  10.791
 4521W        W 5385   1.586   3.537   7.941
 4522W        W 5386   2.367   4.365   8.860
 4523W        W 5387   0.055   6.196   9.335
 4524W        W 5388   1.341   4.101   7.956
 4525W        W 5389   1.029   5.654  10.624
 4526W        W 5390   2.031   4.581   8.522
 4527W        W 5391   2.232   5.936   9.672
 4528W        W 5392   0.606   6.784  10.375
 4529W        W 5393   0.988   6.511  10.586
 4530W        W 5394   0.959   4.446   7.839
 4531W        W 5395   2.436   4.529   8.014
 4532W        W 5396   2.399   6.599  10.245
 4533W        W 5397   1.137   5.316   8.841
 4534W        W 5398   0.645   6.777   9.861
 4535W        W 5399   3.471   7.032   7.376
 4536W        W 5400   0.502   5.752  10.514
 4537W        W 5401   2.371   5.886   9.192
 4538W        W 5402   0.806   5.789   8.271
 4539W        W 5403   1.124   6.714   9.635
 4540W        W 5404   1.462   3.975   8.734
 4541W        W 5405   0.123   6.059   7.753
 4542W        W 5406   1.687   4.881   7.548
 4543W        W 5407   0.522   5.505   8.586
 4544W        W 5408   1.599   4.246  10.175
 4545W        W 5409   3.264   3.964   7.297
 4546W        W 5410   3.251   5.626  10.568
 4547W        W 5411   2.080   7.017  10.717
 4548W        W 5412   3.543   5.935  10.279
 4549W        W 5413   2.988   6.676  10.780
 4550W        W 5414   0.786   7.093   9.474
 4551W        W 5415   3.529   5.915   8.472
 4552W        W 5416   2.062   5.084   8.689
 4553W        W 5417   1.844   3.738   8.365
 4554W        W 5418   1.065   6.713   8.508
 4555W        W 5419   1.466   4.446   9.709
 4556W        W 5420   1.287   3.720   9.150
 4557W        W 5421   0.535   7.261   7.496
 4558W        W 5422   2.104   5.978   8.469
 4559W        W 5423   1.103   6.776  10.146
 4560W        W 5424   0.426   5.675   7.950
 4561W        W 5425   0.138   4.286   9.090
 4562W        W 5426   1.827   6.075   8.998
 4563W        W 5427   0.170   3.965   8.024
 4564W        W 5428   2.673   5.127   9.882
 4565W        W 5429   2.698   4.524   7.574
 4566W        W 5430   3.246   6.129   9.441
 4567W        W 5431   1.901   6.587   9.084
 4568W        W 5432   1.210   6.855   8.044
 4569W        W 5433   2.378   3.690   7.450
 4570W        W 5434   0.369   6.929   9.174
 4571W        W 5435   2.335   4.674  10.630
 4572W        W 5436   0.343   4.614  11.048
 4573W        W 5437   0.341   4.895   8.304
 4574W        W 5438   1.011   5.000   7.836
 4575W        W 5439   2.325   5.242  10.541
 4576W        W 5440   1.098   5.647   9.259
 4577W        W 5441   2.573   3.687   8.368
 4578W        W 5442   1.635   7.069   8.998
 4579W        W 5443   2.738   6.573   9.814
 4580W        W 5444   2.576   6.728   9.000
 4581W        W 5445   2.530   5.784   8.713
 4582W        W 5446   1.832   3.999   7.878
 4583W        W 5447   3.498   3.685   8.527
 4584W        W 5448   1.114   5.207   7.344
 4585W        W 5449   3.278   4.564   8.546
 4586W        W 5450   2.003   5.700   7.559
 4587W        W 5451   2.986   5.925  10.237
 4588W        W 5452   2.682   6.872   7.490
 4589W        W 5453   1.432   4.565  10.579
 4590W        W 5454   1.244   4.917   9.681
 4591W        W 5455   3.236   6.367  10.158
 4592W        W 5456   2.265   4.250  10.260
 4593W        W 5457   0.100   4.942  10.293
 4594W        W 5458   1.844   5.312   9.708
 4595W        W 5459   0.447   6.021   8.620
 4596W        W 5460   0.442   5.256   9.546
 4597W        W 5461   2.620   5.657   9.894
 4598W        W 5462   2.587   6.990  10.561
 4599W        W 5463   2.418   4.718  10.097
 4600W        W 5464   2.781   7.032   8.594
 4601W        W 5465   1.707   6.691   9.925
 4602W        W 5466   1.102   6.819   9.134
 4603W        W 5467   2.746   6.075   9.583
 4604W        W 5468   1.802   6.145  10.837
 4605W        W 5469   0.564   5.997   9.156
 4606W        W 5470   3.033   5.871   8.593
 4607W        W 5471   2.563   6.968   9.485
 4608W        W 5472   0.694   6.579   9.364
 4609W        W 5473   1.799   4.811  10.906
 4610W        W 5474   1.730   6.793   7.978
 4611W        W 5475   1.296   6.089  10.728
 4612W        W 5476   1.450   6.463   8.281
 4613W        W 5477   0.587   5.023   7.377
 4614W        W 5478   0.208   7.392  14.356
 4615W        W 5479   0.514   6.225  13.845
 4616W        W 5480   3.040   5.922  11.960
 4617W        W 5481   3.458   7.042  13.686
 4618W        W 5482   1.141   6.987  11.154
 4619W        W 5483   1.285   5.123  12.003
 4620W        W 5484   0.698   5.005  12.290
 4621W        W 5485   1.741   5.825  11.671
 4622W        W 5486   1.620   7.010  13.949
 4623W        W 5487   0.306   4.498  13.930
 4624W        W 5488   0.802   3.611  13.690
 4625W        W 5489   2.616   4.054  12.713
 4626W        W 5490   2.153   4.869  11.307
 4627W        W 5491   2.793   4.408  14.282
 4628W        W 5492   0.199   4.218  13.463
 4629W        W 5493   0.389   6.914  14.446
 4630W        W 5494   1.423   6.148  11.247
 4631W        W 5495   0.237   4.938  12.986
 4632W        W 5496   1.064   4.965  14.206
 4633W        W 5497   3.387   4.521  12.716
 4634W        W 5498   3.283   5.779  13.526
 4635W        W 5499   1.595   5.075  12.437
 4636W        W 5500   2.405   6.429  12.994
 4637W        W 5501   0.695   5.884  13.178
 4638W        W 5502   0.060   5.399  12.855
 4639W        W 5503   1.193   5.430  13.906
 4640W        W 5504   3.271   5.104  14.171
 4641W        W 5505   0.971   6.605  12.522
 4642W        W 5506   2.057   6.253  13.581
 4643W        W 5507   1.285   4.832  12.826
 4644W        W 5508   1.487   5.669  12.528
 4645W        W 5509   2.412   6.400  14.302
 4646W        W 5510   1.513   5.642  14.243
 4647W        W 5511   1.696   5.406  13.777
 4648W        W 5512   0.067   4.859  14.477
 4649W        W 5513   2.846   6.426  14.017
 4650W        W 5514   0.554   3.944  12.016
 4651W        W 5515   1.040   6.286  13.116
 4652W        W 5516   3.408   6.095  12.695
 4653W        W 5517   2.967   4.354  12.980
 4654W        W 5518   3.187   4.416  10.992
 4655W        W 5519   3.638   5.069  13.398
 4656W        W 5520   1.725   6.891  13.094
 4657W        W 5521   3.317   6.612  11.457
 4658W        W 5522   0.541   7.320  11.559
 4659W        W 5523   0.918   7.143  11.981
 4660W        W 5524   3.145   4.906  13.668
 4661W        W 5525   2.545   5.330  12.257
 4662W        W 5526   2.502   5.040  10.971
 4663W        W 5527   1.928   6.157  13.096
 4664W        W 5528   1.606   4.550  12.340
 4665W        W 5529   2.230   6.736  13.363
 4666W        W 5530   3.070   5.425  12.136
 4667W        W 5531   2.163   4.081  11.797
 4668W        W 5532   0.753   6.832  11.511
 4669W        W 5533   0.236   4.269  12.219
 4670W        W 5534   2.511   4.976  12.669
 4671W        W 5535   0.447   6.560  12.541
 4672W        W 5536   1.511   6.656  11.301
 4673W        W 5537   2.976   4.871  10.864
 4674W        W 5538   0.230   6.684  13.206
 4675W        W 5539   1.013   6.353  13.645
 4676W        W 5540   1.158   5.620  12.111
 4677W        W 5541   1.468   3.984  13.347
 4678W        W 5542   3.488   3.854  12.697
 4679W        W 5543   0.673   5.614  10.996
 4680W        W 5544   0.620   4.779  11.442
 4681W        W 5545   0.752   6.617  12.043
 4682W        W 5546   1.497   6.020  12.132
 4683W        W 5547   3.007   6.888  13.850
 4684W        W 5548   1.873   4.476  11.547
 4685W        W 5549   3.147   7.251  12.479
 4686W        W 5550   2.793   4.884  14.054
 4687W        W 5551   3.577   6.506  12.397
 4688W        W 5552   2.177   5.727  13.645
 4689W        W 5553   0.473   5.270  11.510
 4690W        W 5554   1.154   5.882  13.444
 4691W        W 5555   2.261   4.999  11.788
 4692W        W 5556   2.150   5.490  11.924
 4693W        W 5557   0.677   4.935  13.266
 4694W        W 5558   0.542   4.921  14.228
 4695W        W 5559   0.395   3.843  12.503
 4696W        W 5560   2.121   3.997  12.869
 4697W        W 5561   1.922   4.236  14.200
 4698W        W 5562   2.398   4.109  11.329
 4699W        W 5563   3.459   6.835  14.177
 4700W        W 5564   2.221   3.788  14.165
 4701W        W 5565   3.248   6.177  14.229
 4702W        W 5566   2.832   4.456  13.747
 4703W        W 5567   2.445   4.252  12.209
 4704W        W 5568   2.830   5.349  14.304
 4705W        W 5569   0.655   7.028  12.412
 4706W        W 5570   1.426   4.649  11.803
 4707W        W 5571   1.030   4.062  14.057
 4708W        W 5572   2.840   4.595  11.893
 4709W        W 5573   3.226   4.957  11.886
 4710W        W 5574   1.290   7.192  14.290
 4711W        W 5575   1.080   3.668  11.389
 4712W        W 5576   3.107   4.124  12.525
 4713W        W 5577   3.507   6.434  10.997
 4714W        W 5578   0.429   5.766  12.740
 4715W        W 5579   2.371   4.159  10.757
 4716W        W 5580   3.447   6.577  12.893
 4717W        W 5581   3.354   3.792  13.383
 4718W        W 5582   1.919   4.881  13.990
 4719W        W 5583   1.924   6.212  11.347
 4720W        W 5584   2.385   5.524  14.523
 4721W        W 5585   2.275   3.760  12.410
 4722W        W 5586   0.782   4.769  12.760
 4723W        W 5587   0.382   5.753  13.614
 4724W        W 5588   2.110   6.927  12.379
 4725W        W 5589   3.290   4.729  13.207
 4726W        W 5590   2.105   7.078  13.788
 4727W        W 5591   3.195   5.728  11.082
 4728W        W 5592   1.661   5.496  12.075
 4729W        W 5593   3.505   3.770  13.879
 4730W        W 5594   1.726   5.775  13.401
 4731W        W 5595   1.776   4.819  12.956
 4732W        W 5596   2.750   5.135  11.842
 4733W        W 5597   2.689   4.867  11.428
 4734W        W 5598   2.984   6.815  11.787
 4735W        W 5599   2.720   6.224  12.619
 4736W        W 5600   2.441   5.319  11.434
 4737W        W 5601   2.041   5.598  12.435
 4738W        W 5602   2.975   5.355  12.666
 4739W        W 5603   0.451   4.491  13.103
 4740W        W 5604   3.030   5.398  13.823
 4741W        W 5605   3.537   7.010  13.162
 4742W        W 5606   1.490   6.653  12.551
 4743W        W 5607   2.585   7.053  13.589
 4744W        W 5608   2.436   4.317  13.433
 4745W        W 5609   1.633   7.213  13.475
 4746W        W 5610   3.174   4.072  12.009
 4747W        W 5611   3.168   5.303  13.335
 4748W        W 5612   0.215   4.790  13.491
 4749W        W 5613   2.772   4.515  12.516
 4750W        W 5614   3.226   4.582  14.060
 4751W        W 5615   2.261   6.340  12.397
 4752W        W 5616   1.586   6.959  12.134
 4753W        W 5617   0.579   4.217  11.305
 4754W        W 5618   1.754   3.679  13.054
 4755W        W 5619   0.701   6.805  10.898
 4756W        W 5620   0.916   5.526  11.449
 4757W        W 5621   1.787   5.929  13.890
 4758W        W 5622   1.678   4.211  11.943
 4759W        W 5623   2.774   3.842  12.264
 4760W        W 5624   2.636   7.233  12.657
 4761W        W 5625   2.197   6.966  12.895
 4762W        W 5626   1.430   5.911  13.001
 4763W        W 5627   3.261   6.650  13.392
 4764W        W 5628   0.931   4.073  11.678
 4765W        W 5629   1.510   6.431  13.009
 4766W        W 5630   1.068   4.114  11.102
 4767W        W 5631   1.808   4.826  13.484
 4768W        W 5632   2.532   3.756  13.148
 4769W        W 5633   0.142   5.823  13.170
 4770W        W 5634   1.526   5.283  11.098
 4771W        W 5635   0.703   3.747  11.035
 4772W        W 5636   1.768   5.020  11.893
 4773W        W 5637   2.457   3.857  13.681
 4774W        W 5638   1.299   6.002  13.935
 4775W        W 5639   2.003   5.498  14.170
 4776W        W 5640   2.549   5.573  13.943
 4777W        W 5641   1.932   3.964  14.649
 4778W        W 5642   1.165   4.357  12.644
 4779W        W 5643   0.730   4.454  12.289
 4780W        W 5644   0.409   6.988  11.930
 4781W        W 5645   1.912   6.420  14.057
 4782W        W 5646   0.877   6.032  11.326
 4783W        W 5647   2.473   5.501  12.725
 4784W        W 5648   2.717   5.213  13.094
 4785W        W 5649   1.882   5.671  12.917
 4786W        W 5650   2.300   6.053  10.992
 4787W        W 5651   1.964   4.164  12.376
 4788W        W 5652   3.325   4.453  11.707
 4789W        W 5653   0.350   7.163  13.923
 4790W        W 5654   0.590   6.358  13.369
 4791W        W 5655   0.049   7.184  11.571
 4792W        W 5656   1.998   4.413  13.187
 4793W        W 5657   1.045   6.473  11.106
 4794W        W 5658   3.164   7.124  11.401
 4795W        W 5659   1.916   5.333  11.490
 4796W        W 5660   0.914   4.757  11.878
 4797W        W 5661   2.071   4.415  11.076
 4798W        W 5662   2.240   5.949  14.129
 4799W        W 5663   2.698   4.077  11.789
 4800W        W 5664   0.220   3.837  11.169
 4801W        W 5665   1.526   6.242  13.502
 4802W        W 5666   1.277   6.176  12.583
 4803W        W 5667   0.779   6.093  10.827
 4804W        W 5668   0.231   6.645  11.579
 4805W        W 5669   0.725   5.378  14.095
 4806W        W 5670   1.457   4.050  14.342
 4807W        W 5671   1.978   3.950  13.468
 4808W        W 5672   1.369   3.799  11.926
 4809W        W 5673   2.198   3.632  11.495
 4810W        W 5674   0.383   3.913  13.044
 4811W        W 5675   0.341   4.708  12.511
 4812W        W 5676   3.035   3.791  12.945
 4813W        W 5677   0.543   4.413  11.800
 4814W        W 5678   2.888   4.052  13.390
 4815W        W 5679   3.352   5.237  10.947
 4816W        W 5680   0.684   4.217  12.746
 4817W        W 5681   1.977   4.405  13.715
 4818W        W 5682   0.024   4.291  11.237
 4819W        W 5683   0.833   5.827  13.852
 4820W        W 5684   2.056   5.204  12.791
 4821W        W 5685   1.875   7.076  11.266
 4822W        W 5686   0.197   5.466  11.112
 4823W        W 5687   0.926   6.278  14.138
 4824W        W 5688   0.439   5.224  13.682
 4825W        W 5689   1.354   5.410  13.387
 4826W        W 5690   2.979   3.725  13.775
 4827W        W 5691   3.545   5.407  13.786
 4828W        W 5692   3.073   5.493  11.620
 4829W        W 5693   2.218   5.775  11.449
 4830W        W 5694   2.873   7.149  10.976
 4831W        W 5695   2.024   5.112  14.560
 4832W        W 5696   0.252   6.139  14.576
 4833W        W 5697   3.697   4.170  14.435
 4834W        W 5698   2.999   4.865  12.820
 4835W        W 5699   1.790   7.274  14.367
 4836W        W 5700   1.486   3.813  11.096
 4837W        W 5701   3.033   6.253  11.119
 4838W        W 5702   0.821   4.530  14.049
 4839W        W 5703   1.406   6.518  13.944
 4840W        W 5704   3.300   4.235  13.661
 4841W        W 5705   2.701   7.313  11.486
 4842W        W 5706   2.795   5.824  12.959
 4843W        W 5707   0.982   4.071  13.510
 4844W        W 5708   1.572   5.134  14.281
 4845W        W 5709   1.055   6.414  11.635
 4846W        W 5710   2.624   5.642  11.824
 4847W        W 5711   0.662   4.501  13.562
 4848W        W 5712   1.796   6.465  12.185
 4849W        W 5713   3.393   4.973  12.476
 4850W        W 5714   1.769   3.781  13.944
 4851W        W 5715   2.937   6.479  13.013
 4852W        W 5716   3.109   6.967  12.883
 4853W        W 5717   1.932   6.618  11.005
 4854W        W 5718   0.227   6.468  14.189
 4855W        W 5719   0.979   4.477  13.142
 4856W        W 5720   0.928   3.957  12.365
 4857W        W 5721   2.452   4.511  12.933
 4858W        W 5722   1.230   5.709  11.098
 4859W        W 5723   3.294   5.684  12.990
 4860W        W 5724   0.634   6.472  14.495
 4861W        W 5725   3.080   7.313  11.910
 4862W        W 5726   1.168   4.308  12.067
 4863W        W 5727   0.699   5.566  12.337
 4864W        W 5728   1.115   7.198  13.340
 4865W        W 5729   3.197   7.274  14.228
 4866W        W 5730   2.294   5.479  13.206
 4867W        W 5731   0.546   5.093  11.022
 4868W        W 5732   3.335   6.903  12.166
 4869W        W 5733   2.895   4.380  11.427
 4870W        W 5734   1.288   3.727  13.772
 4871W        W 5735   3.073   6.612  12.513
 4872W        W 5736   2.916   4.967  12.311
 4873W        W 5737   1.147   4.765  12.337
 4874W        W 5738   1.416   4.966  13.806
 4875W        W 5739   2.519   6.132  13.749
 4876W        W 5740   1.165   4.533  13.659
 4877W        W 5741   1.187   7.067  12.448
 4878W        W 5742   0.774   7.149  14.217
 4879W        W 5743   0.522   6.409  11.198
 4880W        W 5744   3.205   6.418  12.047
 4881W        W 5745   0.880   4.969  13.739
 4882W        W 5746   3.193   4.825  11.342
 4883W        W 5747   1.220   5.913  11.689
 4884W        W 5748   2.157   5.211  13.658
 4885W        W 5749   2.266   4.929  13.216
 4886W        W 5750   0.860   5.445  13.502
 4887W        W 5751   3.051   7.119  13.363
 4888W        W 5752   2.727   3.884  14.215
 4889W        W 5753   0.557   4.051  13.825
 4890W        W 5754   0.973   5.266  13.010
 4891W        W 5755   1.291   4.797  11.032
 4892W        W 5756   0.223   6.706  13.716
 4893W        W 5757   1.484   5.309  12.891
 4894W        W 5758   1.561   4.340  11.051
 4895W        W 5759   0.821   5.276  11.883
 4896W        W 5760   0.380   7.234  13.407
 4897W        W 5761   2.895   5.289  11.193
 4898W        W 5762   3.209   4.075  14.161
 4899W        W 5763   2.709   6.477  12.151
 4900W        W 5764   0.244   5.336  14.338
 4901W        W 5765   3.180   3.939  11.489
 4902W        W 5766   2.916   6.308  11.627
 4903W        W 5767   1.414   5.428  11.598
 4904W        W 5768   2.807   4.071  11.027
 4905W        W 5769   2.765   4.727  13.301
 4906W        W 5770   0.543   5.242  12.703
 4907W        W 5771   0.978   6.133  12.144
 4908W        W 5772   2.468   4.775  12.192
 4909W        W 5773   1.672   4.287  12.796
 4910W        W 5774   3.722   6.129  13.512
 4911W        W 5775   3.465   4.237  13.144
 4912W        W 5776   0.141   6.937  12.371
 4913W        W 5777   0.557   6.252  11.709
 4914W        W 5778   0.592   4.156  14.338
 4915W        W 5779   1.594   6.747  14.379
 4916W        W 5780   3.430   5.527  12.488
 4917W        W 5781   2.742   5.808  11.331
 4918W        W 5782   2.129   7.252  13.321
 4919W        W 5783   2.713   5.888  14.344
 4920W        W 5784   1.673   3.598  11.563
 4921W        W 5785   2.093   4.646  12.564
 4922W        W 5786   0.340   6.247  12.949
 4923W        W 5787   1.418   4.127  11.511
 4924W        W 5788   1.005   5.826  14.354
 4925W        W 5789   2.030   4.577  12.034
 4926W        W 5790   2.396   5.987  13.262
 4927W        W 5791   0.656   6.703  14.003
 4928W        W 5792   1.079   6.722  14.350
 4929W        W 5793   1.070   4.513  11.434
 4930W        W 5794   2.392   4.514  11.647
 4931W        W 5795   2.363   6.632  13.852
 4932W        W 5796   1.107   5.261  12.502
 4933W        W 5797   0.731   6.843  13.492
 4934W        W 5798   3.392   6.935  11.000
 4935W        W 5799   0.477   5.818  14.240
 4936W        W 5800   2.278   5.972  12.758
 4937W        W 5801   0.716   5.785  11.862
 4938W        W 5802   1.300   6.716  13.416
 4939W        W 5803   1.463   4.033  12.376
 4940W        W 5804   0.104   6.168  11.423
 4941W        W 5805   1.630   4.902  11.407
 4942W        W 5806   0.336   5.430  11.995
 4943W        W 5807   1.511   4.196  13.818
 4944W        W 5808   3.301   3.914  10.984
 4945W        W 5809   3.267   5.637  14.210
 4946W        W 5810   2.095   6.869  14.249
 4947W        W 5811   3.616   5.916  13.948
 4948W        W 5812   2.974   6.816  14.371
 4949W        W 5813   0.802   7.225  12.882
 4950W        W 5814   3.501   6.026  12.207
 4951W        W 5815   2.086   5.098  12.285
 4952W        W 5816   1.879   3.741  12.049
 4953W        W 5817   1.276   6.546  12.096
 4954W        W 5818   1.485   4.491  13.245
 4955W        W 5819   1.321   3.883  12.847
 4956W        W 5820   0.339   6.972  11.205
 4957W        W 5821   2.015   5.980  12.092
 4958W        W 5822   1.104   6.930  13.856
 4959W        W 5823   0.440   5.790  11.433
 4960W        W 5824   0.160   4.288  12.742
 4961W        W 5825   1.796   6.085  12.578
 4962W        W 5826   0.192   4.060  11.665
 4963W        W 5827   2.659   5.135  13.605
 4964W        W 5828   2.565   4.536  11.074
 4965W        W 5829   3.336   6.176  13.192
 4966W        W 5830   1.952   6.551  12.746
 4967W        W 5831   1.272   6.892  11.693
 4968W        W 5832   2.386   3.693  10.985
 4969W        W 5833   0.335   7.032  12.844
 4970W        W 5834   2.291   4.661  14.310
 4971W        W 5835   0.509   4.579  14.607
 4972W        W 5836   0.379   4.911  11.904
 4973W        W 5837   1.100   5.035  11.468
 4974W        W 5838   2.358   5.137  14.128
 4975W        W 5839   1.004   5.716  12.752
 4976W        W 5840   2.448   3.635  11.935
 4977W        W 5841   1.689   7.123  12.623
 4978W        W 5842   2.743   6.576  13.499
 4979W        W 5843   2.567   6.723  12.609
 4980W        W 5844   2.503   5.851  12.301
 4981W        W 5845   1.893   4.007  11.331
 4982W        W 5846   3.517   3.721  12.167
 4983W        W 5847   1.036   5.243  10.954
 4984W        W 5848   3.215   4.543  12.233
 4985W        W 5849   1.785   5.732  11.152
 4986W        W 5850   2.949   5.904  13.891
 4987W        W 5851   2.842   6.728  11.281
 4988W        W 5852   1.371   4.557  14.149
 4989W        W 5853   1.207   4.925  13.326
 4990W        W 5854   3.266   6.270  13.724
 4991W        W 5855   2.402   4.265  13.976
 4992W        W 5856   0.106   4.966  13.970
 4993W        W 5857   1.833   5.277  13.262
 4994W        W 5858   0.485   6.047  12.272
 4995W        W 5859   0.475   5.414  13.174
 4996W        W 5860   2.738   5.623  13.453
 4997W        W 5861   2.581   7.065  14.108
 4998W        W 5862   2.373   4.739  13.753
 4999W        W 5863   2.782   7.002  12.221
 5000W        W 5864   1.783   6.691  13.596
 5001W        W 5865   1.207   6.869  12.930
 5002W        W 5866   2.887   6.104  13.394
 5003W        W 5867   1.807   6.026  14.392
 5004W        W 5868   0.767   6.166  12.688
 5005W        W 5869   3.014   5.833  12.470
 5006W        W 5870   2.651   6.915  13.099
 5007W        W 5871   0.712   6.682  12.975
 5008W        W 5872   1.776   4.670  14.440
 5009W        W 5873   1.813   6.786  11.707
 5010W        W 5874   1.362   6.265  14.407
 5011W        W 5875   1.563   6.326  11.719
 5012W        W 5876   0.835   4.557  10.956
 5013W        W 5877   0.179   7.427  17.987
 5014W        W 5878   0.547   6.326  17.632
 5015W        W 5879   3.084   6.036  15.530
 5016W        W 5880   3.370   7.007  17.346
 5017W        W 5881   1.365   7.032  14.780
 5018W        W 5882   1.192   4.968  15.630
 5019W        W 5883   0.819   4.833  15.952
 5020W        W 5884   1.637   5.642  15.153
 5021W        W 5885   1.626   6.910  17.708
 5022W        W 5886   0.341   4.501  17.677
 5023W        W 5887   0.837   3.611  17.531
 5024W        W 5888   2.548   4.059  16.354
 5025W        W 5889   2.293   4.857  15.047
 5026W        W 5890   2.854   4.433  18.021
 5027W        W 5891   0.253   4.135  17.109
 5028W        W 5892   0.350   6.933  18.114
 5029W        W 5893   1.801   6.084  14.913
 5030W        W 5894   0.160   4.885  16.690
 5031W        W 5895   1.150   5.024  17.841
 5032W        W 5896   3.325   4.454  16.415
 5033W        W 5897   3.248   5.663  17.217
 5034W        W 5898   1.654   5.109  16.389
 5035W        W 5899   2.217   6.559  16.689
 5036W        W 5900   0.556   5.729  16.835
 5037W        W 5901   0.015   5.244  16.327
 5038W        W 5902   1.102   5.447  17.542
 5039W        W 5903   3.359   5.101  17.776
 5040W        W 5904   0.947   6.464  16.176
 5041W        W 5905   2.075   6.263  17.284
 5042W        W 5906   1.392   4.731  16.626
 5043W        W 5907   1.467   5.579  16.283
 5044W        W 5908   2.321   6.567  18.068
 5045W        W 5909   1.666   5.746  18.137
 5046W        W 5910   1.608   5.528  17.656
 5047W        W 5911   0.153   4.857  18.077
 5048W        W 5912   2.774   6.358  17.852
 5049W        W 5913   0.485   3.868  15.827
 5050W        W 5914   0.908   6.130  16.714
 5051W        W 5915   3.470   6.097  16.288
 5052W        W 5916   2.861   4.291  16.677
 5053W        W 5917   3.223   4.368  14.584
 5054W        W 5918   3.664   5.153  17.082
 5055W        W 5919   1.501   6.788  16.832
 5056W        W 5920   3.394   6.696  15.111
 5057W        W 5921   0.484   7.335  15.343
 5058W        W 5922   0.896   7.171  15.631
 5059W        W 5923   0.702   3.888  17.121
 5060W        W 5924   3.284   4.899  17.326
 5061W        W 5925   2.401   5.251  15.921
 5062W        W 5926   2.536   5.040  14.601
 5063W        W 5927   1.788   6.311  16.822
 5064W        W 5928   1.690   4.517  16.229
 5065W        W 5929   2.144   6.755  17.163
 5066W        W 5930   2.869   5.487  15.905
 5067W        W 5931   2.162   4.086  15.491
 5068W        W 5932   0.690   6.824  15.309
 5069W        W 5933   0.116   4.249  15.812
 5070W        W 5934   2.545   4.968  16.325
 5071W        W 5935   0.407   6.499  16.132
 5072W        W 5936   1.528   6.528  14.844
 5073W        W 5937   3.007   4.835  14.528
 5074W        W 5938   0.327   6.747  16.944
 5075W        W 5939   1.021   6.377  17.413
 5076W        W 5940   1.212   5.724  15.848
 5077W        W 5941   1.370   4.052  16.974
 5078W        W 5942   3.537   3.913  16.438
 5079W        W 5943   0.674   5.491  14.600
 5080W        W 5944   0.478   4.716  15.095
 5081W        W 5945   0.519   6.465  15.616
 5082W        W 5946   1.346   6.225  15.884
 5083W        W 5947   2.961   6.840  17.660
 5084W        W 5948   1.930   4.571  15.333
 5085W        W 5949   3.245   7.127  16.332
 5086W        W 5950   2.829   4.843  17.699
 5087W        W 5951   3.666   6.538  16.025
 5088W        W 5952   2.211   5.780  17.386
 5089W        W 5953   0.297   5.135  15.328
 5090W        W 5954   0.989   5.825  17.113
 5091W        W 5955   2.099   4.994  15.571
 5092W        W 5956   1.931   5.494  15.565
 5093W        W 5957   0.669   4.826  16.893
 5094W        W 5958   0.641   4.935  17.894
 5095W        W 5959   0.711   3.731  16.306
 5096W        W 5960   2.253   4.206  16.748
 5097W        W 5961   1.959   4.276  17.892
 5098W        W 5962   2.421   4.158  15.028
 5099W        W 5963   3.449   6.760  17.829
 5100W        W 5964   2.326   3.736  17.785
 5101W        W 5965   3.264   6.243  17.943
 5102W        W 5966   2.915   4.308  17.530
 5103W        W 5967   2.491   4.230  15.880
 5104W        W 5968   2.928   5.301  17.967
 5105W        W 5969   0.710   6.895  16.018
 5106W        W 5970   1.407   4.619  15.299
 5107W        W 5971   1.013   3.929  17.895
 5108W        W 5972   2.872   4.515  15.668
 5109W        W 5973   3.121   4.900  15.450
 5110W        W 5974   1.176   7.125  17.830
 5111W        W 5975   0.999   3.700  15.096
 5112W        W 5976   3.067   4.037  16.265
 5113W        W 5977   3.367   6.519  14.606
 5114W        W 5978   0.328   5.670  16.364
 5115W        W 5979   2.366   4.180  14.481
 5116W        W 5980   3.501   6.577  16.512
 5117W        W 5981   3.462   3.806  17.140
 5118W        W 5982   1.971   5.128  17.678
 5119W        W 5983   1.829   6.033  15.443
 5120W        W 5984   2.545   5.528  18.225
 5121W        W 5985   2.211   3.718  16.576
 5122W        W 5986   0.839   4.483  16.346
 5123W        W 5987   0.407   5.882  17.301
 5124W        W 5988   2.289   6.961  16.359
 5125W        W 5989   3.397   4.808  16.808
 5126W        W 5990   2.116   7.040  17.584
 5127W        W 5991   3.142   5.882  14.648
 5128W        W 5992   1.538   5.273  15.858
 5129W        W 5993   3.693   3.823  17.609
 5130W        W 5994   1.750   5.882  17.121
 5131W        W 5995   1.960   4.749  16.617
 5132W        W 5996   2.608   5.025  15.477
 5133W        W 5997   2.825   4.942  15.018
 5134W        W 5998   3.079   6.926  15.449
 5135W        W 5999   2.593   6.026  16.457
 5136W        W 6000   2.502   5.345  15.024
 5137W        W 6001   1.953   5.426  16.105
 5138W        W 6002   2.978   5.283  16.416
 5139W        W 6003   0.403   4.421  16.713
 5140W        W 6004   2.942   5.299  17.457
 5141W        W 6005   3.476   7.027  16.782
 5142W        W 6006   1.390   6.706  16.069
 5143W        W 6007   2.604   7.095  17.365
 5144W        W 6008   2.567   4.357  17.142
 5145W        W 6009   1.717   7.074  17.219
 5146W        W 6010   3.173   4.109  15.764
 5147W        W 6011   3.086   5.216  16.961
 5148W        W 6012   0.221   4.667  17.174
 5149W        W 6013   2.826   4.507  16.195
 5150W        W 6014   3.282   4.591  17.755
 5151W        W 6015   2.160   6.246  16.291
 5152W        W 6016   1.383   6.994  15.609
 5153W        W 6017   0.647   4.167  14.915
 5154W        W 6018   1.704   3.776  16.656
 5155W        W 6019   0.835   6.867  14.782
 5156W        W 6020   1.253   5.436  15.436
 5157W        W 6021   1.816   6.009  17.673
 5158W        W 6022   1.631   4.244  15.604
 5159W        W 6023   2.779   3.811  15.917
 5160W        W 6024   2.747   7.185  16.443
 5161W        W 6025   1.959   7.001  16.747
 5162W        W 6026   1.344   5.824  16.726
 5163W        W 6027   3.317   6.588  16.999
 5164W        W 6028   0.887   4.100  15.516
 5165W        W 6029   1.313   6.412  16.537
 5166W        W 6030   1.034   4.390  14.498
 5167W        W 6031   1.667   5.045  16.932
 5168W        W 6032   2.622   3.849  16.847
 5169W        W 6033   0.073   5.489  16.801
 5170W        W 6034   1.532   5.275  14.816
 5171W        W 6035   0.980   3.882  14.594
 5172W        W 6036   1.649   4.762  15.754
 5173W        W 6037   2.602   3.894  17.374
 5174W        W 6038   1.350   5.941  17.464
 5175W        W 6039   2.109   5.602  17.886
 5176W        W 6040   2.610   5.671  17.732
 5177W        W 6041   1.971   3.865  18.221
 5178W        W 6042   1.288   4.248  16.475
 5179W        W 6043   0.635   4.367  15.874
 5180W        W 6044   0.311   6.939  15.655
 5181W        W 6045   1.967   6.529  17.700
 5182W        W 6046   1.046   5.554  14.976
 5183W        W 6047   2.532   5.516  16.351
 5184W        W 6048   2.608   5.199  16.778
 5185W        W 6049   1.754   5.509  16.737
 5186W        W 6050   2.262   6.015  14.643
 5187W        W 6051   1.988   4.091  16.280
 5188W        W 6052   3.347   4.411  15.397
 5189W        W 6053   0.414   7.100  17.620
 5190W        W 6054   0.614   6.316  17.096
 5191W        W 6055   0.008   7.140  15.268
 5192W        W 6056   2.062   4.536  17.092
 5193W        W 6057   1.033   6.378  14.799
 5194W        W 6058   3.222   7.340  15.107
 5195W        W 6059   1.997   5.272  15.068
 5196W        W 6060   0.839   4.638  15.459
 5197W        W 6061   2.066   4.452  14.803
 5198W        W 6062   2.317   6.135  17.741
 5199W        W 6063   2.727   4.059  15.455
 5200W        W 6064   0.212   3.864  14.857
 5201W        W 6065   1.331   6.230  17.034
 5202W        W 6066   1.143   5.988  16.278
 5203W        W 6067   0.692   5.969  14.817
 5204W        W 6068   0.124   6.625  15.284
 5205W        W 6069   0.799   5.456  17.990
 5206W        W 6070   1.502   4.051  17.968
 5207W        W 6071   2.085   4.072  17.326
 5208W        W 6072   1.311   3.847  15.667
 5209W        W 6073   2.134   3.731  15.095
 5210W        W 6074   0.403   3.826  16.695
 5211W        W 6075   0.387   4.723  16.220
 5212W        W 6076   3.111   3.771  16.702
 5213W        W 6077   0.440   4.299  15.391
 5214W        W 6078   3.011   4.040  17.108
 5215W        W 6079   2.971   5.391  14.796
 5216W        W 6080   0.836   4.083  16.665
 5217W        W 6081   1.821   4.643  17.543
 5218W        W 6082   0.120   4.362  14.906
 5219W        W 6083   0.850   5.904  17.590
 5220W        W 6084   2.143   5.222  16.534
 5221W        W 6085   1.912   6.946  14.736
 5222W        W 6086   0.206   5.667  14.734
 5223W        W 6087   1.003   6.278  17.917
 5224W        W 6088   0.592   5.428  17.506
 5225W        W 6089   1.397   5.481  17.131
 5226W        W 6090   3.097   3.743  17.507
 5227W        W 6091   3.691   5.475  17.490
 5228W        W 6092   3.288   5.757  15.146
 5229W        W 6093   2.168   5.755  15.104
 5230W        W 6094   2.796   7.305  14.548
 5231W        W 6095   2.147   5.194  18.264
 5232W        W 6096   0.195   6.110  18.175
 5233W        W 6097   3.743   4.116  18.055
 5234W        W 6098   2.937   4.806  16.618
 5235W        W 6099   1.567   7.179  18.144
 5236W        W 6100   1.456   3.825  14.818
 5237W        W 6101   2.866   6.335  14.555
 5238W        W 6102   0.854   4.436  17.817
 5239W        W 6103   1.459   6.405  17.710
 5240W        W 6104   3.405   4.255  17.378
 5241W        W 6105   2.801   7.628  14.984
 5242W        W 6106   2.849   5.663  16.755
 5243W        W 6107   1.063   4.105  17.411
 5244W        W 6108   1.672   5.234  18.084
 5245W        W 6109   0.908   6.296  15.298
 5246W        W 6110   2.453   5.539  15.503
 5247W        W 6111   0.671   4.422  17.275
 5248W        W 6112   1.822   6.369  15.918
 5249W        W 6113   3.350   4.957  16.313
 5250W        W 6114   1.840   3.771  17.682
 5251W        W 6115   2.665   6.385  16.831
 5252W        W 6116   2.998   6.778  16.651
 5253W        W 6117   1.985   6.464  14.582
 5254W        W 6118   0.129   6.535  17.903
 5255W        W 6119   1.053   4.464  16.924
 5256W        W 6120   1.009   4.054  16.056
 5257W        W 6121   2.464   4.683  16.759
 5258W        W 6122   1.400   5.821  14.710
 5259W        W 6123   3.333   5.853  16.724
 5260W        W 6124   0.577   6.446  18.149
 5261W        W 6125   3.187   7.385  15.642
 5262W        W 6126   1.194   4.457  15.788
 5263W        W 6127   0.708   5.664  15.964
 5264W        W 6128   1.202   7.194  16.979
 5265W        W 6129   3.240   7.239  17.839
 5266W        W 6130   2.272   5.555  16.915
 5267W        W 6131   0.350   5.149  14.809
 5268W        W 6132   3.411   6.961  15.861
 5269W        W 6133   2.874   4.450  15.151
 5270W        W 6134   1.352   3.701  17.577
 5271W        W 6135   3.143   6.643  16.165
 5272W        W 6136   2.927   4.973  15.960
 5273W        W 6137   1.299   4.838  16.130
 5274W        W 6138   1.499   5.053  17.441
 5275W        W 6139   2.595   6.208  17.313
 5276W        W 6140   1.154   4.620  17.436
 5277W        W 6141   1.178   7.188  16.054
 5278W        W 6142   0.711   7.264  17.989
 5279W        W 6143   0.507   6.445  14.986
 5280W        W 6144   3.276   6.500  15.669
 5281W        W 6145   0.754   4.947  17.389
 5282W        W 6146   3.290   4.702  14.965
 5283W        W 6147   1.309   5.974  15.403
 5284W        W 6148   2.423   5.305  17.358
 5285W        W 6149   2.179   5.026  17.016
 5286W        W 6150   0.844   5.339  17.027
 5287W        W 6151   2.987   7.156  17.000
 5288W        W 6152   2.789   3.920  17.883
 5289W        W 6153   0.547   4.021  17.628
 5290W        W 6154   0.912   4.982  16.458
 5291W        W 6155   1.315   4.830  14.635
 5292W        W 6156   0.207   6.667  17.429
 5293W        W 6157   1.262   5.296  16.669
 5294W        W 6158   1.501   4.364  14.774
 5295W        W 6159   0.740   5.238  15.617
 5296W        W 6160   0.387   7.249  17.143
 5297W        W 6161   2.940   5.401  15.342
 5298W        W 6162   3.275   4.081  17.849
 5299W        W 6163   2.940   6.204  16.017
 5300W        W 6164   0.304   5.339  17.948
 5301W        W 6165   3.129   4.014  15.115
 5302W        W 6166   3.109   6.246  15.020
 5303W        W 6167   1.624   5.096  15.359
 5304W        W 6168   2.819   4.074  14.703
 5305W        W 6169   3.061   4.534  17.072
 5306W        W 6170   0.519   5.219  16.114
 5307W        W 6171   0.863   6.127  15.797
 5308W        W 6172   2.463   4.743  15.876
 5309W        W 6173   1.746   4.296  16.709
 5310W        W 6174   3.590   6.165  17.086
 5311W        W 6175   3.450   4.240  16.860
 5312W        W 6176   0.038   6.864  16.083
 5313W        W 6177   0.453   6.035  15.304
 5314W        W 6178   0.612   4.095  18.151
 5315W        W 6179   1.753   6.651  18.153
 5316W        W 6180   3.391   5.483  16.173
 5317W        W 6181   2.681   5.817  14.881
 5318W        W 6182   2.186   7.285  17.115
 5319W        W 6183   2.970   5.815  18.098
 5320W        W 6184   1.607   3.654  15.284
 5321W        W 6185   2.295   4.505  16.303
 5322W        W 6186   0.338   6.162  16.681
 5323W        W 6187   1.286   4.128  15.203
 5324W        W 6188   1.202   5.797  17.943
 5325W        W 6189   2.039   4.451  15.843
 5326W        W 6190   2.260   6.062  16.860
 5327W        W 6191   0.798   6.767  17.802
 5328W        W 6192   1.248   6.699  18.090
 5329W        W 6193   0.997   4.556  14.976
 5330W        W 6194   2.430   4.520  15.415
 5331W        W 6195   2.456   6.636  17.559
 5332W        W 6196   1.055   5.287  16.060
 5333W        W 6197   0.695   6.786  17.298
 5334W        W 6198   3.368   7.044  14.673
 5335W        W 6199   0.425   5.818  17.830
 5336W        W 6200   2.093   5.769  16.462
 5337W        W 6201   0.845   5.742  15.461
 5338W        W 6202   1.024   6.630  16.937
 5339W        W 6203   1.509   3.905  16.159
 5340W        W 6204   0.018   6.169  15.036
 5341W        W 6205   1.742   4.827  14.933
 5342W        W 6206   0.348   5.589  15.588
 5343W        W 6207   1.578   4.183  17.465
 5344W        W 6208   3.308   3.862  14.637
 5345W        W 6209   3.270   5.600  17.743
 5346W        W 6210   2.067   7.060  18.099
 5347W        W 6211   3.555   5.993  17.562
 5348W        W 6212   3.023   6.704  18.156
 5349W        W 6213   0.734   7.056  16.821
 5350W        W 6214   3.539   6.075  15.797
 5351W        W 6215   2.031   4.912  16.102
 5352W        W 6216   1.828   3.786  15.767
 5353W        W 6217   1.023   6.629  15.684
 5354W        W 6218   1.540   4.568  17.102
 5355W        W 6219   1.194   3.728  16.550
 5356W        W 6220   0.359   6.953  14.954
 5357W        W 6221   1.717   5.839  15.905
 5358W        W 6222   1.231   6.851  17.375
 5359W        W 6223   0.537   5.539  15.106
 5360W        W 6224   0.384   4.172  16.273
 5361W        W 6225   1.663   6.073  16.363
 5362W        W 6226   0.021   4.021  15.315
 5363W        W 6227   2.722   4.897  17.177
 5364W        W 6228   2.597   4.556  14.738
 5365W        W 6229   3.066   6.271  16.544
 5366W        W 6230   1.786   6.610  16.401
 5367W        W 6231   1.173   6.746  15.173
 5368W        W 6232   2.395   3.700  14.639
 5369W        W 6233   0.397   6.966  16.437
 5370W        W 6234   2.378   4.678  18.003
 5371W        W 6235   0.625   4.591  18.284
 5372W        W 6236   0.377   4.765  15.675
 5373W        W 6237   1.154   5.041  15.103
 5374W        W 6238   2.450   5.176  17.843
 5375W        W 6239   0.880   5.586  16.459
 5376W        W 6240   2.284   3.737  16.045
 5377W        W 6241   1.568   7.082  16.399
 5378W        W 6242   2.850   6.677  17.192
 5379W        W 6243   2.640   6.552  16.343
 5380W        W 6244   2.290   5.790  15.967
 5381W        W 6245   1.797   4.122  15.122
 5382W        W 6246   3.494   3.714  15.867
 5383W        W 6247   1.155   5.362  14.495
 5384W        W 6248   3.305   4.603  15.916
 5385W        W 6249   1.893   5.612  14.675
 5386W        W 6250   2.994   5.983  17.570
 5387W        W 6251   2.488   6.847  14.579
 5388W        W 6252   1.414   4.544  17.869
 5389W        W 6253   1.170   4.955  17.046
 5390W        W 6254   3.223   6.431  17.473
 5391W        W 6255   2.422   4.299  17.648
 5392W        W 6256   0.255   4.998  17.570
 5393W        W 6257   1.897   5.393  17.244
 5394W        W 6258   0.362   6.035  15.844
 5395W        W 6259   0.509   5.255  16.623
 5396W        W 6260   2.709   5.713  17.229
 5397W        W 6261   2.549   7.039  17.890
 5398W        W 6262   2.326   4.788  17.485
 5399W        W 6263   2.901   7.052  15.949
 5400W        W 6264   1.659   6.564  17.270
 5401W        W 6265   1.079   6.888  16.474
 5402W        W 6266   3.052   6.129  17.065
 5403W        W 6267   1.982   6.165  18.144
 5404W        W 6268   0.637   6.066  16.282
 5405W        W 6269   3.024   5.796  16.300
 5406W        W 6270   2.526   6.942  16.854
 5407W        W 6271   0.656   6.559  16.589
 5408W        W 6272   1.863   4.765  18.058
 5409W        W 6273   1.679   6.887  15.191
 5410W        W 6274   1.460   6.223  18.192
 5411W        W 6275   1.494   6.467  15.460
 5412W        W 6276   0.826   4.987  14.685
 5413W        W 6277   0.245   7.401  21.641
 5414W        W 6278   0.589   6.266  21.248
 5415W        W 6279   3.055   5.549  18.962
 5416W        W 6280   3.424   7.016  21.001
 5417W        W 6281   1.263   6.980  18.523
 5418W        W 6282   1.213   5.160  19.273
 5419W        W 6283   0.785   5.091  19.585
 5420W        W 6284   1.667   5.698  19.092
 5421W        W 6285   1.694   6.882  21.384
 5422W        W 6286   0.329   4.506  21.185
 5423W        W 6287   0.812   3.596  20.952
 5424W        W 6288   2.648   4.065  20.066
 5425W        W 6289   2.303   4.895  18.666
 5426W        W 6290   2.753   4.523  21.652
 5427W        W 6291   0.276   4.232  20.686
 5428W        W 6292   0.394   6.914  21.747
 5429W        W 6293   1.710   5.999  18.599
 5430W        W 6294   0.299   4.982  20.268
 5431W        W 6295   1.085   4.979  21.445
 5432W        W 6296   3.419   4.596  19.972
 5433W        W 6297   3.286   5.706  20.730
 5434W        W 6298   1.675   5.127  19.964
 5435W        W 6299   2.415   6.469  20.350
 5436W        W 6300   0.628   5.872  20.414
 5437W        W 6301   0.018   5.400  20.181
 5438W        W 6302   1.132   5.398  21.126
 5439W        W 6303   3.395   5.103  21.424
 5440W        W 6304   0.942   6.538  19.857
 5441W        W 6305   2.139   6.270  20.947
 5442W        W 6306   1.358   4.783  20.183
 5443W        W 6307   1.540   5.665  19.892
 5444W        W 6308   2.421   6.477  21.734
 5445W        W 6309   1.671   5.699  21.724
 5446W        W 6310   1.639   5.493  21.246
 5447W        W 6311   0.119   4.897  21.790
 5448W        W 6312   2.849   6.367  21.454
 5449W        W 6313   0.514   3.988  19.372
 5450W        W 6314   0.978   6.245  20.312
 5451W        W 6315   3.484   6.075  19.783
 5452W        W 6316   3.091   4.300  20.244
 5453W        W 6317   3.325   4.385  18.261
 5454W        W 6318   3.685   5.099  20.631
 5455W        W 6319   1.647   6.844  20.453
 5456W        W 6320   3.401   6.555  18.859
 5457W        W 6321   0.534   7.443  18.937
 5458W        W 6322   0.847   7.275  19.317
 5459W        W 6323   0.807   3.980  20.597
 5460W        W 6324   3.276   4.893  20.943
 5461W        W 6325   2.504   5.301  19.582
 5462W        W 6326   2.639   5.017  18.293
 5463W        W 6327   1.918   6.370  20.446
 5464W        W 6328   1.640   4.491  19.767
 5465W        W 6329   2.238   6.733  20.755
 5466W        W 6330   3.001   5.396  19.453
 5467W        W 6331   2.171   4.059  19.096
 5468W        W 6332   0.809   6.932  18.925
 5469W        W 6333   0.182   4.356  19.505
 5470W        W 6334   2.533   4.936  19.930
 5471W        W 6335   0.431   6.511  19.805
 5472W        W 6336   1.467   6.510  18.676
 5473W        W 6337   3.122   4.870  18.188
 5474W        W 6338   0.302   6.760  20.549
 5475W        W 6339   1.055   6.364  21.003
 5476W        W 6340   1.241   5.659  19.436
 5477W        W 6341   1.384   4.028  20.656
 5478W        W 6342   3.593   3.820  20.108
 5479W        W 6343   0.809   5.509  18.535
 5480W        W 6344   0.589   4.825  18.776
 5481W        W 6345   0.601   6.586  19.306
 5482W        W 6346   1.509   6.081  19.455
 5483W        W 6347   2.985   6.815  21.199
 5484W        W 6348   1.909   4.582  18.887
 5485W        W 6349   3.186   7.236  19.792
 5486W        W 6350   2.913   4.930  21.326
 5487W        W 6351   3.671   6.549  19.660
 5488W        W 6352   2.238   5.778  21.022
 5489W        W 6353   0.241   5.159  18.938
 5490W        W 6354   1.066   5.931  20.694
 5491W        W 6355   2.127   4.963  19.149
 5492W        W 6356   2.101   5.452  19.290
 5493W        W 6357   0.791   4.925  20.539
 5494W        W 6358   0.579   4.926  21.554
 5495W        W 6359   0.424   3.788  19.831
 5496W        W 6360   2.244   4.157  20.409
 5497W        W 6361   1.881   4.196  21.487
 5498W        W 6362   2.414   4.095  18.638
 5499W        W 6363   3.424   6.683  21.439
 5500W        W 6364   2.232   3.816  21.402
 5501W        W 6365   3.302   6.143  21.542
 5502W        W 6366   2.872   4.414  21.145
 5503W        W 6367   2.528   4.247  19.424
 5504W        W 6368   2.997   5.387  21.618
 5505W        W 6369   0.667   6.946  19.671
 5506W        W 6370   1.410   4.703  18.994
 5507W        W 6371   0.907   3.819  21.414
 5508W        W 6372   2.884   4.569  19.190
 5509W        W 6373   3.192   4.983  19.145
 5510W        W 6374   1.292   7.172  21.497
 5511W        W 6375   1.128   3.786  18.838
 5512W        W 6376   3.329   4.125  19.789
 5513W        W 6377   3.495   6.516  18.314
 5514W        W 6378   0.383   5.690  19.986
 5515W        W 6379   2.412   4.163  18.136
 5516W        W 6380   3.448   6.536  20.171
 5517W        W 6381   3.393   3.833  20.642
 5518W        W 6382   2.014   5.076  21.349
 5519W        W 6383   1.816   6.214  19.047
 5520W        W 6384   2.565   5.526  21.870
 5521W        W 6385   2.255   3.711  20.173
 5522W        W 6386   0.852   4.786  20.030
 5523W        W 6387   0.404   5.868  20.881
 5524W        W 6388   2.180   6.993  19.777
 5525W        W 6389   3.369   4.714  20.471
 5526W        W 6390   2.148   7.028  21.183
 5527W        W 6391   3.284   5.778  18.515
 5528W        W 6392   1.649   5.348  19.501
 5529W        W 6393   3.545   3.778  21.127
 5530W        W 6394   1.879   5.890  20.674
 5531W        W 6395   1.960   4.680  20.118
 5532W        W 6396   2.678   5.085  19.139
 5533W        W 6397   2.921   4.906  18.712
 5534W        W 6398   3.229   6.431  19.364
 5535W        W 6399   2.647   6.045  20.140
 5536W        W 6400   2.558   5.348  18.717
 5537W        W 6401   2.041   5.512  19.820
 5538W        W 6402   3.012   5.269  19.984
 5539W        W 6403   0.515   4.522  20.337
 5540W        W 6404   3.119   5.375  21.096
 5541W        W 6405   3.546   7.017  20.455
 5542W        W 6406   1.420   6.538  19.715
 5543W        W 6407   2.609   7.043  20.950
 5544W        W 6408   2.473   4.421  20.802
 5545W        W 6409   1.728   7.130  20.888
 5546W        W 6410   3.235   4.128  19.271
 5547W        W 6411   3.163   5.205  20.532
 5548W        W 6412   0.289   4.776  20.740
 5549W        W 6413   2.886   4.432  19.763
 5550W        W 6414   3.304   4.604  21.375
 5551W        W 6415   2.249   6.305  19.878
 5552W        W 6416   1.603   6.947  19.465
 5553W        W 6417   0.748   4.207  18.645
 5554W        W 6418   1.774   3.832  20.346
 5555W        W 6419   0.809   6.870  18.337
 5556W        W 6420   1.182   5.574  18.915
 5557W        W 6421   1.850   5.986  21.305
 5558W        W 6422   1.671   4.216  19.152
 5559W        W 6423   2.883   3.926  19.602
 5560W        W 6424   2.662   7.236  20.009
 5561W        W 6425   2.131   6.926  20.290
 5562W        W 6426   1.470   5.922  20.333
 5563W        W 6427   3.231   6.674  20.657
 5564W        W 6428   0.934   4.149  19.130
 5565W        W 6429   1.441   6.430  20.219
 5566W        W 6430   1.111   4.273  18.268
 5567W        W 6431   1.741   5.006  20.477
 5568W        W 6432   2.636   3.776  20.507
 5569W        W 6433   0.104   5.863  20.386
 5570W        W 6434   1.604   5.483  18.590
 5571W        W 6435   0.905   3.752  18.391
 5572W        W 6436   1.675   4.841  19.402
 5573W        W 6437   2.545   3.938  21.004
 5574W        W 6438   1.372   5.932  21.116
 5575W        W 6439   2.131   5.560  21.485
 5576W        W 6440   2.633   5.616  21.328
 5577W        W 6441   1.875   3.947  22.029
 5578W        W 6442   1.150   4.370  19.924
 5579W        W 6443   0.751   4.439  19.576
 5580W        W 6444   0.375   7.041  19.218
 5581W        W 6445   2.012   6.480  21.401
 5582W        W 6446   0.823   6.003  18.732
 5583W        W 6447   2.508   5.515  20.054
 5584W        W 6448   2.664   5.150  20.375
 5585W        W 6449   1.808   5.510  20.323
 5586W        W 6450   2.509   6.051  18.208
 5587W        W 6451   1.969   4.108  19.941
 5588W        W 6452   3.517   4.450  18.995
 5589W        W 6453   0.440   7.063  21.242
 5590W        W 6454   0.632   6.319  20.714
 5591W        W 6455  28.984   7.154  18.902
 5592W        W 6456   1.991   4.551  20.619
 5593W        W 6457   1.024   6.372  18.432
 5594W        W 6458   3.064   6.936  18.646
 5595W        W 6459   2.061   5.342  18.775
 5596W        W 6460   0.923   4.737  19.180
 5597W        W 6461   2.117   4.482  18.416
 5598W        W 6462   2.361   6.038  21.472
 5599W        W 6463   2.780   4.088  19.007
 5600W        W 6464   0.262   3.943  18.512
 5601W        W 6465   1.484   6.255  20.725
 5602W        W 6466   1.226   6.085  19.879
 5603W        W 6467   0.752   5.939  18.218
 5604W        W 6468   0.176   6.637  18.945
 5605W        W 6469   0.790   5.419  21.548
 5606W        W 6470   1.398   3.994  21.464
 5607W        W 6471   2.066   4.144  20.929
 5608W        W 6472   1.337   3.846  19.318
 5609W        W 6473   2.152   3.667  18.717
 5610W        W 6474   0.345   3.835  20.361
 5611W        W 6475   0.380   4.688  19.844
 5612W        W 6476   3.078   3.780  20.237
 5613W        W 6477   0.509   4.424  19.093
 5614W        W 6478   2.932   4.128  20.702
 5615W        W 6479   3.420   5.362  18.206
 5616W        W 6480   0.715   4.128  20.091
 5617W        W 6481   1.962   4.607  21.148
 5618W        W 6482   0.278   4.443  18.635
 5619W        W 6483   0.866   5.846  21.160
 5620W        W 6484   2.157   5.154  20.192
 5621W        W 6485   1.776   6.972  18.567
 5622W        W 6486   0.315   5.660  18.359
 5623W        W 6487   1.046   6.221  21.490
 5624W        W 6488   0.600   5.412  21.053
 5625W        W 6489   1.446   5.575  20.734
 5626W        W 6490   3.024   3.736  21.029
 5627W        W 6491   3.658   5.442  21.027
 5628W        W 6492   3.421   5.271  18.743
 5629W        W 6493   2.149   5.829  18.923
 5630W        W 6494   2.916   7.206  18.229
 5631W        W 6495   2.100   5.180  21.863
 5632W        W 6496   0.276   6.147  21.820
 5633W        W 6497   3.694   4.208  21.697
 5634W        W 6498   2.973   4.792  20.147
 5635W        W 6499   1.725   7.194  21.803
 5636W        W 6500   1.460   3.869  18.454
 5637W        W 6501   3.021   6.238  18.403
 5638W        W 6502   0.805   4.474  21.383
 5639W        W 6503   1.500   6.400  21.308
 5640W        W 6504   3.347   4.352  20.885
 5641W        W 6505   2.687   7.310  18.709
 5642W        W 6506   2.893   5.641  20.360
 5643W        W 6507   1.063   4.148  21.052
 5644W        W 6508   1.615   5.183  21.664
 5645W        W 6509   0.984   6.456  18.959
 5646W        W 6510   2.585   5.616  19.172
 5647W        W 6511   0.709   4.455  20.822
 5648W        W 6512   1.880   6.462  19.500
 5649W        W 6513   3.397   5.043  19.650
 5650W        W 6514   1.786   3.790  21.140
 5651W        W 6515   2.930   6.482  20.283
 5652W        W 6516   3.091   6.975  20.216
 5653W        W 6517   1.975   6.461  18.584
 5654W        W 6518   0.199   6.521  21.500
 5655W        W 6519   1.045   4.419  20.426
 5656W        W 6520   0.956   3.957  19.663
 5657W        W 6521   2.474   4.634  20.335
 5658W        W 6522   1.229   5.852  18.466
 5659W        W 6523   3.380   5.579  20.237
 5660W        W 6524   0.665   6.471  21.730
 5661W        W 6525   3.143   7.315  19.260
 5662W        W 6526   1.272   4.372  19.422
 5663W        W 6527   0.789   5.607  19.690
 5664W        W 6528   1.271   7.168  20.626
 5665W        W 6529   3.265   7.172  21.508
 5666W        W 6530   2.307   5.511  20.546
 5667W        W 6531   0.391   5.159  18.436
 5668W        W 6532   3.444   6.934  19.424
 5669W        W 6533   3.080   4.407  18.727
 5670W        W 6534   1.298   3.686  21.057
 5671W        W 6535   3.157   6.723  19.788
 5672W        W 6536   2.918   4.916  19.597
 5673W        W 6537   1.226   4.814  19.664
 5674W        W 6538   1.542   4.940  21.185
 5675W        W 6539   2.635   6.124  21.055
 5676W        W 6540   1.136   4.657  21.011
 5677W        W 6541   1.202   7.184  19.706
 5678W        W 6542   0.779   7.205  21.597
 5679W        W 6543   0.577   6.507  18.659
 5680W        W 6544   3.234   5.867  19.380
 5681W        W 6545   0.701   4.913  21.058
 5682W        W 6546   3.443   4.773  18.588
 5683W        W 6547   1.313   6.064  18.956
 5684W        W 6548   2.361   5.299  21.046
 5685W        W 6549   2.267   4.976  20.671
 5686W        W 6550   0.923   5.441  20.619
 5687W        W 6551   3.022   7.173  20.670
 5688W        W 6552   2.741   3.999  21.503
 5689W        W 6553   0.548   4.029  21.091
 5690W        W 6554   0.724   5.288  20.124
 5691W        W 6555   1.357   4.850  18.283
 5692W        W 6556   0.306   6.623  21.026
 5693W        W 6557   1.328   5.313  20.300
 5694W        W 6558   1.612   4.399  18.345
 5695W        W 6559   0.769   5.255  19.015
 5696W        W 6560   0.416   7.242  20.769
 5697W        W 6561   2.990   5.360  18.467
 5698W        W 6562   3.247   4.102  21.392
 5699W        W 6563   2.964   6.258  19.789
 5700W        W 6564   0.294   5.354  21.634
 5701W        W 6565   3.232   3.905  18.796
 5702W        W 6566   3.129   6.091  18.915
 5703W        W 6567   1.652   5.175  19.012
 5704W        W 6568   2.886   4.063  18.386
 5705W        W 6569   2.905   4.643  20.649
 5706W        W 6570   0.314   5.206  19.789
 5707W        W 6571   0.998   6.233  19.430
 5708W        W 6572   2.469   4.747  19.456
 5709W        W 6573   1.571   4.298  20.239
 5710W        W 6574   3.468   6.208  20.624
 5711W        W 6575   3.590   4.254  20.396
 5712W        W 6576   0.121   6.894  19.643
 5713W        W 6577   0.463   6.178  19.047
 5714W        W 6578   0.545   4.095  21.653
 5715W        W 6579   1.720   6.604  21.822
 5716W        W 6580   3.410   5.543  19.745
 5717W        W 6581   2.765   5.816  18.609
 5718W        W 6582   2.200   7.245  20.692
 5719W        W 6583   2.847   5.905  21.665
 5720W        W 6584   1.657   3.708  18.938
 5721W        W 6585   2.351   4.447  19.865
 5722W        W 6586   0.375   6.302  20.271
 5723W        W 6587   1.332   4.245  18.772
 5724W        W 6588   1.196   5.725  21.550
 5725W        W 6589   2.042   4.466  19.418
 5726W        W 6590   2.425   6.013  20.599
 5727W        W 6591   0.836   6.729  21.325
 5728W        W 6592   1.229   6.680  21.667
 5729W        W 6593   1.036   4.635  18.638
 5730W        W 6594   2.417   4.507  18.979
 5731W        W 6595   2.469   6.612  21.217
 5732W        W 6596   1.191   5.300  19.812
 5733W        W 6597   0.742   6.817  20.819
 5734W        W 6598   3.421   7.025  18.286
 5735W        W 6599   0.441   5.807  21.445
 5736W        W 6600   2.137   5.890  20.185
 5737W        W 6601   0.806   5.794  19.203
 5738W        W 6602   1.168   6.653  20.591
 5739W        W 6603   1.485   3.989  19.789
 5740W        W 6604   0.103   6.092  18.682
 5741W        W 6605   1.778   4.956  18.552
 5742W        W 6606   0.416   5.454  19.345
 5743W        W 6607   1.575   4.276  21.063
 5744W        W 6608   3.384   3.867  18.314
 5745W        W 6609   3.437   5.626  21.456
 5746W        W 6610   2.140   6.915  21.690
 5747W        W 6611   3.579   5.987  21.089
 5748W        W 6612   3.009   6.756  21.744
 5749W        W 6613   0.799   7.183  20.433
 5750W        W 6614   3.781   5.757  19.469
 5751W        W 6615   2.079   5.000  19.678
 5752W        W 6616   1.855   3.845  19.451
 5753W        W 6617   1.063   6.787  19.400
 5754W        W 6618   1.485   4.586  20.656
 5755W        W 6619   1.184   3.925  20.196
 5756W        W 6620   0.392   7.013  18.629
 5757W        W 6621   1.984   5.920  19.482
 5758W        W 6622   1.294   6.841  21.061
 5759W        W 6623   0.440   5.667  18.866
 5760W        W 6624   0.188   4.219  20.046
 5761W        W 6625   1.753   6.137  19.920
 5762W        W 6626   0.145   4.070  19.001
 5763W        W 6627   2.775   5.086  20.860
 5764W        W 6628   2.636   4.531  18.478
 5765W        W 6629   3.201   6.052  20.206
 5766W        W 6630   1.846   6.645  19.986
 5767W        W 6631   1.343   6.984  19.018
 5768W        W 6632   2.458   3.669  18.282
 5769W        W 6633   0.397   7.037  20.091
 5770W        W 6634   2.273   4.715  21.670
 5771W        W 6635   0.590   4.549  21.901
 5772W        W 6636   0.411   4.862  19.342
 5773W        W 6637   1.221   5.110  18.721
 5774W        W 6638   2.501   5.161  21.519
 5775W        W 6639   1.032   5.706  20.153
 5776W        W 6640   2.338   3.842  19.682
 5777W        W 6641   1.679   7.147  19.962
 5778W        W 6642   2.738   6.556  20.777
 5779W        W 6643   2.627   6.722  19.942
 5780W        W 6644   2.460   5.838  19.665
 5781W        W 6645   1.870   4.105  18.677
 5782W        W 6646   3.639   3.768  19.519
 5783W        W 6647   1.229   5.383  18.255
 5784W        W 6648   3.307   4.581  19.475
 5785W        W 6649   2.104   5.712  18.409
 5786W        W 6650   3.061   5.871  21.179
 5787W        W 6651   2.548   6.891  18.403
 5788W        W 6652   1.325   4.502  21.449
 5789W        W 6653   1.278   5.067  20.742
 5790W        W 6654   3.179   6.352  21.056
 5791W        W 6655   2.375   4.323  21.307
 5792W        W 6656   0.206   5.017  21.200
 5793W        W 6657   1.903   5.351  20.829
 5794W        W 6658   0.418   5.955  19.512
 5795W        W 6659   0.407   5.423  20.542
 5796W        W 6660   2.731   5.633  20.835
 5797W        W 6661   2.607   7.053  21.485
 5798W        W 6662   2.445   4.801  21.152
 5799W        W 6663   2.772   7.058  19.541
 5800W        W 6664   1.768   6.627  20.930
 5801W        W 6665   1.206   6.909  20.143
 5802W        W 6666   2.945   6.093  20.648
 5803W        W 6667   1.977   6.137  21.789
 5804W        W 6668   0.706   6.079  19.916
 5805W        W 6669   2.952   5.751  19.840
 5806W        W 6670   2.620   6.944  20.439
 5807W        W 6671   0.732   6.691  20.293
 5808W        W 6672   1.766   4.698  21.636
 5809W        W 6673   1.834   6.756  19.027
 5810W        W 6674   1.461   6.166  21.780
 5811W        W 6675   1.429   6.508  19.202
 5812W        W 6676   0.874   5.032  18.340
 5813W        W 6677   0.091   7.386  25.223
 5814W        W 6678   0.582   6.185  24.834
 5815W        W 6679   3.221   5.868  22.743
 5816W        W 6680   3.477   6.988  24.671
 5817W        W 6681   1.381   6.960  22.097
 5818W        W 6682   1.212   5.086  22.863
 5819W        W 6683   0.739   5.139  23.062
 5820W        W 6684   1.671   5.650  22.648
 5821W        W 6685   1.736   6.902  24.822
 5822W        W 6686   0.268   4.480  24.835
 5823W        W 6687   0.851   3.609  24.660
 5824W        W 6688   2.722   4.077  23.669
 5825W        W 6689   2.199   4.911  22.289
 5826W        W 6690   2.839   4.469  25.217
 5827W        W 6691   0.286   4.188  24.415
 5828W        W 6692   0.359   6.946  25.372
 5829W        W 6693   1.704   5.942  22.206
 5830W        W 6694   0.235   4.896  23.913
 5831W        W 6695   1.086   4.898  25.108
 5832W        W 6696   3.325   4.574  23.679
 5833W        W 6697   3.299   5.738  24.435
 5834W        W 6698   1.651   5.087  23.526
 5835W        W 6699   2.353   6.511  23.921
 5836W        W 6700   0.635   5.825  24.051
 5837W        W 6701   0.039   5.338  23.724
 5838W        W 6702   1.204   5.364  24.865
 5839W        W 6703   3.342   5.125  25.125
 5840W        W 6704   0.953   6.512  23.476
 5841W        W 6705   1.919   6.343  24.561
 5842W        W 6706   1.256   4.833  23.771
 5843W        W 6707   1.526   5.641  23.495
 5844W        W 6708   2.414   6.420  25.375
 5845W        W 6709   1.522   5.627  25.219
 5846W        W 6710   1.702   5.470  24.761
 5847W        W 6711   0.211   4.830  25.455
 5848W        W 6712   2.883   6.470  25.177
 5849W        W 6713   0.543   3.977  23.003
 5850W        W 6714   1.059   6.204  23.962
 5851W        W 6715   3.456   6.186  23.525
 5852W        W 6716   2.864   4.508  23.937
 5853W        W 6717   3.226   4.412  21.852
 5854W        W 6718   3.645   5.160  24.359
 5855W        W 6719   1.497   6.926  23.830
 5856W        W 6720   3.408   6.663  22.440
 5857W        W 6721   0.533   7.387  22.583
 5858W        W 6722   0.917   7.201  22.927
 5859W        W 6723   0.731   3.938  24.273
 5860W        W 6724   3.250   4.960  24.633
 5861W        W 6725   2.567   5.356  23.057
 5862W        W 6726   2.605   5.001  21.987
 5863W        W 6727   1.948   6.183  24.064
 5864W        W 6728   1.531   4.572  23.405
 5865W        W 6729   2.231   6.760  24.422
 5866W        W 6730   2.942   5.434  22.686
 5867W        W 6731   2.243   4.123  22.827
 5868W        W 6732   0.776   6.866  22.563
 5869W        W 6733   0.182   4.317  23.098
 5870W        W 6734   2.536   5.114  23.523
 5871W        W 6735   0.432   6.466  23.453
 5872W        W 6736   1.493   6.418  22.297
 5873W        W 6737   3.088   4.909  21.808
 5874W        W 6738   0.258   6.662  24.158
 5875W        W 6739   1.013   6.385  24.574
 5876W        W 6740   1.269   5.591  23.001
 5877W        W 6741   1.511   3.989  24.275
 5878W        W 6742   3.559   3.871  23.559
 5879W        W 6743   0.775   5.508  22.103
 5880W        W 6744   0.468   4.776  22.388
 5881W        W 6745   0.608   6.537  22.969
 5882W        W 6746   1.598   5.968  23.096
 5883W        W 6747   2.990   6.892  24.893
 5884W        W 6748   1.876   4.650  22.594
 5885W        W 6749   3.203   7.215  23.384
 5886W        W 6750   2.880   4.934  24.998
 5887W        W 6751   3.710   6.543  23.241
 5888W        W 6752   2.203   5.909  24.695
 5889W        W 6753   0.247   5.179  22.657
 5890W        W 6754   1.042   5.908  24.356
 5891W        W 6755   2.159   5.055  22.784
 5892W        W 6756   2.157   5.579  22.850
 5893W        W 6757   0.713   4.915  24.182
 5894W        W 6758   0.587   4.797  25.094
 5895W        W 6759   0.425   3.819  23.476
 5896W        W 6760   2.258   4.104  23.899
 5897W        W 6761   1.978   4.239  25.077
 5898W        W 6762   2.286   4.100  22.297
 5899W        W 6763   3.549   6.734  25.146
 5900W        W 6764   2.319   3.816  25.048
 5901W        W 6765   3.286   6.156  25.273
 5902W        W 6766   2.892   4.493  24.689
 5903W        W 6767   2.690   4.310  23.117
 5904W        W 6768   2.914   5.414  25.305
 5905W        W 6769   0.671   6.925  23.303
 5906W        W 6770   1.359   4.608  22.648
 5907W        W 6771   1.042   3.902  25.062
 5908W        W 6772   2.914   4.619  22.759
 5909W        W 6773   3.198   5.013  22.531
 5910W        W 6774   1.292   7.214  25.061
 5911W        W 6775   1.032   3.736  22.376
 5912W        W 6776   3.154   4.160  23.414
 5913W        W 6777   3.452   6.459  21.926
 5914W        W 6778   0.362   5.730  23.615
 5915W        W 6779   2.306   4.205  21.788
 5916W        W 6780   3.469   6.584  23.836
 5917W        W 6781   3.413   3.814  24.309
 5918W        W 6782   2.021   5.042  24.920
 5919W        W 6783   1.814   6.153  22.672
 5920W        W 6784   2.404   5.579  25.470
 5921W        W 6785   2.242   3.582  23.749
 5922W        W 6786   0.730   4.731  23.689
 5923W        W 6787   0.364   5.811  24.503
 5924W        W 6788   2.309   6.942  23.545
 5925W        W 6789   3.260   4.795  24.146
 5926W        W 6790   2.164   7.206  24.713
 5927W        W 6791   3.248   5.756  21.930
 5928W        W 6792   1.742   5.377  23.091
 5929W        W 6793   3.590   3.748  24.789
 5930W        W 6794   1.773   5.851  24.427
 5931W        W 6795   1.967   4.687  23.660
 5932W        W 6796   2.662   5.011  22.536
 5933W        W 6797   2.969   4.652  22.243
 5934W        W 6798   3.012   6.748  22.793
 5935W        W 6799   2.946   6.207  23.625
 5936W        W 6800   2.518   5.484  22.390
 5937W        W 6801   2.182   5.529  23.394
 5938W        W 6802   2.944   5.440  23.439
 5939W        W 6803   0.479   4.475  24.062
 5940W        W 6804   3.082   5.436  24.810
 5941W        W 6805   3.537   7.009  24.129
 5942W        W 6806   1.447   6.609  23.401
 5943W        W 6807   2.627   7.089  24.548
 5944W        W 6808   2.491   4.407  24.338
 5945W        W 6809   1.769   7.252  24.387
 5946W        W 6810   3.132   4.146  22.881
 5947W        W 6811   3.047   5.297  24.302
 5948W        W 6812   0.284   4.821  24.434
 5949W        W 6813   2.863   4.710  23.459
 5950W        W 6814   3.296   4.620  25.009
 5951W        W 6815   2.338   6.421  23.394
 5952W        W 6816   1.576   6.931  23.017
 5953W        W 6817   0.690   4.139  22.191
 5954W        W 6818   1.794   3.849  23.862
 5955W        W 6819   0.868   6.870  22.018
 5956W        W 6820   1.166   5.507  22.489
 5957W        W 6821   1.781   6.005  24.973
 5958W        W 6822   1.671   4.335  22.974
 5959W        W 6823   2.859   3.793  23.205
 5960W        W 6824   2.726   7.265  23.648
 5961W        W 6825   2.015   6.985  23.992
 5962W        W 6826   1.488   5.889  23.986
 5963W        W 6827   3.361   6.550  24.344
 5964W        W 6828   0.925   4.159  22.661
 5965W        W 6829   1.515   6.410  23.880
 5966W        W 6830   1.030   4.229  21.805
 5967W        W 6831   1.699   4.916  24.038
 5968W        W 6832   2.649   3.768  24.094
 5969W        W 6833   0.088   5.748  24.069
 5970W        W 6834   1.580   5.428  22.162
 5971W        W 6835   0.810   3.714  21.913
 5972W        W 6836   1.675   4.864  23.026
 5973W        W 6837   2.560   3.934  24.577
 5974W        W 6838   1.321   5.895  24.784
 5975W        W 6839   2.059   5.531  25.099
 5976W        W 6840   2.580   5.663  24.958
 5977W        W 6841   1.987   3.989  25.523
 5978W        W 6842   1.110   4.370  23.593
 5979W        W 6843   0.670   4.420  23.264
 5980W        W 6844   0.376   6.987  22.870
 5981W        W 6845   2.025   6.477  25.038
 5982W        W 6846   0.827   5.973  22.329
 5983W        W 6847   2.553   5.577  23.768
 5984W        W 6848   2.502   5.269  24.165
 5985W        W 6849   1.923   5.672  23.824
 5986W        W 6850   2.473   6.033  22.008
 5987W        W 6851   1.915   4.205  23.460
 5988W        W 6852   3.421   4.526  22.645
 5989W        W 6853   0.358   7.062  24.874
 5990W        W 6854   0.587   6.263  24.325
 5991W        W 6855   0.029   7.162  22.535
 5992W        W 6856   2.008   4.490  24.144
 5993W        W 6857   1.051   6.343  22.045
 5994W        W 6858   3.091   7.073  22.352
 5995W        W 6859   2.030   5.379  22.386
 5996W        W 6860   0.862   4.685  22.787
 5997W        W 6861   1.977   4.474  22.093
 5998W        W 6862   2.236   5.992  25.200
 5999W        W 6863   2.714   4.190  22.561
 6000W        W 6864   0.244   3.885  22.117
 6001W        W 6865   1.450   6.248  24.364
 6002W        W 6866   1.279   6.101  23.505
 6003W        W 6867   0.769   5.938  21.814
 6004W        W 6868   0.193   6.620  22.551
 6005W        W 6869   0.736   5.305  25.088
 6006W        W 6870   1.541   3.982  25.208
 6007W        W 6871   2.075   4.131  24.534
 6008W        W 6872   1.379   3.955  22.794
 6009W        W 6873   2.064   3.691  22.513
 6010W        W 6874   0.299   3.869  23.987
 6011W        W 6875   0.275   4.750  23.423
 6012W        W 6876   3.144   3.854  23.869
 6013W        W 6877   0.461   4.338  22.638
 6014W        W 6878   2.964   4.133  24.283
 6015W        W 6879   3.448   5.274  21.905
 6016W        W 6880   0.720   4.124  23.790
 6017W        W 6881   1.936   4.594  24.689
 6018W        W 6882   0.169   4.403  22.184
 6019W        W 6883   0.800   5.688  24.741
 6020W        W 6884   2.103   5.184  23.814
 6021W        W 6885   1.904   6.899  22.187
 6022W        W 6886   0.281   5.698  22.015
 6023W        W 6887   1.023   6.258  25.068
 6024W        W 6888   0.473   5.305  24.577
 6025W        W 6889   1.370   5.516  24.386
 6026W        W 6890   3.054   3.795  24.688
 6027W        W 6891   3.593   5.442  24.779
 6028W        W 6892   3.359   5.515  22.383
 6029W        W 6893   2.195   5.896  22.441
 6030W        W 6894   2.908   7.237  21.880
 6031W        W 6895   2.062   5.134  25.446
 6032W        W 6896   0.330   6.160  25.495
 6033W        W 6897   3.723   4.234  25.351
 6034W        W 6898   2.913   5.062  23.857
 6035W        W 6899   1.727   7.248  25.348
 6036W        W 6900   1.342   3.820  21.949
 6037W        W 6901   2.956   6.286  21.983
 6038W        W 6902   0.895   4.394  25.044
 6039W        W 6903   1.484   6.432  24.874
 6040W        W 6904   3.347   4.266  24.595
 6041W        W 6905   2.645   7.332  22.326
 6042W        W 6906   2.704   6.020  24.032
 6043W        W 6907   1.084   4.136  24.588
 6044W        W 6908   1.570   5.115  25.157
 6045W        W 6909   0.972   6.395  22.596
 6046W        W 6910   2.634   5.835  22.791
 6047W        W 6911   0.706   4.507  24.546
 6048W        W 6912   1.863   6.447  23.138
 6049W        W 6913   3.286   5.043  23.455
 6050W        W 6914   1.861   3.766  24.831
 6051W        W 6915   2.941   6.518  24.043
 6052W        W 6916   3.115   6.974  23.831
 6053W        W 6917   2.016   6.378  22.235
 6054W        W 6918   0.255   6.496  25.130
 6055W        W 6919   1.027   4.470  24.115
 6056W        W 6920   0.921   3.953  23.349
 6057W        W 6921   2.421   4.787  23.940
 6058W        W 6922   1.227   5.802  22.061
 6059W        W 6923   3.060   5.653  23.926
 6060W        W 6924   0.705   6.555  25.366
 6061W        W 6925   3.107   7.279  22.845
 6062W        W 6926   1.162   4.339  23.073
 6063W        W 6927   0.816   5.631  23.320
 6064W        W 6928   1.280   7.168  24.226
 6065W        W 6929   3.325   7.187  25.152
 6066W        W 6930   2.268   5.756  24.197
 6067W        W 6931   0.346   5.214  22.152
 6068W        W 6932   3.435   6.908  23.024
 6069W        W 6933   3.175   4.183  22.341
 6070W        W 6934   1.366   3.711  24.714
 6071W        W 6935   3.204   6.657  23.402
 6072W        W 6936   2.991   5.053  23.036
 6073W        W 6937   1.058   4.789  23.280
 6074W        W 6938   1.622   4.998  24.574
 6075W        W 6939   2.588   6.204  24.858
 6076W        W 6940   1.206   4.633  24.684
 6077W        W 6941   1.248   7.119  23.354
 6078W        W 6942   0.786   7.132  25.156
 6079W        W 6943   0.572   6.461  22.236
 6080W        W 6944   3.303   6.353  22.991
 6081W        W 6945   0.863   5.008  24.665
 6082W        W 6946   3.478   4.767  22.133
 6083W        W 6947   1.299   5.997  22.582
 6084W        W 6948   2.197   5.413  24.602
 6085W        W 6949   2.127   4.954  24.354
 6086W        W 6950   0.886   5.411  24.294
 6087W        W 6951   3.075   6.983  24.349
 6088W        W 6952   2.818   3.955  25.143
 6089W        W 6953   0.595   4.039  24.810
 6090W        W 6954   0.902   5.214  23.818
 6091W        W 6955   1.260   4.759  21.888
 6092W        W 6956   0.301   6.593  24.647
 6093W        W 6957   1.414   5.340  23.907
 6094W        W 6958   1.538   4.304  21.876
 6095W        W 6959   0.760   5.181  22.536
 6096W        W 6960   0.363   7.218  24.395
 6097W        W 6961   2.963   5.314  22.148
 6098W        W 6962   3.306   4.117  25.074
 6099W        W 6963   2.813   6.371  23.155
 6100W        W 6964   0.287   5.326  25.324
 6101W        W 6965   3.178   3.667  22.327
 6102W        W 6966   3.050   6.293  22.517
 6103W        W 6967   1.649   5.132  22.600
 6104W        W 6968   2.782   4.124  22.015
 6105W        W 6969   2.775   4.849  24.330
 6106W        W 6970   0.490   5.225  23.505
 6107W        W 6971   0.983   6.181  23.083
 6108W        W 6972   2.537   4.826  23.075
 6109W        W 6973   1.574   4.330  23.851
 6110W        W 6974   3.678   6.126  24.375
 6111W        W 6975   3.472   4.289  24.087
 6112W        W 6976   0.131   6.853  23.295
 6113W        W 6977   0.489   6.161  22.657
 6114W        W 6978   0.625   3.993  25.348
 6115W        W 6979   1.663   6.720  25.319
 6116W        W 6980   3.433   5.647  23.554
 6117W        W 6981   2.893   5.827  22.300
 6118W        W 6982   2.293   7.372  24.235
 6119W        W 6983   2.742   5.981  25.343
 6120W        W 6984   1.560   3.690  22.393
 6121W        W 6985   2.406   4.466  23.522
 6122W        W 6986   0.306   6.193  23.890
 6123W        W 6987   1.312   4.182  22.320
 6124W        W 6988   1.023   5.750  25.192
 6125W        W 6989   2.107   4.553  23.099
 6126W        W 6990   2.401   6.254  24.369
 6127W        W 6991   0.747   6.701  24.878
 6128W        W 6992   1.162   6.740  25.193
 6129W        W 6993   0.957   4.568  22.288
 6130W        W 6994   2.389   4.580  22.643
 6131W        W 6995   2.478   6.719  24.918
 6132W        W 6996   1.184   5.267  23.394
 6133W        W 6997   0.710   6.796  24.372
 6134W        W 6998   3.435   6.978  21.979
 6135W        W 6999   0.480   5.782  25.161
 6136W        W 7000   2.291   6.018  23.708
 6137W        W 7001   0.834   5.779  22.812
 6138W        W 7002   1.162   6.666  24.162
 6139W        W 7003   1.447   4.003  23.351
 6140W        W 7004   0.089   6.126  22.319
 6141W        W 7005   1.704   4.920  22.123
 6142W        W 7006   0.410   5.527  23.010
 6143W        W 7007   1.581   4.205  24.735
 6144W        W 7008   3.301   3.918  21.888
 6145W        W 7009   3.372   5.643  25.199
 6146W        W 7010   2.127   6.986  25.174
 6147W        W 7011   3.555   5.964  24.841
 6148W        W 7012   3.140   6.810  25.465
 6149W        W 7013   0.788   7.245  24.104
 6150W        W 7014   3.630   5.957  23.118
 6151W        W 7015   2.098   5.032  23.289
 6152W        W 7016   1.845   3.854  23.022
 6153W        W 7017   1.074   6.734  23.035
 6154W        W 7018   1.527   4.523  24.322
 6155W        W 7019   1.229   3.913  23.826
 6156W        W 7020   0.404   6.993  22.243
 6157W        W 7021   2.122   5.993  23.163
 6158W        W 7022   1.228   6.858  24.660
 6159W        W 7023   0.470   5.635  22.499
 6160W        W 7024   0.253   4.283  23.627
 6161W        W 7025   1.796   6.109  23.560
 6162W        W 7026   0.054   4.039  22.585
 6163W        W 7027   2.660   5.235  24.649
 6164W        W 7028   2.495   4.530  22.133
 6165W        W 7029   3.298   6.113  24.016
 6166W        W 7030   1.916   6.613  23.643
 6167W        W 7031   1.294   6.818  22.581
 6168W        W 7032   2.347   3.720  21.903
 6169W        W 7033   0.418   6.938  23.757
 6170W        W 7034   2.360   4.707  25.258
 6171W        W 7035   0.669   4.492  25.529
 6172W        W 7036   0.381   4.771  22.930
 6173W        W 7037   1.222   5.020  22.332
 6174W        W 7038   2.465   5.194  25.129
 6175W        W 7039   1.060   5.700  23.780
 6176W        W 7040   2.347   3.952  23.337
 6177W        W 7041   1.806   7.113  23.474
 6178W        W 7042   2.766   6.598  24.519
 6179W        W 7043   2.740   6.688  23.605
 6180W        W 7044   2.606   5.854  23.323
 6181W        W 7045   1.802   4.145  22.510
 6182W        W 7046   3.370   3.731  23.092
 6183W        W 7047   1.178   5.302  21.872
 6184W        W 7048   3.247   4.593  23.148
 6185W        W 7049   2.097   5.679  21.989
 6186W        W 7050   3.028   5.932  24.895
 6187W        W 7051   2.558   6.889  22.018
 6188W        W 7052   1.404   4.472  25.136
 6189W        W 7053   1.216   4.992  24.263
 6190W        W 7054   3.255   6.420  24.826
 6191W        W 7055   2.448   4.311  24.890
 6192W        W 7056   0.178   5.010  24.894
 6193W        W 7057   1.841   5.373  24.236
 6194W        W 7058   0.460   6.021  23.163
 6195W        W 7059   0.435   5.350  24.051
 6196W        W 7060   2.735   5.712  24.459
 6197W        W 7061   2.582   7.220  25.036
 6198W        W 7062   2.438   4.789  24.736
 6199W        W 7063   2.776   7.007  23.194
 6200W        W 7064   1.660   6.737  24.312
 6201W        W 7065   0.981   6.935  23.754
 6202W        W 7066   3.003   6.162  24.437
 6203W        W 7067   1.894   6.281  25.506
 6204W        W 7068   0.739   6.071  23.593
 6205W        W 7069   3.110   5.915  23.237
 6206W        W 7070   2.601   6.948  24.051
 6207W        W 7071   0.690   6.540  23.910
 6208W        W 7072   1.837   4.694  25.289
 6209W        W 7073   1.799   6.670  22.637
 6210W        W 7074   1.424   6.137  25.349
 6211W        W 7075   1.418   6.406  22.881
 6212W        W 7076   0.798   4.997  22.025
 6213W        W 7077   0.283   7.345  28.887
 6214W        W 7078   0.528   6.236  28.465
 6215W        W 7079   3.351   5.497  26.364
 6216W        W 7080   3.421   6.845  28.224
 6217W        W 7081   1.346   7.015  25.614
 6218W        W 7082   1.195   5.136  26.459
 6219W        W 7083   0.720   5.093  26.689
 6220W        W 7084   1.684   5.694  26.027
 6221W        W 7085   1.641   6.935  28.457
 6222W        W 7086   0.305   4.462  28.427
 6223W        W 7087   0.880   3.628  28.238
 6224W        W 7088   2.548   4.111  27.183
 6225W        W 7089   2.276   4.890  25.893
 6226W        W 7090   2.800   4.339  28.777
 6227W        W 7091   0.308   4.115  27.919
 6228W        W 7092   0.308   6.838  28.842
 6229W        W 7093   1.488   6.163  25.882
 6230W        W 7094   0.376   4.955  27.479
 6231W        W 7095   1.138   4.817  28.714
 6232W        W 7096   3.412   4.565  27.354
 6233W        W 7097   3.377   5.631  27.997
 6234W        W 7098   1.657   5.181  27.158
 6235W        W 7099   2.322   6.541  27.539
 6236W        W 7100   0.606   5.963  27.783
 6237W        W 7101   0.056   5.339  27.331
 6238W        W 7102   1.234   5.466  28.509
 6239W        W 7103   3.351   5.073  28.723
 6240W        W 7104   0.885   6.536  27.060
 6241W        W 7105   2.184   6.288  28.196
 6242W        W 7106   1.293   4.880  27.360
 6243W        W 7107   1.535   5.706  27.127
 6244W        W 7108   2.344   6.472  29.000
 6245W        W 7109   1.592   5.664  28.899
 6246W        W 7110   1.735   5.575  28.413
 6247W        W 7111   0.154   4.794  28.886
 6248W        W 7112   2.864   6.348  28.746
 6249W        W 7113   0.556   3.903  26.637
 6250W        W 7114   0.968   6.335  27.680
 6251W        W 7115   3.395   6.059  27.019
 6252W        W 7116   2.757   4.380  27.614
 6253W        W 7117   3.261   4.436  25.506
 6254W        W 7118   3.677   5.166  28.000
 6255W        W 7119   1.577   6.931  27.633
 6256W        W 7120   3.422   6.689  26.101
 6257W        W 7121   0.495   7.372  26.158
 6258W        W 7122   0.848   7.188  26.539
 6259W        W 7123   0.764   3.891  27.801
 6260W        W 7124   3.366   4.854  28.242
 6261W        W 7125   2.762   5.398  26.882
 6262W        W 7126   2.625   5.156  25.648
 6263W        W 7127   1.921   6.279  27.703
 6264W        W 7128   1.653   4.564  26.941
 6265W        W 7129   2.425   6.705  28.017
 6266W        W 7130   3.282   5.459  26.877
 6267W        W 7131   2.233   4.180  26.411
 6268W        W 7132   0.700   6.832  26.199
 6269W        W 7133   0.186   4.249  26.634
 6270W        W 7134   2.569   5.038  27.195
 6271W        W 7135   0.356   6.514  27.091
 6272W        W 7136   1.634   6.655  25.846
 6273W        W 7137   3.045   4.901  25.495
 6274W        W 7138   0.145   6.729  27.829
 6275W        W 7139   1.005   6.392  28.212
 6276W        W 7140   1.314   5.601  26.669
 6277W        W 7141   1.147   4.223  27.678
 6278W        W 7142   3.568   3.811  27.391
 6279W        W 7143   0.732   5.563  25.587
 6280W        W 7144   0.576   4.783  26.004
 6281W        W 7145   0.558   6.557  26.614
 6282W        W 7146   1.447   6.115  26.778
 6283W        W 7147   2.982   6.782  28.503
 6284W        W 7148   1.969   4.561  26.162
 6285W        W 7149   3.264   7.206  27.070
 6286W        W 7150   2.920   4.918  28.459
 6287W        W 7151   3.646   6.505  26.913
 6288W        W 7152   2.228   5.754  28.284
 6289W        W 7153   0.299   5.182  26.343
 6290W        W 7154   1.096   5.936  27.979
 6291W        W 7155   2.094   5.036  26.360
 6292W        W 7156   2.316   5.405  26.644
 6293W        W 7157   0.610   4.992  27.949
 6294W        W 7158   0.603   4.889  28.655
 6295W        W 7159   0.440   3.622  27.035
 6296W        W 7160   2.159   4.237  27.493
 6297W        W 7161   1.964   4.292  28.832
 6298W        W 7162   2.419   4.140  25.919
 6299W        W 7163   3.433   6.536  28.714
 6300W        W 7164   2.268   3.678  28.740
 6301W        W 7165   3.265   6.126   0.019
 6302W        W 7166   2.925   4.404  28.266
 6303W        W 7167   2.588   4.380  26.728
 6304W        W 7168   2.951   5.334  28.930
 6305W        W 7169   0.601   6.947  26.955
 6306W        W 7170   1.450   4.694  26.267
 6307W        W 7171   1.017   3.964  28.668
 6308W        W 7172   2.985   4.638  26.489
 6309W        W 7173   3.386   5.018  26.579
 6310W        W 7174   1.204   7.190  28.980
 6311W        W 7175   1.138   3.717  26.058
 6312W        W 7176   3.376   4.132  27.044
 6313W        W 7177   3.546   6.470  25.609
 6314W        W 7178   0.296   5.779  27.204
 6315W        W 7179   2.432   4.205  25.388
 6316W        W 7180   3.491   6.719  27.358
 6317W        W 7181   3.495   3.739  27.902
 6318W        W 7182   2.030   4.803  28.638
 6319W        W 7183   1.785   6.067  26.362
 6320W        W 7184   2.480   5.475   0.095
 6321W        W 7185   2.202   3.717  27.306
 6322W        W 7186   0.793   4.805  27.158
 6323W        W 7187   0.299   5.848  28.169
 6324W        W 7188   2.365   6.983  27.248
 6325W        W 7189   3.214   4.580  27.841
 6326W        W 7190   2.133   6.999  28.336
 6327W        W 7191   3.128   5.776  25.629
 6328W        W 7192   1.816   5.516  26.541
 6329W        W 7193   3.596   3.811  28.398
 6330W        W 7194   1.848   5.853  27.970
 6331W        W 7195   1.913   4.735  27.348
 6332W        W 7196   2.929   5.178  26.452
 6333W        W 7197   2.882   4.887  26.025
 6334W        W 7198   3.021   6.810  26.443
 6335W        W 7199   2.636   6.109  27.349
 6336W        W 7200   2.518   5.265  26.160
 6337W        W 7201   2.041   5.519  27.077
 6338W        W 7202   3.041   5.316  27.330
 6339W        W 7203   0.454   4.445  27.532
 6340W        W 7204   3.076   5.409  28.391
 6341W        W 7205   3.458   7.028  27.751
 6342W        W 7206   1.397   6.592  27.057
 6343W        W 7207   2.633   7.109  28.299
 6344W        W 7208   2.421   4.394  28.013
 6345W        W 7209   1.747   7.210  28.026
 6346W        W 7210   3.277   4.175  26.530
 6347W        W 7211   3.130   5.168  27.879
 6348W        W 7212   0.164   4.674  27.911
 6349W        W 7213   2.938   4.453  27.110
 6350W        W 7214   3.273   4.547  28.634
 6351W        W 7215   2.229   6.324  27.080
 6352W        W 7216   1.493   6.929  26.644
 6353W        W 7217   0.780   4.077  25.857
 6354W        W 7218   1.767   3.837  27.582
 6355W        W 7219   0.832   6.939  25.688
 6356W        W 7220   1.213   5.517  26.119
 6357W        W 7221   1.821   6.069  28.461
 6358W        W 7222   1.734   4.260  26.505
 6359W        W 7223   2.923   3.981  26.853
 6360W        W 7224   2.775   7.317  27.314
 6361W        W 7225   2.086   6.988  27.701
 6362W        W 7226   1.462   5.923  27.614
 6363W        W 7227   3.298   6.530  27.798
 6364W        W 7228   0.945   4.077  26.363
 6365W        W 7229   1.450   6.446  27.568
 6366W        W 7230   1.130   4.202  25.490
 6367W        W 7231   1.688   5.055  27.678
 6368W        W 7232   2.558   3.899  27.654
 6369W        W 7233   0.087   5.801  27.698
 6370W        W 7234   1.599   5.325  25.658
 6371W        W 7235   1.013   3.690  25.562
 6372W        W 7236   1.667   5.001  26.658
 6373W        W 7237   2.661   3.948  28.165
 6374W        W 7238   1.329   5.955  28.447
 6375W        W 7239   2.104   5.688  28.788
 6376W        W 7240   2.598   5.570  28.599
 6377W        W 7241   1.983   3.877   0.143
 6378W        W 7242   1.185   4.399  27.163
 6379W        W 7243   0.731   4.383  26.800
 6380W        W 7244   0.326   7.020  26.509
 6381W        W 7245   1.967   6.553  28.592
 6382W        W 7246   0.867   5.891  25.993
 6383W        W 7247   2.504   5.543  27.302
 6384W        W 7248   2.643   5.202  27.679
 6385W        W 7249   1.819   5.554  27.552
 6386W        W 7250   2.307   6.030  25.716
 6387W        W 7251   2.068   4.167  26.951
 6388W        W 7252   3.504   4.572  26.313
 6389W        W 7253   0.311   7.149  28.414
 6390W        W 7254   0.525   6.427  27.986
 6391W        W 7255  28.979   7.175  26.156
 6392W        W 7256   1.935   4.549  27.834
 6393W        W 7257   1.149   6.507  25.664
 6394W        W 7258   3.125   7.101  25.913
 6395W        W 7259   2.067   5.361  25.903
 6396W        W 7260   0.914   4.683  26.397
 6397W        W 7261   2.107   4.470  25.670
 6398W        W 7262   2.414   6.092  28.642
 6399W        W 7263   2.791   4.135  26.329
 6400W        W 7264   0.338   3.806  25.754
 6401W        W 7265   1.514   6.247  28.043
 6402W        W 7266   1.182   6.128  27.222
 6403W        W 7267   0.852   6.091  25.530
 6404W        W 7268   0.186   6.609  26.197
 6405W        W 7269   0.747   5.390  28.768
 6406W        W 7270   1.527   3.985  28.838
 6407W        W 7271   2.048   4.050  27.979
 6408W        W 7272   1.385   3.842  26.520
 6409W        W 7273   2.264   3.715  26.212
 6410W        W 7274   0.352   3.794  27.509
 6411W        W 7275   0.325   4.630  27.043
 6412W        W 7276   3.025   3.999  27.379
 6413W        W 7277   0.514   4.313  26.244
 6414W        W 7278   3.093   4.075  27.896
 6415W        W 7279   3.399   5.295  25.604
 6416W        W 7280   0.789   4.119  27.324
 6417W        W 7281   1.897   4.411  28.329
 6418W        W 7282   0.235   4.410  25.821
 6419W        W 7283   0.826   5.795  28.407
 6420W        W 7284   2.154   5.183  27.474
 6421W        W 7285   1.832   7.156  25.831
 6422W        W 7286   0.225   5.704  25.680
 6423W        W 7287   0.985   6.236  28.701
 6424W        W 7288   0.504   5.384  28.299
 6425W        W 7289   1.433   5.532  27.995
 6426W        W 7290   3.074   3.653  28.225
 6427W        W 7291   3.609   5.427  28.430
 6428W        W 7292   3.689   5.142  26.184
 6429W        W 7293   2.212   5.723  26.237
 6430W        W 7294   2.907   7.297  25.437
 6431W        W 7295   2.149   5.079   0.106
 6432W        W 7296   0.618   5.976   0.088
 6433W        W 7297   3.622   4.181  28.779
 6434W        W 7298   2.960   4.834  27.471
 6435W        W 7299   1.714   7.140  28.915
 6436W        W 7300   1.510   3.859  25.708
 6437W        W 7301   3.011   6.313  25.674
 6438W        W 7302   0.823   4.426  28.556
 6439W        W 7303   1.450   6.457  28.508
 6440W        W 7304   3.457   4.301  28.223
 6441W        W 7305   2.706   7.420  25.911
 6442W        W 7306   2.847   5.684  27.642
 6443W        W 7307   1.041   4.128  28.172
 6444W        W 7308   1.613   5.132  28.661
 6445W        W 7309   0.974   6.377  26.164
 6446W        W 7310   2.730   5.662  26.431
 6447W        W 7311   0.655   4.464  28.044
 6448W        W 7312   1.813   6.480  26.770
 6449W        W 7313   3.473   5.055  27.134
 6450W        W 7314   1.881   3.888  28.464
 6451W        W 7315   2.787   6.475  27.717
 6452W        W 7316   3.023   6.888  27.472
 6453W        W 7317   2.103   6.761  25.626
 6454W        W 7318   0.257   6.318  28.910
 6455W        W 7319   0.917   4.679  27.656
 6456W        W 7320   1.021   3.949  26.890
 6457W        W 7321   2.380   4.740  27.616
 6458W        W 7322   1.261   5.749  25.662
 6459W        W 7323   3.328   5.840  27.505
 6460W        W 7324   0.774   6.653  28.899
 6461W        W 7325   3.165   7.311  26.517
 6462W        W 7326   1.255   4.357  26.641
 6463W        W 7327   0.837   5.748  26.983
 6464W        W 7328   1.194   7.216  27.847
 6465W        W 7329   3.335   7.043  28.761
 6466W        W 7330   2.318   5.593  27.786
 6467W        W 7331   0.396   5.250  25.829
 6468W        W 7332   3.491   6.896  26.609
 6469W        W 7333   3.098   4.422  26.008
 6470W        W 7334   1.381   3.781  28.358
 6471W        W 7335   3.163   6.688  26.963
 6472W        W 7336   3.003   4.949  26.934
 6473W        W 7337   1.201   4.817  26.847
 6474W        W 7338   1.674   4.884  28.188
 6475W        W 7339   2.711   6.283  28.228
 6476W        W 7340   1.118   4.648  28.183
 6477W        W 7341   1.103   7.047  26.973
 6478W        W 7342   0.732   7.154  28.741
 6479W        W 7343   0.560   6.465  25.852
 6480W        W 7344   3.313   6.370  26.550
 6481W        W 7345   0.934   5.105  28.333
 6482W        W 7346   3.426   4.818  25.850
 6483W        W 7347   1.273   5.982  26.313
 6484W        W 7348   2.153   5.273  28.488
 6485W        W 7349   2.213   4.889  28.106
 6486W        W 7350   0.886   5.471  27.955
 6487W        W 7351   3.049   7.328  27.774
 6488W        W 7352   2.774   3.781  28.745
 6489W        W 7353   0.565   4.008  28.362
 6490W        W 7354   0.873   5.175  27.515
 6491W        W 7355   1.340   4.795  25.528
 6492W        W 7356   0.173   6.608  28.370
 6493W        W 7357   1.336   5.396  27.504
 6494W        W 7358   1.606   4.362  25.645
 6495W        W 7359   0.774   5.252  26.180
 6496W        W 7360   0.444   7.136  27.924
 6497W        W 7361   3.034   5.368  25.965
 6498W        W 7362   3.169   4.039  28.567
 6499W        W 7363   2.906   6.229  26.885
 6500W        W 7364   0.239   5.293  28.754
 6501W        W 7365   3.271   3.940  26.055
 6502W        W 7366   3.102   5.897  26.134
 6503W        W 7367   1.629   5.191  26.169
 6504W        W 7368   2.875   4.108  25.648
 6505W        W 7369   2.754   4.795  27.977
 6506W        W 7370   0.556   5.311  27.130
 6507W        W 7371   0.937   6.181  26.670
 6508W        W 7372   2.538   4.912  26.669
 6509W        W 7373   1.629   4.304  27.421
 6510W        W 7374   3.560   6.114  27.949
 6511W        W 7375   3.576   4.224  27.712
 6512W        W 7376   0.077   6.926  26.952
 6513W        W 7377   0.512   6.160  26.290
 6514W        W 7378   0.545   3.979  28.886
 6515W        W 7379   1.813   6.637   0.085
 6516W        W 7380   3.705   5.632  27.156
 6517W        W 7381   2.657   5.700  25.899
 6518W        W 7382   2.273   7.390  28.027
 6519W        W 7383   2.830   5.847  28.955
 6520W        W 7384   1.652   3.604  26.149
 6521W        W 7385   2.352   4.583  27.125
 6522W        W 7386   0.246   6.277  27.547
 6523W        W 7387   1.391   4.185  26.110
 6524W        W 7388   1.073   5.775  28.919
 6525W        W 7389   2.102   4.608  26.661
 6526W        W 7390   2.447   6.087  27.817
 6527W        W 7391   0.657   6.752  28.395
 6528W        W 7392   1.305   6.663  28.961
 6529W        W 7393   1.050   4.531  25.906
 6530W        W 7394   2.507   4.587  26.242
 6531W        W 7395   2.471   6.633  28.520
 6532W        W 7396   1.096   5.286  27.045
 6533W        W 7397   0.862   6.821  27.918
 6534W        W 7398   3.578   6.988  25.685
 6535W        W 7399   0.374   5.779  28.670
 6536W        W 7400   2.149   5.921  27.397
 6537W        W 7401   0.848   5.695  26.468
 6538W        W 7402   1.349   6.755  28.062
 6539W        W 7403   1.557   4.059  26.950
 6540W        W 7404   0.075   6.129  25.974
 6541W        W 7405   1.768   4.858  25.798
 6542W        W 7406   0.406   5.556  26.697
 6543W        W 7407   1.548   4.154  28.014
 6544W        W 7408   3.358   3.932  25.551
 6545W        W 7409   3.354   5.636  28.816
 6546W        W 7410   2.191   6.959  28.851
 6547W        W 7411   3.555   5.972  28.462
 6548W        W 7412   3.131   6.629   0.119
 6549W        W 7413   0.760   7.193  27.514
 6550W        W 7414   3.649   5.795  26.666
 6551W        W 7415   2.109   5.026  26.951
 6552W        W 7416   1.907   3.780  26.601
 6553W        W 7417   1.046   6.695  26.585
 6554W        W 7418   1.438   4.620  27.785
 6555W        W 7419   1.296   3.878  27.339
 6556W        W 7420   0.343   6.974  25.870
 6557W        W 7421   1.951   5.949  26.831
 6558W        W 7422   1.133   6.885  28.529
 6559W        W 7423   0.434   5.661  26.159
 6560W        W 7424   0.337   4.117  27.099
 6561W        W 7425   1.720   6.182  27.224
 6562W        W 7426   0.074   4.027  26.150
 6563W        W 7427   2.590   5.244  28.198
 6564W        W 7428   2.645   4.576  25.694
 6565W        W 7429   3.124   6.320  27.362
 6566W        W 7430   1.878   6.667  27.303
 6567W        W 7431   1.198   6.835  26.083
 6568W        W 7432   2.458   3.723  25.548
 6569W        W 7433   0.278   7.022  27.420
 6570W        W 7434   2.379   4.622  28.973
 6571W        W 7435   0.576   4.492   0.019
 6572W        W 7436   0.383   4.718  26.532
 6573W        W 7437   1.176   5.039  25.936
 6574W        W 7438   2.537   5.069  28.762
 6575W        W 7439   0.956   5.731  27.491
 6576W        W 7440   2.437   3.851  26.743
 6577W        W 7441   1.597   7.083  27.134
 6578W        W 7442   2.964   6.864  27.996
 6579W        W 7443   2.703   6.599  27.192
 6580W        W 7444   2.472   5.859  26.902
 6581W        W 7445   1.895   4.057  26.028
 6582W        W 7446   3.601   3.780  26.738
 6583W        W 7447   1.153   5.300  25.418
 6584W        W 7448   3.365   4.600  26.844
 6585W        W 7449   1.899   5.748  25.549
 6586W        W 7450   3.035   5.924  28.489
 6587W        W 7451   2.611   6.880  25.413
 6588W        W 7452   1.383   4.343  28.505
 6589W        W 7453   1.210   5.067  27.892
 6590W        W 7454   3.218   6.365  28.284
 6591W        W 7455   2.336   4.151  28.497
 6592W        W 7456   0.200   4.959  28.350
 6593W        W 7457   1.947   5.331  28.016
 6594W        W 7458   0.446   6.076  26.810
 6595W        W 7459   0.488   5.490  27.611
 6596W        W 7460   2.717   5.749  28.127
 6597W        W 7461   2.696   6.838  28.932
 6598W        W 7462   2.494   4.641  28.462
 6599W        W 7463   2.803   7.055  26.875
 6600W        W 7464   1.856   6.666  28.048
 6601W        W 7465   1.110   6.821  27.448
 6602W        W 7466   3.053   6.072  27.890
 6603W        W 7467   1.940   6.156  28.942
 6604W        W 7468   0.666   6.135  27.292
 6605W        W 7469   2.967   5.788  27.140
 6606W        W 7470   2.587   7.093  27.728
 6607W        W 7471   0.610   6.654  27.507
 6608W        W 7472   1.598   4.649  28.880
 6609W        W 7473   1.846   6.873  26.274
 6610W        W 7474   1.435   6.159  28.946
 6611W        W 7475   1.464   6.477  26.354
 6612W        W 7476   0.755   5.006  25.548
 6613W        W 7477   0.210  10.962   3.372
 6614W        W 7478   0.585   9.798   3.058
 6615W        W 7479   3.207   9.402   0.767
 6616W        W 7480   3.368  10.666   2.774
 6617W        W 7481   1.461  10.580   0.327
 6618W        W 7482   1.240   8.742   1.107
 6619W        W 7483   0.780   8.578   1.332
 6620W        W 7484   1.712   9.305   0.678
 6621W        W 7485   1.652  10.540   3.052
 6622W        W 7486   0.173   8.035   2.994
 6623W        W 7487   0.859   7.239   2.741
 6624W        W 7488   2.498   7.595   1.666
 6625W        W 7489   2.306   8.465   0.409
 6626W        W 7490   2.775   8.145   3.350
 6627W        W 7491   0.283   7.748   2.577
 6628W        W 7492   0.441  10.509   3.468
 6629W        W 7493   1.644   9.692   0.316
 6630W        W 7494   0.295   8.521   2.048
 6631W        W 7495   1.118   8.611   3.341
 6632W        W 7496   3.478   8.254   1.849
 6633W        W 7497   3.354   9.380   2.535
 6634W        W 7498   1.651   8.693   1.644
 6635W        W 7499   2.263  10.158   2.039
 6636W        W 7500   0.623   9.461   2.253
 6637W        W 7501   0.020   8.918   1.829
 6638W        W 7502   1.208   8.976   2.962
 6639W        W 7503   3.411   8.668   3.106
 6640W        W 7504   0.965  10.108   1.651
 6641W        W 7505   2.111   9.949   2.645
 6642W        W 7506   1.307   8.391   2.008
 6643W        W 7507   1.592   9.244   1.661
 6644W        W 7508   2.409  10.180   3.417
 6645W        W 7509   1.715   9.367   3.394
 6646W        W 7510   1.721   9.138   2.907
 6647W        W 7511   0.160   8.345   3.415
 6648W        W 7512   2.816   9.992   3.154
 6649W        W 7513   0.523   7.535   1.214
 6650W        W 7514   1.038   9.759   2.185
 6651W        W 7515   3.368   9.758   1.549
 6652W        W 7516   2.775   7.895   2.006
 6653W        W 7517   3.191   7.982   0.088
 6654W        W 7518   4.002   8.961   2.325
 6655W        W 7519   1.589  10.465   2.156
 6656W        W 7520   3.382   9.913   0.839
 6657W        W 7521   0.556  10.953   0.730
 6658W        W 7522   0.899  10.829   1.096
 6659W        W 7523   0.791   7.710   2.505
 6660W        W 7524   3.296   8.388   2.675
 6661W        W 7525   2.652   8.939   1.373
 6662W        W 7526   2.693   8.605   0.122
 6663W        W 7527   1.832   9.928   2.204
 6664W        W 7528   1.661   8.126   1.526
 6665W        W 7529   2.166  10.432   2.490
 6666W        W 7530   3.144   9.085   1.197
 6667W        W 7531   2.226   7.768   0.984
 6668W        W 7532   0.716  10.475   0.774
 6669W        W 7533   0.203   7.930   1.251
 6670W        W 7534   2.950   8.402   1.914
 6671W        W 7535   0.431  10.117   1.670
 6672W        W 7536   1.762  10.359   0.701
 6673W        W 7537   3.178   8.489   0.068
 6674W        W 7538   0.259  10.275   2.342
 6675W        W 7539   1.022   9.977   2.817
 6676W        W 7540   1.257   9.268   1.250
 6677W        W 7541   1.235   7.860   2.261
 6678W        W 7542   3.675   7.416   1.832
 6679W        W 7543   0.741   9.182   0.206
 6680W        W 7544   0.579   8.426   0.571
 6681W        W 7545   0.592  10.147   1.180
 6682W        W 7546   1.560   9.682   1.257
 6683W        W 7547   2.936  10.505   2.982
 6684W        W 7548   1.993   8.191   0.746
 6685W        W 7549   3.282  10.745   1.578
 6686W        W 7550   2.884   8.504   2.972
 6687W        W 7551   3.600  10.134   1.264
 6688W        W 7552   2.286   9.462   2.720
 6689W        W 7553   0.270   8.820   0.786
 6690W        W 7554   0.966   9.513   2.625
 6691W        W 7555   2.264   8.615   0.909
 6692W        W 7556   2.241   9.119   1.037
 6693W        W 7557   0.548   8.608   2.491
 6694W        W 7558   0.627   8.506   3.259
 6695W        W 7559   0.609   7.371   1.699
 6696W        W 7560   2.210   7.869   2.030
 6697W        W 7561   1.923   7.904   3.304
 6698W        W 7562   2.393   7.702   0.481
 6699W        W 7563   3.410  10.378   3.209
 6700W        W 7564   2.194   7.474   3.200
 6701W        W 7565   3.302   9.842   3.278
 6702W        W 7566   2.853   7.987   2.854
 6703W        W 7567   2.654   7.883   1.229
 6704W        W 7568   2.976   8.935   3.227
 6705W        W 7569   0.705  10.539   1.526
 6706W        W 7570   1.461   8.278   0.744
 6707W        W 7571   1.009   7.639   3.119
 6708W        W 7572   2.994   8.230   1.013
 6709W        W 7573   3.350   8.619   0.930
 6710W        W 7574   1.275  10.878   3.096
 6711W        W 7575   1.123   7.329   0.597
 6712W        W 7576   3.437   7.801   1.599
 6713W        W 7577   3.599  10.167   0.196
 6714W        W 7578   0.339   9.351   1.790
 6715W        W 7579   2.456   7.784  28.968
 6716W        W 7580   3.555  10.333   1.765
 6717W        W 7581   3.430   7.466   2.443
 6718W        W 7582   1.969   8.726   3.139
 6719W        W 7583   1.803   9.821   0.797
 6720W        W 7584   2.567   9.125   3.520
 6721W        W 7585   1.991   7.423   1.874
 6722W        W 7586   0.802   8.279   1.824
 6723W        W 7587   0.427   9.405   2.734
 6724W        W 7588   2.175  10.608   1.523
 6725W        W 7589   3.197   8.081   2.259
 6726W        W 7590   2.132  10.713   2.917
 6727W        W 7591   3.334   9.344   0.289
 6728W        W 7592   1.727   9.018   1.203
 6729W        W 7593   3.560   7.460   2.942
 6730W        W 7594   1.835   9.507   2.506
 6731W        W 7595   2.045   8.349   1.784
 6732W        W 7596   2.843   8.730   0.950
 6733W        W 7597   2.967   8.443   0.545
 6734W        W 7598   2.988  10.194   1.005
 6735W        W 7599   2.810   9.857   1.614
 6736W        W 7600   2.578   8.887   0.559
 6737W        W 7601   2.096   9.244   1.526
 6738W        W 7602   3.090   8.901   1.776
 6739W        W 7603   0.479   8.070   2.216
 6740W        W 7604   3.189   8.898   2.698
 6741W        W 7605   3.495  10.729   2.099
 6742W        W 7606   1.430  10.239   1.491
 6743W        W 7607   2.592  10.735   2.663
 6744W        W 7608   2.496   7.965   2.477
 6745W        W 7609   1.728  10.763   2.592
 6746W        W 7610   3.242   7.802   1.105
 6747W        W 7611   3.064   9.099   2.233
 6748W        W 7612   0.100   8.280   2.502
 6749W        W 7613   3.001   8.069   1.541
 6750W        W 7614   3.247   8.178   3.136
 6751W        W 7615   2.266  10.084   1.519
 6752W        W 7616   1.590  10.601   1.163
 6753W        W 7617   0.715   7.769   0.453
 6754W        W 7618   1.651   7.503   2.289
 6755W        W 7619   0.975  10.419   0.346
 6756W        W 7620   1.210   9.129   0.752
 6757W        W 7621   1.850   9.665   2.997
 6758W        W 7622   1.730   7.880   1.071
 6759W        W 7623   2.990   7.548   1.477
 6760W        W 7624   2.792  10.863   1.765
 6761W        W 7625   2.054  10.631   2.037
 6762W        W 7626   1.494   9.512   2.101
 6763W        W 7627   3.329  10.326   2.384
 6764W        W 7628   0.930   7.689   0.935
 6765W        W 7629   1.401  10.024   1.949
 6766W        W 7630   1.128   7.706   0.163
 6767W        W 7631   1.758   8.557   2.154
 6768W        W 7632   2.524   7.480   2.208
 6769W        W 7633   0.121   9.372   2.261
 6770W        W 7634   1.607   8.969   0.270
 6771W        W 7635   0.764   7.304   0.231
 6772W        W 7636   1.703   8.484   1.159
 6773W        W 7637   2.507   7.534   2.756
 6774W        W 7638   1.356   9.503   2.983
 6775W        W 7639   2.168   9.253   3.197
 6776W        W 7640   2.651   9.286   3.029
 6777W        W 7641   1.989   7.583   3.707
 6778W        W 7642   1.228   7.951   1.747
 6779W        W 7643   0.730   8.037   1.350
 6780W        W 7644   0.384  10.665   1.127
 6781W        W 7645   1.990  10.174   3.098
 6782W        W 7646   0.827   9.595   0.514
 6783W        W 7647   2.532   9.177   1.810
 6784W        W 7648   2.675   8.788   2.119
 6785W        W 7649   1.992   9.392   2.017
 6786W        W 7650   2.451   9.607   0.032
 6787W        W 7651   2.052   7.789   1.510
 6788W        W 7652   3.629   8.155   0.860
 6789W        W 7653   0.408  10.687   2.950
 6790W        W 7654   0.601   9.895   2.532
 6791W        W 7655   0.064  10.773   0.707
 6792W        W 7656   2.036   8.201   2.406
 6793W        W 7657   1.379  10.096   0.488
 6794W        W 7658   3.252  10.364   0.552
 6795W        W 7659   2.066   8.925   0.533
 6796W        W 7660   0.950   8.297   0.927
 6797W        W 7661   2.077   8.038   0.237
 6798W        W 7662   2.341   9.794   3.085
 6799W        W 7663   2.816   7.723   0.780
 6800W        W 7664   0.277   7.488   0.360
 6801W        W 7665   1.419   9.791   2.546
 6802W        W 7666   1.220   9.618   1.670
 6803W        W 7667   1.046   9.897   0.174
 6804W        W 7668   0.249  10.281   0.796
 6805W        W 7669   0.783   8.995   3.455
 6806W        W 7670   1.475   7.655   3.344
 6807W        W 7671   2.025   7.760   2.680
 6808W        W 7672   1.374   7.459   1.093
 6809W        W 7673   2.201   7.308   0.753
 6810W        W 7674   0.354   7.540   2.122
 6811W        W 7675   0.352   8.367   1.561
 6812W        W 7676   3.195   7.575   1.996
 6813W        W 7677   0.527   7.983   0.863
 6814W        W 7678   2.939   7.665   2.453
 6815W        W 7679   3.491   8.872   0.201
 6816W        W 7680   0.806   7.767   1.974
 6817W        W 7681   1.944   8.248   2.921
 6818W        W 7682   0.244   8.002   0.422
 6819W        W 7683   0.862   9.357   3.089
 6820W        W 7684   2.093   8.882   1.904
 6821W        W 7685   1.951  10.665   0.286
 6822W        W 7686   0.222   9.299   0.165
 6823W        W 7687   1.061   9.790   3.302
 6824W        W 7688   0.594   8.935   2.954
 6825W        W 7689   1.377   9.217   2.514
 6826W        W 7690   3.007   7.343   2.860
 6827W        W 7691   3.797   9.226   2.755
 6828W        W 7692   3.585   9.060   0.668
 6829W        W 7693   2.339   9.379   0.586
 6830W        W 7694   2.967  10.793   0.183
 6831W        W 7695   2.130   8.804   3.632
 6832W        W 7696   0.287   9.705   3.665
 6833W        W 7697   3.698   7.818   3.328
 6834W        W 7698   3.311   8.617   2.215
 6835W        W 7699   1.610  10.810   3.478
 6836W        W 7700   1.546   7.453   0.304
 6837W        W 7701   3.228   9.841   0.343
 6838W        W 7702   0.667   8.004   3.213
 6839W        W 7703   1.473  10.033   3.074
 6840W        W 7704   3.337   7.875   2.725
 6841W        W 7705   2.700  10.971   0.587
 6842W        W 7706   2.806   9.542   2.050
 6843W        W 7707   1.088   8.042   2.789
 6844W        W 7708   1.554   8.870   3.385
 6845W        W 7709   0.950  10.030   0.769
 6846W        W 7710   2.739   9.247   0.910
 6847W        W 7711   0.584   8.155   2.724
 6848W        W 7712   1.870  10.165   1.215
 6849W        W 7713   3.530   8.705   1.587
 6850W        W 7714   1.746   7.406   2.939
 6851W        W 7715   2.746  10.051   2.091
 6852W        W 7716   3.058  10.472   1.971
 6853W        W 7717   2.137   9.828   0.381
 6854W        W 7718   0.222  10.072   3.321
 6855W        W 7719   0.939   8.283   2.354
 6856W        W 7720   1.002   7.594   1.453
 6857W        W 7721   2.464   8.314   2.101
 6858W        W 7722   1.250   9.385   0.314
 6859W        W 7723   3.341   9.493   2.017
 6860W        W 7724   0.680  10.043   3.526
 6861W        W 7725   3.103  10.986   0.924
 6862W        W 7726   1.255   7.979   1.208
 6863W        W 7727   0.805   9.289   1.508
 6864W        W 7728   1.247  10.757   2.403
 6865W        W 7729   3.223  10.865   3.251
 6866W        W 7730   2.361   9.168   2.298
 6867W        W 7731   0.369   8.816   0.281
 6868W        W 7732   3.359  10.555   1.088
 6869W        W 7733   3.212   7.982   0.603
 6870W        W 7734   1.284   7.546   2.672
 6871W        W 7735   3.131  10.244   1.497
 6872W        W 7736   3.061   8.583   1.391
 6873W        W 7737   1.229   8.403   1.496
 6874W        W 7738   1.784   8.650   2.660
 6875W        W 7739   2.636   9.862   2.675
 6876W        W 7740   1.419   8.443   2.950
 6877W        W 7741   1.210  10.745   1.494
 6878W        W 7742   0.793  10.809   3.247
 6879W        W 7743   0.575  10.055   0.408
 6880W        W 7744   3.031   9.652   1.178
 6881W        W 7745   0.926   8.545   2.834
 6882W        W 7746   3.497   8.437   0.465
 6883W        W 7747   1.297   9.638   0.781
 6884W        W 7748   2.185   8.974   2.756
 6885W        W 7749   2.226   8.674   2.358
 6886W        W 7750   0.874   9.021   2.512
 6887W        W 7751   3.032  10.798   2.372
 6888W        W 7752   2.696   7.616   3.225
 6889W        W 7753   0.517   7.559   2.997
 6890W        W 7754   0.917   8.734   2.071
 6891W        W 7755   1.352   8.505   0.141
 6892W        W 7756   0.301  10.199   2.842
 6893W        W 7757   1.424   8.944   2.054
 6894W        W 7758   1.561   8.008   0.255
 6895W        W 7759   0.770   8.867   0.890
 6896W        W 7760   0.365  10.789   2.460
 6897W        W 7761   3.100   8.936   0.543
 6898W        W 7762   3.191   7.681   3.213
 6899W        W 7763   2.571   9.911   1.141
 6900W        W 7764   0.288   8.856   3.416
 6901W        W 7765   3.241   7.442   0.557
 6902W        W 7766   2.844   9.764   0.711
 6903W        W 7767   1.614   8.786   0.750
 6904W        W 7768   2.863   7.619   0.252
 6905W        W 7769   2.829   8.399   2.454
 6906W        W 7770   0.511   8.871   1.649
 6907W        W 7771   1.028   9.813   1.232
 6908W        W 7772   2.589   8.425   1.271
 6909W        W 7773   1.694   8.005   2.032
 6910W        W 7774   3.570   9.860   2.393
 6911W        W 7775   3.629   7.829   2.138
 6912W        W 7776   0.133  10.549   1.558
 6913W        W 7777   0.470   9.791   0.838
 6914W        W 7778   0.669   7.583   3.551
 6915W        W 7779   1.664  10.275   3.501
 6916W        W 7780   3.491   9.246   1.569
 6917W        W 7781   2.820   9.348   0.400
 6918W        W 7782   2.183  10.965   2.418
 6919W        W 7783   2.989   9.429   3.402
 6920W        W 7784   1.676   7.232   0.743
 6921W        W 7785   2.471   8.105   1.642
 6922W        W 7786   0.311   9.830   2.089
 6923W        W 7787   1.364   7.780   0.677
 6924W        W 7788   1.220   9.267   3.442
 6925W        W 7789   2.129   8.213   1.246
 6926W        W 7790   2.354   9.694   2.270
 6927W        W 7791   0.747  10.311   3.090
 6928W        W 7792   1.188  10.432   3.366
 6929W        W 7793   1.047   8.168   0.408
 6930W        W 7794   2.521   8.169   0.798
 6931W        W 7795   2.459  10.293   2.907
 6932W        W 7796   1.143   8.901   1.614
 6933W        W 7797   0.722  10.414   2.572
 6934W        W 7798   3.474  10.670   0.157
 6935W        W 7799   0.403   9.345   3.300
 6936W        W 7800   2.350   9.659   1.766
 6937W        W 7801   0.825   9.411   0.989
 6938W        W 7802   1.176  10.224   2.375
 6939W        W 7803   1.564   7.589   1.570
 6940W        W 7804   0.139   9.721   0.432
 6941W        W 7805   1.798   8.482   0.374
 6942W        W 7806   0.427   9.150   1.176
 6943W        W 7807   1.565   7.913   2.915
 6944W        W 7808   3.328   7.474   0.041
 6945W        W 7809   3.379   9.224   3.067
 6946W        W 7810   2.079  10.606   3.421
 6947W        W 7811   3.570   9.705   2.867
 6948W        W 7812   2.953  10.387   3.479
 6949W        W 7813   0.804  10.892   2.193
 6950W        W 7814   3.555   9.505   1.117
 6951W        W 7815   2.139   8.723   1.403
 6952W        W 7816   1.894   7.398   1.196
 6953W        W 7817   1.040  10.352   1.196
 6954W        W 7818   1.517   8.221   2.490
 6955W        W 7819   1.196   7.447   1.937
 6956W        W 7820   0.365  10.519   0.347
 6957W        W 7821   2.090   9.674   1.239
 6958W        W 7822   1.191  10.458   2.831
 6959W        W 7823   0.442   9.283   0.643
 6960W        W 7824   0.363   7.878   1.735
 6961W        W 7825   1.809   9.747   1.699
 6962W        W 7826   0.146   7.645   0.828
 6963W        W 7827   2.673   8.873   2.642
 6964W        W 7828   2.679   8.104   0.301
 6965W        W 7829   3.242   9.994   1.980
 6966W        W 7830   1.848  10.254   1.760
 6967W        W 7831   1.251  10.531   0.782
 6968W        W 7832   2.484   7.274   0.153
 6969W        W 7833   0.444  10.584   1.974
 6970W        W 7834   2.263   8.353   3.344
 6971W        W 7835   0.573   8.106   3.709
 6972W        W 7836   0.365   8.411   1.057
 6973W        W 7837   1.129   8.653   0.580
 6974W        W 7838   2.480   8.792   3.141
 6975W        W 7839   1.017   9.257   2.003
 6976W        W 7840   2.544   7.376   1.166
 6977W        W 7841   1.688  10.749   1.674
 6978W        W 7842   2.837  10.310   2.516
 6979W        W 7843   2.646  10.372   1.681
 6980W        W 7844   2.555   9.444   1.348
 6981W        W 7845   1.880   7.703   0.597
 6982W        W 7846   3.532   7.405   1.268
 6983W        W 7847   1.176   8.990  29.000
 6984W        W 7848   3.428   8.242   1.315
 6985W        W 7849   1.988   9.325   0.211
 6986W        W 7850   3.048   9.597   2.903
 6987W        W 7851   2.736   9.978   0.250
 6988W        W 7852   1.206   8.096   3.310
 6989W        W 7853   1.286   8.686   2.480
 6990W        W 7854   3.204  10.088   2.823
 6991W        W 7855   2.367   7.962   3.017
 6992W        W 7856   0.222   8.559   2.931
 6993W        W 7857   1.843   9.033   2.345
 6994W        W 7858   0.443   9.656   1.345
 6995W        W 7859   0.476   8.994   2.146
 6996W        W 7860   2.768   9.379   2.535
 6997W        W 7861   2.553  10.709   3.253
 6998W        W 7862   2.405   8.423   2.771
 6999W        W 7863   2.864  10.662   1.282
 7000W        W 7864   1.671  10.239   2.626
 7001W        W 7865   1.096  10.517   1.945
 7002W        W 7866   3.068   9.800   2.417
 7003W        W 7867   2.002   9.814   3.491
 7004W        W 7868   0.714   9.697   1.797
 7005W        W 7869   2.994   9.371   1.610
 7006W        W 7870   2.564  10.589   2.157
 7007W        W 7871   0.723  10.165   2.104
 7008W        W 7872   1.691   8.353   3.371
 7009W        W 7873   2.096  10.625   0.997
 7010W        W 7874   1.489   9.786   3.583
 7011W        W 7875   1.417  10.096   0.995
 7012W        W 7876   0.833   8.641   0.147
 7013W        W 7877   0.242  11.042   7.042
 7014W        W 7878   0.543   9.854   6.632
 7015W        W 7879   3.328   9.437   4.597
 7016W        W 7880   3.427  10.687   6.471
 7017W        W 7881   1.423  10.553   3.882
 7018W        W 7882   1.186   8.740   4.702
 7019W        W 7883   0.735   8.667   5.030
 7020W        W 7884   1.654   9.210   4.366
 7021W        W 7885   1.658  10.559   6.619
 7022W        W 7886   0.206   8.105   6.629
 7023W        W 7887   0.885   7.185   6.509
 7024W        W 7888   2.523   7.718   5.308
 7025W        W 7889   2.344   8.523   4.050
 7026W        W 7890   2.799   8.086   6.996
 7027W        W 7891   0.330   7.810   6.187
 7028W        W 7892   0.441  10.563   7.095
 7029W        W 7893   1.750   9.596   3.999
 7030W        W 7894   0.188   8.501   5.616
 7031W        W 7895   1.074   8.539   6.884
 7032W        W 7896   3.314   8.220   5.391
 7033W        W 7897   3.217   9.367   6.141
 7034W        W 7898   1.593   8.617   5.225
 7035W        W 7899   2.400  10.202   5.775
 7036W        W 7900   0.615   9.481   5.879
 7037W        W 7901   0.011   8.991   5.600
 7038W        W 7902   1.181   8.970   6.571
 7039W        W 7903   3.362   8.734   6.804
 7040W        W 7904   0.918  10.173   5.246
 7041W        W 7905   2.121   9.984   6.376
 7042W        W 7906   1.321   8.333   5.592
 7043W        W 7907   1.443   9.330   5.341
 7044W        W 7908   2.453  10.127   7.182
 7045W        W 7909   1.608   9.358   7.070
 7046W        W 7910   1.682   9.131   6.589
 7047W        W 7911   0.107   8.500   7.156
 7048W        W 7912   2.856   9.985   6.895
 7049W        W 7913   0.519   7.475   4.833
 7050W        W 7914   1.025   9.972   5.852
 7051W        W 7915   3.530   9.795   5.360
 7052W        W 7916   2.782   8.107   5.632
 7053W        W 7917   3.242   8.031   3.616
 7054W        W 7918   3.491   8.777   6.003
 7055W        W 7919   1.566  10.574   5.712
 7056W        W 7920   3.398  10.352   4.483
 7057W        W 7921   0.577  10.958   4.280
 7058W        W 7922   0.914  10.837   4.679
 7059W        W 7923   0.747   7.506   6.126
 7060W        W 7924   3.201   8.526   6.354
 7061W        W 7925   2.508   8.912   4.937
 7062W        W 7926   2.628   8.625   3.618
 7063W        W 7927   1.942   9.853   5.896
 7064W        W 7928   1.606   8.085   5.109
 7065W        W 7929   2.257  10.459   6.234
 7066W        W 7930   3.019   9.041   4.773
 7067W        W 7931   2.175   7.653   4.508
 7068W        W 7932   0.771  10.480   4.336
 7069W        W 7933   0.132   7.822   4.874
 7070W        W 7934   2.597   8.591   5.370
 7071W        W 7935   0.405  10.132   5.236
 7072W        W 7936   1.478  10.041   4.094
 7073W        W 7937   3.115   8.513   3.512
 7074W        W 7938   0.259  10.387   5.972
 7075W        W 7939   1.004  10.026   6.406
 7076W        W 7940   1.356   9.223   4.806
 7077W        W 7941   1.232   7.632   5.934
 7078W        W 7942   3.463   7.460   5.549
 7079W        W 7943   0.779   9.078   3.978
 7080W        W 7944   0.528   8.305   4.187
 7081W        W 7945   0.645  10.224   4.787
 7082W        W 7946   1.512   9.685   4.963
 7083W        W 7947   2.990  10.465   6.653
 7084W        W 7948   1.906   8.363   4.285
 7085W        W 7949   3.101  10.829   5.232
 7086W        W 7950   2.857   8.565   6.733
 7087W        W 7951   3.730  10.135   5.017
 7088W        W 7952   2.236   9.489   6.439
 7089W        W 7953   0.182   8.975   4.665
 7090W        W 7954   1.039   9.566   6.147
 7091W        W 7955   2.184   8.683   4.581
 7092W        W 7956   2.071   9.173   4.718
 7093W        W 7957   0.635   8.525   5.945
 7094W        W 7958   0.546   8.438   6.860
 7095W        W 7959   0.677   7.339   5.328
 7096W        W 7960   2.114   7.829   5.590
 7097W        W 7961   1.945   7.909   6.922
 7098W        W 7962   2.377   7.778   4.031
 7099W        W 7963   3.448  10.424   6.914
 7100W        W 7964   2.335   7.408   6.760
 7101W        W 7965   3.289   9.750   7.042
 7102W        W 7966   2.862   8.085   6.469
 7103W        W 7967   2.481   7.900   4.829
 7104W        W 7968   2.922   8.983   7.034
 7105W        W 7969   0.738  10.639   5.136
 7106W        W 7970   1.435   8.230   4.147
 7107W        W 7971   1.059   7.536   6.865
 7108W        W 7972   2.884   8.184   4.577
 7109W        W 7973   3.208   8.600   4.528
 7110W        W 7974   1.324  10.788   6.964
 7111W        W 7975   1.073   7.320   4.099
 7112W        W 7976   3.326   7.776   5.145
 7113W        W 7977   3.440  10.141   3.673
 7114W        W 7978   0.366   9.389   5.427
 7115W        W 7979   2.379   7.879   3.530
 7116W        W 7980   3.503  10.156   5.730
 7117W        W 7981   3.439   7.490   6.101
 7118W        W 7982   1.969   8.629   6.761
 7119W        W 7983   1.827   9.657   4.555
 7120W        W 7984   2.481   9.150   7.267
 7121W        W 7985   2.085   7.373   5.363
 7122W        W 7986   0.805   8.256   5.473
 7123W        W 7987   0.348   9.486   6.315
 7124W        W 7988   2.276  10.566   5.332
 7125W        W 7989   3.203   8.318   5.889
 7126W        W 7990   2.152  10.673   6.704
 7127W        W 7991   3.021   8.972   3.743
 7128W        W 7992   1.705   8.814   4.750
 7129W        W 7993   3.643   7.516   6.630
 7130W        W 7994   1.786   9.459   6.190
 7131W        W 7995   1.871   8.286   5.502
 7132W        W 7996   2.689   8.679   4.468
 7133W        W 7997   2.967   8.552   4.047
 7134W        W 7998   2.996  10.336   4.840
 7135W        W 7999   2.702   9.768   5.588
 7136W        W 8000   2.503   8.999   4.019
 7137W        W 8001   1.857   9.075   5.194
 7138W        W 8002   2.871   9.051   5.271
 7139W        W 8003   0.402   8.056   5.748
 7140W        W 8004   3.059   9.033   6.515
 7141W        W 8005   3.603  10.637   5.959
 7142W        W 8006   1.437  10.297   5.259
 7143W        W 8007   2.610  10.756   6.458
 7144W        W 8008   2.425   8.030   6.165
 7145W        W 8009   1.691  10.807   6.153
 7146W        W 8010   3.249   7.779   4.619
 7147W        W 8011   2.986   8.898   6.004
 7148W        W 8012   0.199   8.354   6.164
 7149W        W 8013   2.863   8.090   5.122
 7150W        W 8014   3.247   8.238   6.790
 7151W        W 8015   2.301   9.977   5.303
 7152W        W 8016   1.585  10.599   4.784
 7153W        W 8017   0.617   7.739   4.077
 7154W        W 8018   1.653   7.365   5.679
 7155W        W 8019   0.909  10.430   3.825
 7156W        W 8020   1.145   9.111   4.328
 7157W        W 8021   1.806   9.680   6.671
 7158W        W 8022   1.704   7.808   4.663
 7159W        W 8023   2.877   7.592   4.949
 7160W        W 8024   2.625  10.930   5.424
 7161W        W 8025   2.065  10.664   5.805
 7162W        W 8026   1.433   9.575   5.809
 7163W        W 8027   3.268  10.297   6.166
 7164W        W 8028   0.907   7.614   4.502
 7165W        W 8029   1.497  10.077   5.734
 7166W        W 8030   1.087   7.793   3.807
 7167W        W 8031   1.666   8.493   5.936
 7168W        W 8032   2.553   7.645   5.822
 7169W        W 8033   0.097   9.438   5.860
 7170W        W 8034   1.661   9.101   3.840
 7171W        W 8035   1.146   7.338   3.561
 7172W        W 8036   1.519   8.337   4.655
 7173W        W 8037   2.635   7.595   6.349
 7174W        W 8038   1.332   9.514   6.563
 7175W        W 8039   2.103   9.255   6.898
 7176W        W 8040   2.607   9.255   6.713
 7177W        W 8041   1.966   7.551   7.304
 7178W        W 8042   1.175   7.898   5.326
 7179W        W 8043   0.766   7.971   5.019
 7180W        W 8044   0.427  10.681   4.685
 7181W        W 8045   1.992  10.168   6.852
 7182W        W 8046   0.846   9.573   4.159
 7183W        W 8047   2.336   9.058   5.407
 7184W        W 8048   2.494   8.807   5.839
 7185W        W 8049   1.825   9.267   5.685
 7186W        W 8050   2.508   9.636   3.524
 7187W        W 8051   2.032   7.780   5.065
 7188W        W 8052   3.512   8.152   4.386
 7189W        W 8053   0.413  10.762   6.594
 7190W        W 8054   0.576   9.951   6.118
 7191W        W 8055   0.072  10.765   4.295
 7192W        W 8056   1.948   8.069   5.995
 7193W        W 8057   1.060   9.911   3.835
 7194W        W 8058   3.265  10.779   4.179
 7195W        W 8059   1.989   8.872   4.150
 7196W        W 8060   0.870   8.340   4.653
 7197W        W 8061   2.048   8.179   3.789
 7198W        W 8062   2.391   9.702   6.889
 7199W        W 8063   2.749   7.701   4.417
 7200W        W 8064   0.277   7.400   3.886
 7201W        W 8065   1.482   9.885   6.219
 7202W        W 8066   1.239   9.805   5.381
 7203W        W 8067   0.778   9.498   3.639
 7204W        W 8068   0.304  10.267   4.374
 7205W        W 8069   0.753   8.946   6.879
 7206W        W 8070   1.520   7.643   7.051
 7207W        W 8071   2.076   7.671   6.365
 7208W        W 8072   1.381   7.381   4.669
 7209W        W 8073   2.277   7.286   4.129
 7210W        W 8074   0.396   7.448   5.746
 7211W        W 8075   0.397   8.296   5.157
 7212W        W 8076   2.980   7.616   5.506
 7213W        W 8077   0.528   7.956   4.564
 7214W        W 8078   3.009   7.824   6.021
 7215W        W 8079   3.522   8.819   3.593
 7216W        W 8080   0.807   7.739   5.644
 7217W        W 8081   1.934   8.191   6.489
 7218W        W 8082   0.132   7.892   3.947
 7219W        W 8083   0.815   9.383   6.564
 7220W        W 8084   1.995   8.764   5.640
 7221W        W 8085   1.916  10.764   3.892
 7222W        W 8086   0.311   9.210   3.808
 7223W        W 8087   1.014   9.795   6.880
 7224W        W 8088   0.459   9.007   6.457
 7225W        W 8089   1.361   9.163   6.122
 7226W        W 8090   3.105   7.430   6.493
 7227W        W 8091   3.570   9.137   6.414
 7228W        W 8092   3.428   8.852   4.126
 7229W        W 8093   2.149   9.354   4.235
 7230W        W 8094   2.883  10.878   3.628
 7231W        W 8095   2.069   8.780   7.263
 7232W        W 8096   0.213   9.732   7.254
 7233W        W 8097   3.686   7.862   7.069
 7234W        W 8098   3.116   8.681   5.532
 7235W        W 8099   1.812  10.874   7.077
 7236W        W 8100   1.523   7.479   3.869
 7237W        W 8101   2.942   9.894   3.652
 7238W        W 8102   0.893   8.039   6.843
 7239W        W 8103   1.444  10.090   6.693
 7240W        W 8104   3.355   7.911   6.399
 7241W        W 8105   2.760  11.024   4.108
 7242W        W 8106   2.701   9.275   5.713
 7243W        W 8107   1.076   7.781   6.409
 7244W        W 8108   1.538   8.819   6.993
 7245W        W 8109   1.014  10.034   4.365
 7246W        W 8110   2.558   9.190   4.514
 7247W        W 8111   0.664   8.144   6.383
 7248W        W 8112   1.848  10.079   5.027
 7249W        W 8113   3.422   8.673   5.099
 7250W        W 8114   1.837   7.392   6.755
 7251W        W 8115   2.965  10.149   5.773
 7252W        W 8116   3.179  10.590   5.678
 7253W        W 8117   2.057  10.253   3.822
 7254W        W 8118   0.163  10.133   6.929
 7255W        W 8119   0.970   8.123   5.960
 7256W        W 8120   1.020   7.525   5.004
 7257W        W 8121   2.327   8.324   5.741
 7258W        W 8122   1.266   9.422   3.925
 7259W        W 8123   3.214   9.189   5.640
 7260W        W 8124   0.623  10.027   7.124
 7261W        W 8125   3.133  10.921   4.690
 7262W        W 8126   1.214   7.939   4.762
 7263W        W 8127   0.966   9.408   5.158
 7264W        W 8128   1.194  10.874   5.978
 7265W        W 8129   3.216  10.867   6.952
 7266W        W 8130   2.246   9.229   5.990
 7267W        W 8131   0.367   8.803   4.177
 7268W        W 8132   3.431  10.556   4.953
 7269W        W 8133   3.095   7.997   4.120
 7270W        W 8134   1.381   7.309   6.529
 7271W        W 8135   3.232  10.225   5.301
 7272W        W 8136   2.943   8.589   4.990
 7273W        W 8137   1.158   8.366   5.085
 7274W        W 8138   1.568   8.627   6.439
 7275W        W 8139   2.621   9.829   6.469
 7276W        W 8140   1.169   8.284   6.452
 7277W        W 8141   1.258  10.797   5.172
 7278W        W 8142   0.819  10.863   6.886
 7279W        W 8143   0.589  10.030   4.028
 7280W        W 8144   3.266   9.876   4.916
 7281W        W 8145   0.800   8.637   6.439
 7282W        W 8146   3.447   8.385   3.915
 7283W        W 8147   1.310   9.611   4.434
 7284W        W 8148   2.158   8.991   6.457
 7285W        W 8149   2.138   8.561   6.151
 7286W        W 8150   0.866   9.062   6.135
 7287W        W 8151   3.020  10.740   6.145
 7288W        W 8152   2.789   7.525   6.912
 7289W        W 8153   0.603   7.653   6.633
 7290W        W 8154   0.969   8.731   5.615
 7291W        W 8155   1.072   8.319   3.777
 7292W        W 8156   0.273  10.272   6.455
 7293W        W 8157   1.463   8.895   5.662
 7294W        W 8158   1.569   7.987   3.718
 7295W        W 8159   0.711   8.898   4.557
 7296W        W 8160   0.379  10.889   6.103
 7297W        W 8161   2.981   9.053   4.257
 7298W        W 8162   3.232   7.746   6.877
 7299W        W 8163   2.795   9.961   5.129
 7300W        W 8164   0.258   8.949   6.985
 7301W        W 8165   3.298   7.506   4.169
 7302W        W 8166   2.866   9.539   4.794
 7303W        W 8167   1.491   8.727   4.274
 7304W        W 8168   2.848   7.730   3.723
 7305W        W 8169   2.739   8.423   6.084
 7306W        W 8170   0.507   8.881   5.441
 7307W        W 8171   1.025   9.851   4.855
 7308W        W 8172   2.502   8.402   4.855
 7309W        W 8173   1.591   7.874   5.622
 7310W        W 8174   3.542   9.843   6.153
 7311W        W 8175   3.507   7.912   5.811
 7312W        W 8176   0.207  10.609   5.140
 7313W        W 8177   0.558   9.805   4.508
 7314W        W 8178   0.671   7.681   7.166
 7315W        W 8179   1.608  10.378   7.130
 7316W        W 8180   3.392   9.180   5.146
 7317W        W 8181   2.790   9.415   3.902
 7318W        W 8182   2.181  10.978   6.223
 7319W        W 8183   2.835   9.495   7.102
 7320W        W 8184   1.765   7.363   4.320
 7321W        W 8185   2.313   8.171   5.254
 7322W        W 8186   0.288   9.876   5.677
 7323W        W 8187   1.361   7.731   4.281
 7324W        W 8188   1.111   9.294   6.978
 7325W        W 8189   2.020   8.219   4.789
 7326W        W 8190   2.430   9.732   6.014
 7327W        W 8191   0.701  10.337   6.718
 7328W        W 8192   1.099  10.287   7.056
 7329W        W 8193   0.971   8.063   4.243
 7330W        W 8194   2.383   8.153   4.396
 7331W        W 8195   2.479  10.273   6.677
 7332W        W 8196   1.170   8.919   5.189
 7333W        W 8197   0.739  10.453   6.191
 7334W        W 8198   3.376  10.647   3.693
 7335W        W 8199   0.402   9.421   6.868
 7336W        W 8200   2.230   9.547   5.575
 7337W        W 8201   0.863   9.399   4.654
 7338W        W 8202   1.270  10.369   6.100
 7339W        W 8203   1.545   7.552   5.167
 7340W        W 8204   0.179   9.720   4.172
 7341W        W 8205   1.689   8.571   3.829
 7342W        W 8206   0.532   9.154   4.988
 7343W        W 8207   1.588   7.790   6.531
 7344W        W 8208   3.374   7.552   3.665
 7345W        W 8209   3.344   9.243   6.900
 7346W        W 8210   2.152  10.535   7.213
 7347W        W 8211   3.575   9.609   6.620
 7348W        W 8212   3.003  10.394   7.189
 7349W        W 8213   0.889  10.962   5.535
 7350W        W 8214   3.682   9.552   4.953
 7351W        W 8215   2.108   8.629   5.126
 7352W        W 8216   1.884   7.330   4.846
 7353W        W 8217   1.120  10.390   4.839
 7354W        W 8218   1.456   8.059   6.104
 7355W        W 8219   1.167   7.381   5.492
 7356W        W 8220   0.418  10.558   3.969
 7357W        W 8221   2.042   9.559   5.061
 7358W        W 8222   1.137  10.526   6.565
 7359W        W 8223   0.460   9.296   4.336
 7360W        W 8224   0.392   7.773   5.317
 7361W        W 8225   1.756   9.748   5.431
 7362W        W 8226   0.189   7.601   4.385
 7363W        W 8227   2.618   8.843   6.356
 7364W        W 8228   2.664   8.175   3.868
 7365W        W 8229   3.230   9.696   5.747
 7366W        W 8230   1.924  10.245   5.529
 7367W        W 8231   1.281  10.503   4.369
 7368W        W 8232   2.458   7.383   3.639
 7369W        W 8233   0.434  10.705   5.597
 7370W        W 8234   2.300   8.311   7.046
 7371W        W 8235   0.730   8.185   7.318
 7372W        W 8236   0.381   8.498   4.646
 7373W        W 8237   0.969   8.609   4.207
 7374W        W 8238   2.428   8.811   6.871
 7375W        W 8239   1.041   9.256   5.670
 7376W        W 8240   2.387   7.396   4.932
 7377W        W 8241   1.783  10.714   5.259
 7378W        W 8242   2.741  10.286   6.219
 7379W        W 8243   2.763  10.425   5.394
 7380W        W 8244   2.552   9.466   5.186
 7381W        W 8245   1.851   7.854   4.146
 7382W        W 8246   3.602   7.446   4.862
 7383W        W 8247   1.210   8.850   3.805
 7384W        W 8248   3.303   8.227   4.875
 7385W        W 8249   2.126   9.322   3.720
 7386W        W 8250   3.038   9.551   6.615
 7387W        W 8251   2.509  10.535   3.768
 7388W        W 8252   1.406   8.121   6.885
 7389W        W 8253   1.186   8.642   6.072
 7390W        W 8254   3.276  10.029   6.601
 7391W        W 8255   2.407   7.921   6.676
 7392W        W 8256   0.130   8.633   6.598
 7393W        W 8257   1.812   8.951   6.091
 7394W        W 8258   0.525   9.677   5.002
 7395W        W 8259   0.406   9.008   5.930
 7396W        W 8260   2.713   9.349   6.225
 7397W        W 8261   2.614  10.676   6.976
 7398W        W 8262   2.416   8.406   6.541
 7399W        W 8263   2.668  10.713   4.959
 7400W        W 8264   1.787  10.301   6.110
 7401W        W 8265   1.082  10.487   5.615
 7402W        W 8266   3.020   9.839   6.179
 7403W        W 8267   1.965   9.738   7.151
 7404W        W 8268   0.737   9.755   5.469
 7405W        W 8269   3.064   9.546   5.281
 7406W        W 8270   2.590  10.680   5.875
 7407W        W 8271   0.641  10.246   5.679
 7408W        W 8272   1.774   8.356   7.150
 7409W        W 8273   1.782  10.421   4.272
 7410W        W 8274   1.464   9.866   7.153
 7411W        W 8275   1.482  10.083   4.625
 7412W        W 8276   0.627   8.618   3.771
 7413W        W 8277   0.170  10.990  10.652
 7414W        W 8278   0.537   9.806  10.328
 7415W        W 8279   3.049   9.549   8.403
 7416W        W 8280   3.342  10.668  10.050
 7417W        W 8281   1.238  10.619   7.453
 7418W        W 8282   1.196   8.871   8.357
 7419W        W 8283   0.735   8.701   8.592
 7420W        W 8284   1.713   9.313   7.987
 7421W        W 8285   1.663  10.558  10.334
 7422W        W 8286   0.349   8.105  10.223
 7423W        W 8287   0.837   7.215  10.178
 7424W        W 8288   2.513   7.745   8.991
 7425W        W 8289   2.253   8.491   7.675
 7426W        W 8290   2.765   8.020  10.639
 7427W        W 8291   0.235   7.906   9.742
 7428W        W 8292   0.321  10.480  10.763
 7429W        W 8293   1.680   9.646   7.567
 7430W        W 8294   0.249   8.546   9.352
 7431W        W 8295   1.021   8.532  10.677
 7432W        W 8296   3.318   8.158   9.119
 7433W        W 8297   3.289   9.328   9.823
 7434W        W 8298   1.675   8.849   8.961
 7435W        W 8299   2.301  10.128   9.313
 7436W        W 8300   0.665   9.480   9.574
 7437W        W 8301   0.050   8.999   9.223
 7438W        W 8302   1.147   8.809  10.224
 7439W        W 8303   3.302   8.682  10.502
 7440W        W 8304   0.952  10.080   8.760
 7441W        W 8305   1.952   9.969  10.055
 7442W        W 8306   1.329   8.529   9.189
 7443W        W 8307   1.486   9.361   8.878
 7444W        W 8308   2.438  10.146  10.788
 7445W        W 8309   1.601   9.309  10.791
 7446W        W 8310   1.612   9.080  10.336
 7447W        W 8311   0.057   8.430  10.840
 7448W        W 8312   2.820   9.922  10.528
 7449W        W 8313   0.517   7.420   8.541
 7450W        W 8314   1.025   9.853   9.548
 7451W        W 8315   3.295   9.822   8.827
 7452W        W 8316   2.761   7.994   9.394
 7453W        W 8317   3.232   8.044   7.306
 7454W        W 8318   3.574   8.643   9.740
 7455W        W 8319   1.522  10.558   9.299
 7456W        W 8320   3.396  10.314   7.905
 7457W        W 8321   0.559  11.081   7.997
 7458W        W 8322   0.912  10.905   8.342
 7459W        W 8323   0.650   7.511   9.784
 7460W        W 8324   3.174   8.515  10.039
 7461W        W 8325   2.531   8.994   8.590
 7462W        W 8326   2.596   8.650   7.324
 7463W        W 8327   1.996   9.700   9.588
 7464W        W 8328   1.629   8.127   8.795
 7465W        W 8329   2.230  10.344   9.799
 7466W        W 8330   3.050   9.052   8.536
 7467W        W 8331   2.210   7.743   8.192
 7468W        W 8332   0.804  10.580   7.962
 7469W        W 8333   0.398   7.907   8.404
 7470W        W 8334   2.525   8.679   8.985
 7471W        W 8335   0.468  10.157   8.939
 7472W        W 8336   1.435  10.142   7.646
 7473W        W 8337   3.071   8.515   7.200
 7474W        W 8338   0.252  10.321   9.619
 7475W        W 8339   0.999   9.944  10.137
 7476W        W 8340   1.340   9.389   8.358
 7477W        W 8341   1.302   7.716   9.626
 7478W        W 8342   3.501   7.415   9.177
 7479W        W 8343   0.792   9.071   7.606
 7480W        W 8344   0.708   8.472   7.751
 7481W        W 8345   0.652  10.209   8.351
 7482W        W 8346   1.403   9.822   8.619
 7483W        W 8347   2.944  10.393  10.293
 7484W        W 8348   1.956   8.147   7.947
 7485W        W 8349   3.188  10.879   8.814
 7486W        W 8350   2.784   8.484  10.388
 7487W        W 8351   3.654  10.166   8.668
 7488W        W 8352   2.189   9.480  10.024
 7489W        W 8353   0.302   8.954   8.310
 7490W        W 8354   1.138   9.501   9.876
 7491W        W 8355   2.074   8.615   8.157
 7492W        W 8356   2.144   9.120   8.262
 7493W        W 8357   0.703   8.543   9.629
 7494W        W 8358   0.521   8.397  10.633
 7495W        W 8359   0.701   7.329   9.032
 7496W        W 8360   2.122   7.923   9.294
 7497W        W 8361   1.920   7.844  10.586
 7498W        W 8362   2.376   7.726   7.689
 7499W        W 8363   3.408  10.418  10.515
 7500W        W 8364   2.294   7.401  10.400
 7501W        W 8365   3.274   9.714  10.685
 7502W        W 8366   2.827   8.035  10.095
 7503W        W 8367   2.530   7.954   8.508
 7504W        W 8368   2.866   8.923  10.645
 7505W        W 8369   0.713  10.576   8.720
 7506W        W 8370   1.470   8.280   8.047
 7507W        W 8371   0.969   7.572  10.609
 7508W        W 8372   2.920   8.221   8.267
 7509W        W 8373   3.245   8.633   8.245
 7510W        W 8374   1.144  10.602  10.571
 7511W        W 8375   1.069   7.305   7.852
 7512W        W 8376   3.319   7.752   8.812
 7513W        W 8377   3.440  10.139   7.364
 7514W        W 8378   0.408   9.381   9.125
 7515W        W 8379   2.400   7.793   7.160
 7516W        W 8380   3.435  10.188   9.201
 7517W        W 8381   3.448   7.388   9.760
 7518W        W 8382   1.896   8.633  10.457
 7519W        W 8383   1.810   9.827   8.036
 7520W        W 8384   2.469   9.120  10.923
 7521W        W 8385   2.106   7.428   9.088
 7522W        W 8386   0.828   8.441   9.086
 7523W        W 8387   0.361   9.415   9.989
 7524W        W 8388   2.279  10.606   8.910
 7525W        W 8389   3.217   8.246   9.614
 7526W        W 8390   2.155  10.664  10.207
 7527W        W 8391   3.240   9.367   7.403
 7528W        W 8392   1.690   9.042   8.489
 7529W        W 8393   3.558   7.419  10.267
 7530W        W 8394   1.668   9.505   9.976
 7531W        W 8395   1.929   8.404   9.112
 7532W        W 8396   2.765   8.790   8.188
 7533W        W 8397   2.811   8.494   7.784
 7534W        W 8398   2.987  10.415   8.251
 7535W        W 8399   2.725   9.798   9.086
 7536W        W 8400   2.518   8.946   7.762
 7537W        W 8401   2.089   9.211   8.791
 7538W        W 8402   2.987   8.928   9.059
 7539W        W 8403   0.535   8.106   9.364
 7540W        W 8404   3.049   9.003  10.167
 7541W        W 8405   3.465  10.650   9.541
 7542W        W 8406   1.420  10.310   8.811
 7543W        W 8407   2.636  10.688  10.007
 7544W        W 8408   2.394   8.007   9.777
 7545W        W 8409   1.778  10.909   9.942
 7546W        W 8410   3.241   7.789   8.314
 7547W        W 8411   3.095   8.858   9.648
 7548W        W 8412   0.249   8.445   9.855
 7549W        W 8413   2.883   8.077   8.861
 7550W        W 8414   3.213   8.183  10.426
 7551W        W 8415   2.302  10.010   8.800
 7552W        W 8416   1.590  10.616   8.412
 7553W        W 8417   0.829   7.692   7.651
 7554W        W 8418   1.717   7.439   9.430
 7555W        W 8419   0.787  10.353   7.483
 7556W        W 8420   1.205   9.157   7.914
 7557W        W 8421   1.798   9.643  10.445
 7558W        W 8422   1.723   7.828   8.327
 7559W        W 8423   2.859   7.576   8.632
 7560W        W 8424   2.689  10.898   9.071
 7561W        W 8425   2.028  10.583   9.384
 7562W        W 8426   1.487   9.568   9.490
 7563W        W 8427   3.275  10.231   9.774
 7564W        W 8428   0.887   7.726   8.229
 7565W        W 8429   1.661  10.067   9.406
 7566W        W 8430   1.143   7.871   7.288
 7567W        W 8431   1.717   8.671   9.487
 7568W        W 8432   2.497   7.532   9.462
 7569W        W 8433   0.099   9.414   9.533
 7570W        W 8434   1.555   9.009   7.525
 7571W        W 8435   1.048   7.323   7.340
 7572W        W 8436   1.646   8.530   8.471
 7573W        W 8437   2.571   7.567   9.992
 7574W        W 8438   1.301   9.554  10.366
 7575W        W 8439   2.083   9.237  10.587
 7576W        W 8440   2.551   9.271  10.357
 7577W        W 8441   1.924   7.487  10.953
 7578W        W 8442   1.159   8.045   9.001
 7579W        W 8443   0.784   8.155   8.631
 7580W        W 8444   0.427  10.677   8.304
 7581W        W 8445   1.981  10.192  10.534
 7582W        W 8446   0.848   9.551   7.798
 7583W        W 8447   2.529   9.190   9.066
 7584W        W 8448   2.618   8.858   9.467
 7585W        W 8449   1.856   9.320   9.230
 7586W        W 8450   2.413   9.649   7.400
 7587W        W 8451   2.042   7.814   8.768
 7588W        W 8452   3.472   8.167   8.072
 7589W        W 8453   0.393  10.716  10.230
 7590W        W 8454   0.577   9.923   9.825
 7591W        W 8455   0.104  10.813   7.927
 7592W        W 8456   1.945   8.249   9.678
 7593W        W 8457   1.034   9.896   7.429
 7594W        W 8458   3.056  10.693   7.808
 7595W        W 8459   2.009   8.939   7.769
 7596W        W 8460   0.979   8.390   8.203
 7597W        W 8461   2.065   8.058   7.448
 7598W        W 8462   2.291   9.746  10.477
 7599W        W 8463   2.762   7.714   8.115
 7600W        W 8464   0.312   7.725   7.565
 7601W        W 8465   1.438   9.952   9.858
 7602W        W 8466   1.278   9.859   9.106
 7603W        W 8467   0.725   9.516   7.272
 7604W        W 8468   0.353  10.316   7.935
 7605W        W 8469   0.692   8.881  10.485
 7606W        W 8470   1.462   7.598  10.756
 7607W        W 8471   1.974   7.675  10.063
 7608W        W 8472   1.342   7.495   8.429
 7609W        W 8473   2.035   7.257   8.156
 7610W        W 8474   0.362   7.559   9.361
 7611W        W 8475   0.367   8.314   8.899
 7612W        W 8476   2.982   7.571   9.153
 7613W        W 8477   0.573   8.018   7.937
 7614W        W 8478   2.981   7.597   9.666
 7615W        W 8479   3.450   8.883   7.281
 7616W        W 8480   0.873   7.717   9.318
 7617W        W 8481   1.879   8.182  10.199
 7618W        W 8482   0.274   8.248   7.565
 7619W        W 8483   0.833   9.325  10.243
 7620W        W 8484   2.128   8.883   9.235
 7621W        W 8485   1.746  10.639   7.558
 7622W        W 8486   0.321   9.228   7.427
 7623W        W 8487   0.891   9.604  10.688
 7624W        W 8488   0.455   8.895  10.026
 7625W        W 8489   1.407   9.073   9.865
 7626W        W 8490   3.036   7.365  10.134
 7627W        W 8491   3.567   9.001  10.138
 7628W        W 8492   3.121   9.140   8.020
 7629W        W 8493   2.243   9.404   7.835
 7630W        W 8494   2.913  10.888   7.352
 7631W        W 8495   2.023   8.812  10.922
 7632W        W 8496   0.241   9.657  10.904
 7633W        W 8497   3.645   7.771  10.788
 7634W        W 8498   2.908   8.462   9.250
 7635W        W 8499   1.542  10.888  10.715
 7636W        W 8500   1.472   7.497   7.544
 7637W        W 8501   2.936   9.892   7.416
 7638W        W 8502   0.837   8.048  10.428
 7639W        W 8503   1.504  10.057  10.356
 7640W        W 8504   3.294   7.824  10.007
 7641W        W 8505   2.649  11.000   7.785
 7642W        W 8506   2.873   9.345   9.403
 7643W        W 8507   1.033   7.703  10.079
 7644W        W 8508   1.494   8.757  10.770
 7645W        W 8509   0.954  10.091   7.905
 7646W        W 8510   2.644   9.295   8.173
 7647W        W 8511   0.718   8.047   9.858
 7648W        W 8512   1.821  10.103   8.509
 7649W        W 8513   3.394   8.736   8.755
 7650W        W 8514   1.795   7.359  10.447
 7651W        W 8515   2.948  10.124   9.396
 7652W        W 8516   3.078  10.594   9.222
 7653W        W 8517   1.925  10.135   7.476
 7654W        W 8518   0.119  10.063  10.589
 7655W        W 8519   1.064   8.179   9.491
 7656W        W 8520   0.962   7.656   8.736
 7657W        W 8521   2.384   8.375   9.385
 7658W        W 8522   1.225   9.411   7.460
 7659W        W 8523   3.358   9.180   9.318
 7660W        W 8524   0.587  10.013  10.792
 7661W        W 8525   3.090  10.938   8.287
 7662W        W 8526   1.255   8.013   8.455
 7663W        W 8527   1.001   9.504   8.746
 7664W        W 8528   1.312  10.812   9.745
 7665W        W 8529   3.191  10.879  10.534
 7666W        W 8530   2.333   9.282   9.542
 7667W        W 8531   0.300   8.765   7.767
 7668W        W 8532   3.446  10.564   8.424
 7669W        W 8533   3.027   8.025   7.791
 7670W        W 8534   1.317   7.343  10.295
 7671W        W 8535   3.162  10.340   8.777
 7672W        W 8536   2.921   8.568   8.678
 7673W        W 8537   1.192   8.473   8.697
 7674W        W 8538   1.695   8.652   9.991
 7675W        W 8539   2.612   9.767  10.088
 7676W        W 8540   1.420   8.385  10.360
 7677W        W 8541   1.239  10.819   8.753
 7678W        W 8542   0.665  10.821  10.636
 7679W        W 8543   0.541   9.911   7.619
 7680W        W 8544   3.294  10.019   8.338
 7681W        W 8545   0.731   8.479  10.154
 7682W        W 8546   3.322   8.448   7.644
 7683W        W 8547   1.317   9.680   7.921
 7684W        W 8548   2.091   8.990  10.135
 7685W        W 8549   2.186   8.707   9.722
 7686W        W 8550   0.896   9.038   9.813
 7687W        W 8551   2.977  10.885   9.642
 7688W        W 8552   2.762   7.482  10.588
 7689W        W 8553   0.551   7.640  10.287
 7690W        W 8554   0.942   8.883   9.328
 7691W        W 8555   1.280   8.382   7.334
 7692W        W 8556   0.270  10.227  10.127
 7693W        W 8557   1.425   9.059   9.352
 7694W        W 8558   1.567   8.014   7.568
 7695W        W 8559   0.760   8.851   8.079
 7696W        W 8560   0.397  10.818   9.738
 7697W        W 8561   2.997   8.915   7.547
 7698W        W 8562   3.213   7.687  10.510
 7699W        W 8563   2.829   9.977   8.613
 7700W        W 8564   0.253   8.898  10.746
 7701W        W 8565   3.268   7.571   7.839
 7702W        W 8566   3.162   9.662   7.891
 7703W        W 8567   1.594   8.809   8.037
 7704W        W 8568   2.853   7.711   7.402
 7705W        W 8569   2.737   8.427   9.758
 7706W        W 8570   0.514   8.852   9.033
 7707W        W 8571   0.984   9.803   8.319
 7708W        W 8572   2.482   8.466   8.452
 7709W        W 8573   1.576   8.072   9.331
 7710W        W 8574   3.579   9.805   9.843
 7711W        W 8575   3.485   7.821   9.494
 7712W        W 8576   0.197  10.554   8.753
 7713W        W 8577   0.498   9.786   8.110
 7714W        W 8578   0.508   7.739  10.801
 7715W        W 8579   1.541  10.337  10.811
 7716W        W 8580   3.468   9.258   8.823
 7717W        W 8581   2.779   9.382   7.650
 7718W        W 8582   2.241  10.890   9.728
 7719W        W 8583   2.848   9.430  10.744
 7720W        W 8584   1.545   7.275   8.017
 7721W        W 8585   2.349   8.218   8.895
 7722W        W 8586   0.321   9.862   9.380
 7723W        W 8587   1.343   7.758   7.975
 7724W        W 8588   1.139   9.129  10.637
 7725W        W 8589   2.050   8.204   8.456
 7726W        W 8590   2.554   9.752   9.576
 7727W        W 8591   0.705  10.344  10.399
 7728W        W 8592   1.077  10.096  10.633
 7729W        W 8593   1.077   8.130   7.745
 7730W        W 8594   2.474   8.155   8.008
 7731W        W 8595   2.435  10.222  10.270
 7732W        W 8596   1.134   8.977   8.864
 7733W        W 8597   0.720  10.419   9.885
 7734W        W 8598   3.410  10.656   7.432
 7735W        W 8599   0.409   9.339  10.523
 7736W        W 8600   2.256   9.619   9.140
 7737W        W 8601   0.841   9.320   8.264
 7738W        W 8602   1.177  10.333   9.596
 7739W        W 8603   1.485   7.624   8.935
 7740W        W 8604   0.146   9.596   7.758
 7741W        W 8605   1.723   8.512   7.636
 7742W        W 8606   0.566   9.206   8.670
 7743W        W 8607   1.486   7.848  10.297
 7744W        W 8608   3.366   7.549   7.334
 7745W        W 8609   3.313   9.192  10.585
 7746W        W 8610   2.036  10.710  10.705
 7747W        W 8611   3.558   9.525  10.265
 7748W        W 8612   2.946  10.356  10.815
 7749W        W 8613   0.859  10.762   9.507
 7750W        W 8614   3.564   9.587   8.446
 7751W        W 8615   2.090   8.697   8.691
 7752W        W 8616   1.822   7.376   8.616
 7753W        W 8617   1.101  10.438   8.412
 7754W        W 8618   1.455   8.178   9.863
 7755W        W 8619   1.220   7.316   9.277
 7756W        W 8620   0.475  10.736   7.588
 7757W        W 8621   1.829   9.547   8.485
 7758W        W 8622   1.218  10.418  10.099
 7759W        W 8623   0.454   9.250   7.935
 7760W        W 8624   0.494   7.802   8.916
 7761W        W 8625   1.790   9.778   8.973
 7762W        W 8626   0.141   7.634   8.038
 7763W        W 8627   2.588   8.848  10.021
 7764W        W 8628   2.596   8.152   7.475
 7765W        W 8629   3.240   9.696   9.324
 7766W        W 8630   1.892  10.284   8.997
 7767W        W 8631   1.323  10.554   7.956
 7768W        W 8632   2.448   7.313   7.303
 7769W        W 8633   0.456  10.621   9.203
 7770W        W 8634   2.243   8.281  10.672
 7771W        W 8635   0.779   8.146  10.994
 7772W        W 8636   0.451   8.440   8.247
 7773W        W 8637   1.185   8.659   7.770
 7774W        W 8638   2.380   8.796  10.506
 7775W        W 8639   1.058   9.388   9.249
 7776W        W 8640   2.354   7.429   8.595
 7777W        W 8641   1.768  10.817   8.933
 7778W        W 8642   2.738  10.207   9.846
 7779W        W 8643   2.691  10.321   8.999
 7780W        W 8644   2.527   9.524   8.664
 7781W        W 8645   1.862   7.658   7.826
 7782W        W 8646   3.602   7.427   8.526
 7783W        W 8647   1.111   8.872   7.279
 7784W        W 8648   3.315   8.238   8.599
 7785W        W 8649   1.999   9.283   7.399
 7786W        W 8650   3.032   9.509  10.263
 7787W        W 8651   2.588  10.530   7.503
 7788W        W 8652   1.241   8.056  10.737
 7789W        W 8653   1.225   8.627   9.703
 7790W        W 8654   3.259   9.977  10.235
 7791W        W 8655   2.362   7.923  10.313
 7792W        W 8656   0.156   8.576  10.338
 7793W        W 8657   1.875   9.124   9.692
 7794W        W 8658   0.540   9.729   8.630
 7795W        W 8659   0.464   9.010   9.524
 7796W        W 8660   2.737   9.316   9.879
 7797W        W 8661   2.554  10.629  10.580
 7798W        W 8662   2.329   8.415  10.133
 7799W        W 8663   2.751  10.685   8.618
 7800W        W 8664   1.687  10.415   9.808
 7801W        W 8665   1.037  10.488   9.108
 7802W        W 8666   3.034   9.769   9.794
 7803W        W 8667   1.940   9.810  10.907
 7804W        W 8668   0.750   9.770   9.118
 7805W        W 8669   2.987   9.412   8.902
 7806W        W 8670   2.579  10.567   9.464
 7807W        W 8671   0.706  10.220   9.399
 7808W        W 8672   1.713   8.275  10.778
 7809W        W 8673   1.802  10.355   7.988
 7810W        W 8674   1.428   9.790  10.823
 7811W        W 8675   1.401  10.103   8.192
 7812W        W 8676   0.573   8.701   7.312
 7813W        W 8677   0.197  10.994  14.393
 7814W        W 8678   0.511   9.908  13.913
 7815W        W 8679   3.105   9.146  11.581
 7816W        W 8680   3.487  10.509  13.672
 7817W        W 8681   1.247  10.679  11.093
 7818W        W 8682   1.186   8.728  11.987
 7819W        W 8683   0.776   8.647  12.312
 7820W        W 8684   1.665   9.265  11.704
 7821W        W 8685   1.641  10.584  14.032
 7822W        W 8686   0.317   8.182  13.967
 7823W        W 8687   0.791   7.333  13.725
 7824W        W 8688   2.517   7.763  12.639
 7825W        W 8689   2.195   8.469  11.302
 7826W        W 8690   2.669   8.140  14.154
 7827W        W 8691   0.356   7.794  13.537
 7828W        W 8692   0.352  10.473  14.469
 7829W        W 8693   1.610   9.558  11.254
 7830W        W 8694   0.319   8.468  12.895
 7831W        W 8695   1.150   8.679  14.134
 7832W        W 8696   3.362   8.232  12.775
 7833W        W 8697   3.140   9.271  13.499
 7834W        W 8698   1.644   8.713  12.607
 7835W        W 8699   2.281  10.179  13.010
 7836W        W 8700   0.650   9.492  13.188
 7837W        W 8701  28.988   8.996  12.910
 7838W        W 8702   1.108   9.118  13.797
 7839W        W 8703   3.206   8.720  14.218
 7840W        W 8704   0.934  10.135  12.523
 7841W        W 8705   1.942   9.979  13.614
 7842W        W 8706   1.376   8.381  12.919
 7843W        W 8707   1.543   9.296  12.559
 7844W        W 8708   2.360  10.092  14.428
 7845W        W 8709   1.700   9.392  14.452
 7846W        W 8710   1.617   9.204  13.926
 7847W        W 8711   0.180   8.484  14.404
 7848W        W 8712   2.802  10.011  14.192
 7849W        W 8713   0.526   7.486  12.040
 7850W        W 8714   1.010   9.853  13.079
 7851W        W 8715   3.326   9.797  12.502
 7852W        W 8716   2.867   8.050  13.047
 7853W        W 8717   3.197   7.977  10.926
 7854W        W 8718   3.631   8.714  13.350
 7855W        W 8719   1.492  10.647  13.029
 7856W        W 8720   3.344  10.301  11.633
 7857W        W 8721   0.576  10.996  11.583
 7858W        W 8722   0.898  10.827  11.971
 7859W        W 8723   0.780   7.605  13.266
 7860W        W 8724   3.238   8.758  13.681
 7861W        W 8725   2.705   9.088  12.269
 7862W        W 8726   2.537   8.614  10.949
 7863W        W 8727   1.837   9.946  13.108
 7864W        W 8728   1.668   8.146  12.485
 7865W        W 8729   2.306  10.343  13.494
 7866W        W 8730   3.213   9.066  12.211
 7867W        W 8731   2.168   7.737  11.867
 7868W        W 8732   0.752  10.486  11.612
 7869W        W 8733   0.212   7.861  12.181
 7870W        W 8734   2.502   8.718  12.562
 7871W        W 8735   0.426  10.135  12.546
 7872W        W 8736   1.461  10.060  11.300
 7873W        W 8737   3.020   8.455  10.893
 7874W        W 8738   0.255  10.354  13.247
 7875W        W 8739   0.995  10.024  13.719
 7876W        W 8740   1.238   9.253  12.046
 7877W        W 8741   1.359   7.669  13.334
 7878W        W 8742   3.451   7.409  12.860
 7879W        W 8743   0.710   9.066  11.393
 7880W        W 8744   0.472   8.296  11.406
 7881W        W 8745   0.603  10.197  12.044
 7882W        W 8746   1.504   9.669  12.143
 7883W        W 8747   2.975  10.490  13.939
 7884W        W 8748   1.877   8.141  11.588
 7885W        W 8749   3.160  10.842  12.460
 7886W        W 8750   2.780   8.615  13.934
 7887W        W 8751   3.679  10.198  12.346
 7888W        W 8752   2.155   9.463  13.680
 7889W        W 8753   0.110   8.703  12.119
 7890W        W 8754   1.165   9.471  13.364
 7891W        W 8755   2.045   8.598  11.788
 7892W        W 8756   2.261   9.019  12.003
 7893W        W 8757   0.689   8.555  13.244
 7894W        W 8758   0.650   8.551  14.192
 7895W        W 8759   0.342   7.453  12.511
 7896W        W 8760   2.130   7.867  12.951
 7897W        W 8761   1.877   8.024  14.267
 7898W        W 8762   2.370   7.712  11.371
 7899W        W 8763   3.432  10.455  14.206
 7900W        W 8764   2.227   7.443  14.142
 7901W        W 8765   3.279   9.895  14.334
 7902W        W 8766   2.802   7.930  13.723
 7903W        W 8767   2.529   7.983  12.155
 7904W        W 8768   2.898   9.052  14.493
 7905W        W 8769   0.700  10.587  12.385
 7906W        W 8770   1.388   8.290  11.639
 7907W        W 8771   0.994   7.599  14.165
 7908W        W 8772   2.911   8.263  11.878
 7909W        W 8773   3.311   8.637  11.960
 7910W        W 8774   1.183  10.706  14.276
 7911W        W 8775   1.055   7.352  11.524
 7912W        W 8776   3.332   7.775  12.514
 7913W        W 8777   3.403  10.153  10.975
 7914W        W 8778   0.292   9.375  12.647
 7915W        W 8779   2.368   7.734  10.813
 7916W        W 8780   3.525  10.156  12.846
 7917W        W 8781   3.462   7.455  13.394
 7918W        W 8782   1.964   8.761  14.059
 7919W        W 8783   1.806   9.762  11.694
 7920W        W 8784   2.431   9.265  14.626
 7921W        W 8785   2.133   7.405  12.670
 7922W        W 8786   0.786   8.266  12.727
 7923W        W 8787   0.319   9.522  13.581
 7924W        W 8788   2.270  10.575  12.650
 7925W        W 8789   3.229   8.359  13.296
 7926W        W 8790   2.071  10.715  13.786
 7927W        W 8791   3.224   9.340  11.082
 7928W        W 8792   1.676   8.976  12.144
 7929W        W 8793   3.550   7.497  13.909
 7930W        W 8794   1.696   9.513  13.472
 7931W        W 8795   1.925   8.347  12.873
 7932W        W 8796   2.822   8.811  11.843
 7933W        W 8797   2.687   8.509  11.441
 7934W        W 8798   2.977  10.279  12.016
 7935W        W 8799   2.589   9.756  12.904
 7936W        W 8800   2.490   8.978  11.464
 7937W        W 8801   2.033   9.132  12.511
 7938W        W 8802   2.984   8.987  12.683
 7939W        W 8803   0.526   8.062  13.138
 7940W        W 8804   2.944   9.099  13.953
 7941W        W 8805   3.517  10.636  13.151
 7942W        W 8806   1.429  10.158  12.367
 7943W        W 8807   2.586  10.753  13.674
 7944W        W 8808   2.454   7.939  13.348
 7945W        W 8809   1.707  10.940  13.468
 7946W        W 8810   3.208   7.803  11.986
 7947W        W 8811   3.173   8.879  13.151
 7948W        W 8812   0.241   8.378  13.462
 7949W        W 8813   2.895   8.090  12.518
 7950W        W 8814   3.193   8.286  13.904
 7951W        W 8815   2.251   9.964  12.547
 7952W        W 8816   1.567  10.546  12.003
 7953W        W 8817   0.583   7.777  11.323
 7954W        W 8818   1.763   7.442  13.024
 7955W        W 8819   0.822  10.431  10.957
 7956W        W 8820   1.178   9.091  11.571
 7957W        W 8821   1.823   9.682  14.016
 7958W        W 8822   1.682   7.851  12.022
 7959W        W 8823   2.860   7.613  12.293
 7960W        W 8824   2.718  10.937  12.738
 7961W        W 8825   1.994  10.600  13.119
 7962W        W 8826   1.481   9.588  12.994
 7963W        W 8827   3.300  10.160  13.319
 7964W        W 8828   0.961   7.704  11.896
 7965W        W 8829   1.388  10.124  12.882
 7966W        W 8830   1.072   7.723  11.116
 7967W        W 8831   1.726   8.664  13.231
 7968W        W 8832   2.503   7.487  13.081
 7969W        W 8833   0.111   9.437  13.132
 7970W        W 8834   1.547   9.037  11.214
 7971W        W 8835   0.742   7.320  11.088
 7972W        W 8836   1.614   8.452  12.080
 7973W        W 8837   2.445   7.528  13.653
 7974W        W 8838   1.320   9.614  13.833
 7975W        W 8839   2.085   9.256  14.146
 7976W        W 8840   2.565   9.398  14.101
 7977W        W 8841   1.888   7.692  14.651
 7978W        W 8842   1.162   7.901  12.774
 7979W        W 8843   0.709   7.956  12.306
 7980W        W 8844   0.402  10.672  11.941
 7981W        W 8845   1.965  10.193  14.105
 7982W        W 8846   0.625   9.574  11.274
 7983W        W 8847   2.486   9.222  12.733
 7984W        W 8848   2.631   8.837  13.036
 7985W        W 8849   1.795   9.173  13.051
 7986W        W 8850   2.430   9.644  10.956
 7987W        W 8851   2.064   7.811  12.394
 7988W        W 8852   3.401   8.164  11.690
 7989W        W 8853   0.358  10.767  13.956
 7990W        W 8854   0.577   9.955  13.410
 7991W        W 8855   0.071  10.811  11.555
 7992W        W 8856   2.047   8.247  13.370
 7993W        W 8857   1.006   9.902  11.114
 7994W        W 8858   3.065  10.663  11.393
 7995W        W 8859   1.990   8.936  11.425
 7996W        W 8860   0.979   8.256  11.975
 7997W        W 8861   2.039   8.015  11.094
 7998W        W 8862   2.344   9.852  13.954
 7999W        W 8863   2.740   7.760  11.749
 8000W        W 8864   0.211   7.475  11.150
 8001W        W 8865   1.413   9.940  13.407
 8002W        W 8866   1.207   9.704  12.576
 8003W        W 8867   0.693   9.179  10.906
 8004W        W 8868   0.243  10.296  11.619
 8005W        W 8869   0.790   9.053  14.197
 8006W        W 8870   1.485   7.685  14.286
 8007W        W 8871   1.893   7.752  13.431
 8008W        W 8872   1.353   7.434  12.107
 8009W        W 8873   2.175   7.273  11.648
 8010W        W 8874   0.245   7.555  13.024
 8011W        W 8875   0.363   8.340  12.380
 8012W        W 8876   2.968   7.594  12.823
 8013W        W 8877   0.545   7.983  11.809
 8014W        W 8878   2.931   7.626  13.328
 8015W        W 8879   3.389   8.824  10.988
 8016W        W 8880   0.675   7.737  12.778
 8017W        W 8881   1.817   8.296  13.839
 8018W        W 8882   0.133   7.987  11.135
 8019W        W 8883   0.807   9.539  13.701
 8020W        W 8884   2.130   8.813  12.904
 8021W        W 8885   1.752  10.742  11.139
 8022W        W 8886   0.240   9.211  11.166
 8023W        W 8887   0.929   9.713  14.158
 8024W        W 8888   0.562   9.091  13.699
 8025W        W 8889   1.445   9.064  13.424
 8026W        W 8890   3.051   7.422  13.770
 8027W        W 8891   3.538   9.178  13.796
 8028W        W 8892   3.174   8.620  11.474
 8029W        W 8893   2.175   9.381  11.613
 8030W        W 8894   2.872  10.858  10.937
 8031W        W 8895   2.009   8.974  14.565
 8032W        W 8896   0.220   9.684  14.498
 8033W        W 8897   3.636   7.886  14.460
 8034W        W 8898   2.938   8.503  12.828
 8035W        W 8899   1.644  10.793  14.509
 8036W        W 8900   1.469   7.407  11.230
 8037W        W 8901   2.920   9.855  11.044
 8038W        W 8902   0.852   8.090  14.130
 8039W        W 8903   1.507  10.092  13.896
 8040W        W 8904   3.293   7.875  13.615
 8041W        W 8905   2.651  10.963  11.409
 8042W        W 8906   2.824   9.307  13.104
 8043W        W 8907   0.996   7.807  13.693
 8044W        W 8908   1.542   8.915  14.352
 8045W        W 8909   0.948  10.010  11.635
 8046W        W 8910   2.666   9.329  11.814
 8047W        W 8911   0.689   8.197  13.624
 8048W        W 8912   1.880  10.032  12.151
 8049W        W 8913   3.357   8.665  12.512
 8050W        W 8914   1.806   7.500  13.881
 8051W        W 8915   2.758  10.221  13.220
 8052W        W 8916   3.059  10.578  12.926
 8053W        W 8917   2.011  10.307  11.052
 8054W        W 8918   0.140  10.092  14.218
 8055W        W 8919   1.040   8.105  13.244
 8056W        W 8920   0.922   7.496  12.401
 8057W        W 8921   2.436   8.355  13.015
 8058W        W 8922   1.133   9.389  11.122
 8059W        W 8923   3.286   9.552  13.030
 8060W        W 8924   0.607  10.009  14.416
 8061W        W 8925   3.035  10.879  11.925
 8062W        W 8926   1.239   7.919  12.271
 8063W        W 8927   0.832   9.336  12.355
 8064W        W 8928   1.186  10.859  13.405
 8065W        W 8929   3.152  10.867  14.259
 8066W        W 8930   2.311   9.206  13.242
 8067W        W 8931   0.291   8.797  11.539
 8068W        W 8932   3.409  10.547  12.105
 8069W        W 8933   2.994   8.100  11.381
 8070W        W 8934   1.302   7.407  13.808
 8071W        W 8935   3.174  10.311  12.496
 8072W        W 8936   2.915   8.582  12.301
 8073W        W 8937   1.218   8.416  12.431
 8074W        W 8938   1.517   8.706  13.773
 8075W        W 8939   2.753  10.075  13.698
 8076W        W 8940   1.181   8.294  13.767
 8077W        W 8941   1.286  10.737  12.385
 8078W        W 8942   0.688  10.839  14.338
 8079W        W 8943   0.567  10.100  11.290
 8080W        W 8944   3.385   9.943  12.011
 8081W        W 8945   0.839   8.677  13.725
 8082W        W 8946   3.461   8.334  11.179
 8083W        W 8947   1.288   9.617  11.645
 8084W        W 8948   2.384   9.001  13.793
 8085W        W 8949   2.289   8.697  13.386
 8086W        W 8950   0.918   9.028  13.307
 8087W        W 8951   2.830  11.057  13.259
 8088W        W 8952   2.707   7.592  14.108
 8089W        W 8953   0.517   7.686  14.006
 8090W        W 8954   0.866   8.771  12.813
 8091W        W 8955   1.213   8.377  11.146
 8092W        W 8956   0.235  10.307  13.756
 8093W        W 8957   1.340   8.922  12.954
 8094W        W 8958   1.535   7.964  11.170
 8095W        W 8959   0.747   8.974  11.898
 8096W        W 8960   0.342  10.823  13.459
 8097W        W 8961   2.902   8.918  11.154
 8098W        W 8962   3.192   7.799  14.132
 8099W        W 8963   2.816   9.929  12.396
 8100W        W 8964   0.304   8.985  14.308
 8101W        W 8965   3.162   7.623  11.487
 8102W        W 8966   3.040   9.541  12.125
 8103W        W 8967   1.571   8.766  11.664
 8104W        W 8968   2.806   7.665  11.092
 8105W        W 8969   2.724   8.388  13.456
 8106W        W 8970   0.366   8.857  12.554
 8107W        W 8971   1.008   9.830  12.114
 8108W        W 8972   2.473   8.503  12.064
 8109W        W 8973   1.629   7.931  12.972
 8110W        W 8974   3.427   9.686  13.518
 8111W        W 8975   3.363   7.856  13.101
 8112W        W 8976   0.171  10.531  12.367
 8113W        W 8977   0.446   9.828  11.722
 8114W        W 8978   0.590   7.695  14.509
 8115W        W 8979   1.550  10.281  14.455
 8116W        W 8980   3.427   9.279  12.631
 8117W        W 8981   2.742   9.398  11.284
 8118W        W 8982   2.223  10.993  13.368
 8119W        W 8983   2.852   9.578  14.475
 8120W        W 8984   1.630   7.279  11.706
 8121W        W 8985   2.312   8.241  12.536
 8122W        W 8986   0.290   9.893  12.985
 8123W        W 8987   1.382   7.756  11.615
 8124W        W 8988   1.224   9.312  14.270
 8125W        W 8989   2.059   8.193  12.078
 8126W        W 8990   2.401   9.826  13.388
 8127W        W 8991   0.676  10.387  14.061
 8128W        W 8992   1.110  10.191  14.211
 8129W        W 8993   0.958   8.068  11.491
 8130W        W 8994   2.400   8.155  11.667
 8131W        W 8995   2.440  10.364  13.992
 8132W        W 8996   1.188   8.944  12.455
 8133W        W 8997   0.696  10.442  13.551
 8134W        W 8998   3.367  10.672  10.981
 8135W        W 8999   0.450   9.434  14.093
 8136W        W 9000   2.107   9.554  12.879
 8137W        W 9001   0.826   9.473  11.794
 8138W        W 9002   1.123  10.350  13.276
 8139W        W 9003   1.598   7.631  12.536
 8140W        W 9004   0.068   9.672  11.403
 8141W        W 9005   1.695   8.515  11.235
 8142W        W 9006   0.360   9.192  12.159
 8143W        W 9007   1.496   7.892  13.810
 8144W        W 9008   3.274   7.467  10.990
 8145W        W 9009   3.277   9.351  14.250
 8146W        W 9010   2.123  10.653  14.311
 8147W        W 9011   3.611   9.655  13.992
 8148W        W 9012   2.998  10.397  14.473
 8149W        W 9013   0.753  10.757  13.148
 8150W        W 9014   3.583   9.466  12.187
 8151W        W 9015   2.051   8.645  12.323
 8152W        W 9016   1.883   7.379  12.167
 8153W        W 9017   1.075  10.364  12.059
 8154W        W 9018   1.534   8.199  13.397
 8155W        W 9019   1.278   7.396  12.867
 8156W        W 9020   0.424  10.608  11.243
 8157W        W 9021   1.966   9.452  12.109
 8158W        W 9022   1.198  10.490  13.780
 8159W        W 9023   0.368   9.315  11.661
 8160W        W 9024   0.206   7.963  12.697
 8161W        W 9025   1.738   9.788  12.594
 8162W        W 9026   0.153   7.697  11.634
 8163W        W 9027   2.780   8.907  13.501
 8164W        W 9028   2.553   8.127  11.109
 8165W        W 9029   3.048   9.979  12.883
 8166W        W 9030   1.844  10.286  12.703
 8167W        W 9031   1.265  10.491  11.578
 8168W        W 9032   2.381   7.277  11.065
 8169W        W 9033   0.390  10.607  12.820
 8170W        W 9034   2.259   8.394  14.361
 8171W        W 9035   0.566   8.194  14.573
 8172W        W 9036   0.528   8.494  11.888
 8173W        W 9037   0.921   8.599  11.537
 8174W        W 9038   2.437   8.889  14.276
 8175W        W 9039   1.017   9.311  12.861
 8176W        W 9040   2.397   7.419  12.216
 8177W        W 9041   1.786  10.797  12.607
 8178W        W 9042   3.034  10.613  13.440
 8179W        W 9043   2.684  10.299  12.717
 8180W        W 9044   2.458   9.534  12.321
 8181W        W 9045   1.867   7.650  11.444
 8182W        W 9046   3.529   7.403  12.196
 8183W        W 9047   1.079   8.867  11.087
 8184W        W 9048   3.309   8.228  12.249
 8185W        W 9049   2.032   9.322  11.097
 8186W        W 9050   3.019   9.625  13.889
 8187W        W 9051   2.498  10.540  11.114
 8188W        W 9052   1.379   8.200  14.238
 8189W        W 9053   1.204   8.603  13.353
 8190W        W 9054   3.268  10.072  13.849
 8191W        W 9055   2.240   7.927  13.900
 8192W        W 9056   0.279   8.687  13.874
 8193W        W 9057   1.927   9.011  13.566
 8194W        W 9058   0.485   9.709  12.229
 8195W        W 9059   0.483   9.035  13.029
 8196W        W 9060   2.652   9.406  13.593
 8197W        W 9061   2.655  10.730  14.261
 8198W        W 9062   2.318   8.437  13.831
 8199W        W 9063   2.722  10.629  12.316
 8200W        W 9064   1.649  10.415  13.496
 8201W        W 9065   1.045  10.549  12.790
 8202W        W 9066   2.940   9.754  13.349
 8203W        W 9067   1.908   9.865  14.505
 8204W        W 9068   0.691   9.708  12.705
 8205W        W 9069   2.932   9.485  12.627
 8206W        W 9070   2.521  10.654  13.117
 8207W        W 9071   0.692  10.236  12.990
 8208W        W 9072   1.765   8.484  14.476
 8209W        W 9073   1.778  10.398  11.539
 8210W        W 9074   1.421   9.794  14.318
 8211W        W 9075   1.431  10.076  11.837
 8212W        W 9076   0.599   8.670  11.068
 8213W        W 9077   0.213  10.956  17.976
 8214W        W 9078   0.520   9.849  17.550
 8215W        W 9079   3.111   9.407  15.416
 8216W        W 9080   3.278  10.586  17.322
 8217W        W 9081   1.270  10.624  14.817
 8218W        W 9082   1.137   8.742  15.599
 8219W        W 9083   0.723   8.594  15.893
 8220W        W 9084   1.745   9.275  15.328
 8221W        W 9085   1.534  10.458  17.465
 8222W        W 9086   0.316   8.067  17.577
 8223W        W 9087   0.881   7.237  17.429
 8224W        W 9088   2.745   7.843  16.485
 8225W        W 9089   1.928   8.681  14.965
 8226W        W 9090   2.794   8.149  17.955
 8227W        W 9091   0.309   7.778  17.092
 8228W        W 9092   0.378  10.468  18.111
 8229W        W 9093   1.540   9.731  14.833
 8230W        W 9094   0.171   8.516  16.680
 8231W        W 9095   1.003   8.565  17.849
 8232W        W 9096   3.495   8.350  16.466
 8233W        W 9097   3.216   9.376  17.237
 8234W        W 9098   1.716   8.655  16.199
 8235W        W 9099   2.166  10.188  16.625
 8236W        W 9100   0.610   9.437  16.840
 8237W        W 9101  28.979   8.929  16.464
 8238W        W 9102   1.095   8.856  17.414
 8239W        W 9103   3.368   8.834  17.910
 8240W        W 9104   0.868   9.979  16.028
 8241W        W 9105   1.993   9.902  17.294
 8242W        W 9106   1.456   8.368  16.546
 8243W        W 9107   1.461   9.321  16.162
 8244W        W 9108   2.210  10.149  18.132
 8245W        W 9109   1.572   9.302  18.045
 8246W        W 9110   1.680   9.121  17.555
 8247W        W 9111   0.049   8.451  18.210
 8248W        W 9112   2.737  10.021  17.874
 8249W        W 9113   0.492   7.371  15.885
 8250W        W 9114   0.980   9.936  16.783
 8251W        W 9115   3.220   9.681  16.207
 8252W        W 9116   3.001   8.252  16.638
 8253W        W 9117   3.148   8.224  14.421
 8254W        W 9118   3.712   8.763  17.136
 8255W        W 9119   1.449  10.616  16.597
 8256W        W 9120   3.109   9.905  15.159
 8257W        W 9121   0.556  11.050  15.286
 8258W        W 9122   0.909  10.892  15.679
 8259W        W 9123   0.796   7.553  17.034
 8260W        W 9124   3.256   8.766  17.361
 8261W        W 9125   2.649   9.020  15.924
 8262W        W 9126   2.416   8.713  14.789
 8263W        W 9127   1.860   9.820  16.785
 8264W        W 9128   1.616   8.134  16.106
 8265W        W 9129   2.291  10.270  17.121
 8266W        W 9130   2.981   8.884  15.489
 8267W        W 9131   2.141   7.954  15.472
 8268W        W 9132   0.755  10.545  15.301
 8269W        W 9133   0.229   7.794  15.727
 8270W        W 9134   2.620   8.581  16.267
 8271W        W 9135   0.358   9.993  16.127
 8272W        W 9136   1.550  10.220  14.983
 8273W        W 9137   2.753   8.542  14.445
 8274W        W 9138   0.208  10.328  16.949
 8275W        W 9139   0.967   9.865  17.300
 8276W        W 9140   1.307   9.258  15.668
 8277W        W 9141   1.272   7.756  16.879
 8278W        W 9142   3.596   7.475  16.546
 8279W        W 9143   0.739   9.135  14.952
 8280W        W 9144   0.472   8.392  15.045
 8281W        W 9145   0.542  10.228  15.686
 8282W        W 9146   1.328   9.745  15.846
 8283W        W 9147   2.895  10.533  17.663
 8284W        W 9148   1.790   8.295  15.256
 8285W        W 9149   3.181  10.687  16.279
 8286W        W 9150   2.905   8.637  17.735
 8287W        W 9151   3.563  10.069  16.007
 8288W        W 9152   2.175   9.427  17.421
 8289W        W 9153   0.161   9.025  15.572
 8290W        W 9154   1.103   9.481  16.975
 8291W        W 9155   2.007   8.684  15.512
 8292W        W 9156   2.166   9.156  15.663
 8293W        W 9157   0.664   8.545  16.903
 8294W        W 9158   0.484   8.420  17.923
 8295W        W 9159   0.753   7.300  16.334
 8296W        W 9160   2.231   7.816  16.579
 8297W        W 9161   1.937   7.924  17.886
 8298W        W 9162   2.288   7.778  14.984
 8299W        W 9163   3.436  10.527  17.819
 8300W        W 9164   2.279   7.491  17.785
 8301W        W 9165   3.230   9.869  18.008
 8302W        W 9166   2.870   7.961  17.490
 8303W        W 9167   2.717   7.860  15.786
 8304W        W 9168   2.935   9.028  18.115
 8305W        W 9169   0.685  10.454  16.134
 8306W        W 9170   1.291   8.326  15.297
 8307W        W 9171   1.050   7.618  17.805
 8308W        W 9172   3.033   8.269  15.592
 8309W        W 9173   3.300   8.465  15.202
 8310W        W 9174   1.210  10.789  17.671
 8311W        W 9175   0.979   7.229  15.135
 8312W        W 9176   3.339   7.875  16.319
 8313W        W 9177   3.366  10.169  14.775
 8314W        W 9178   0.289   9.324  16.317
 8315W        W 9179   2.335   7.856  14.446
 8316W        W 9180   3.461  10.293  16.476
 8317W        W 9181   3.411   7.468  17.039
 8318W        W 9182   1.985   8.701  17.737
 8319W        W 9183   1.769   9.817  15.298
 8320W        W 9184   2.482   9.204  18.283
 8321W        W 9185   1.973   7.410  16.398
 8322W        W 9186   0.791   8.229  16.319
 8323W        W 9187   0.338   9.445  17.271
 8324W        W 9188   2.039  10.523  15.841
 8325W        W 9189   3.335   8.504  16.921
 8326W        W 9190   2.012  10.608  17.404
 8327W        W 9191   3.127   9.407  14.873
 8328W        W 9192   1.702   8.981  15.802
 8329W        W 9193   3.570   7.479  17.542
 8330W        W 9194   1.753   9.469  17.140
 8331W        W 9195   2.004   8.287  16.420
 8332W        W 9196   2.491   8.785  15.463
 8333W        W 9197   2.792   8.518  15.138
 8334W        W 9198   2.942  10.289  15.504
 8335W        W 9199   2.614  10.225  16.364
 8336W        W 9200   2.624   9.272  15.457
 8337W        W 9201   1.987   9.231  16.171
 8338W        W 9202   2.975   9.226  16.339
 8339W        W 9203   0.458   8.090  16.707
 8340W        W 9204   2.999   9.122  17.616
 8341W        W 9205   3.383  10.680  16.779
 8342W        W 9206   1.333  10.191  16.114
 8343W        W 9207   2.522  10.706  17.343
 8344W        W 9208   2.467   8.075  17.156
 8345W        W 9209   1.601  10.805  17.069
 8346W        W 9210   3.248   7.851  15.821
 8347W        W 9211   3.142   8.997  16.894
 8348W        W 9212   0.257   8.318  17.140
 8349W        W 9213   2.941   8.173  16.128
 8350W        W 9214   3.241   8.299  17.568
 8351W        W 9215   2.191  10.057  16.107
 8352W        W 9216   1.527  10.567  15.803
 8353W        W 9217   0.750   7.667  15.005
 8354W        W 9218   1.653   7.410  16.819
 8355W        W 9219   0.858  10.423  14.602
 8356W        W 9220   1.178   9.099  15.198
 8357W        W 9221   1.761   9.623  17.661
 8358W        W 9222   1.626   7.967  15.619
 8359W        W 9223   2.988   7.538  16.127
 8360W        W 9224   2.696  10.814  16.400
 8361W        W 9225   1.952  10.662  16.699
 8362W        W 9226   1.506   9.469  16.666
 8363W        W 9227   3.317  10.207  16.992
 8364W        W 9228   0.818   7.677  15.547
 8365W        W 9229   1.462  10.096  16.616
 8366W        W 9230   1.067   7.891  14.574
 8367W        W 9231   1.792   8.601  16.844
 8368W        W 9232   2.586   7.481  16.833
 8369W        W 9233   0.074   9.339  16.828
 8370W        W 9234   1.581   9.087  14.859
 8371W        W 9235   0.958   7.362  14.642
 8372W        W 9236   1.569   8.474  15.718
 8373W        W 9237   2.553   7.596  17.342
 8374W        W 9238   1.320   9.483  17.439
 8375W        W 9239   2.070   9.215  17.899
 8376W        W 9240   2.552   9.318  17.764
 8377W        W 9241   1.949   7.563  18.267
 8378W        W 9242   1.228   7.950  16.365
 8379W        W 9243   0.625   8.081  15.851
 8380W        W 9244   0.398  10.722  15.643
 8381W        W 9245   1.871  10.149  17.732
 8382W        W 9246   0.786   9.667  15.045
 8383W        W 9247   2.459   9.204  16.401
 8384W        W 9248   2.726   8.703  16.760
 8385W        W 9249   1.978   9.257  16.691
 8386W        W 9250   2.250   9.902  14.911
 8387W        W 9251   2.006   7.803  16.035
 8388W        W 9252   3.546   8.122  15.495
 8389W        W 9253   0.229  10.641  17.588
 8390W        W 9254   0.527   9.914  17.026
 8391W        W 9255   0.080  10.854  15.238
 8392W        W 9256   2.015   8.136  16.925
 8393W        W 9257   1.051   9.902  14.652
 8394W        W 9258   2.968  10.434  15.000
 8395W        W 9259   2.237   9.080  15.125
 8396W        W 9260   0.806   8.354  15.450
 8397W        W 9261   2.031   8.179  14.791
 8398W        W 9262   2.280   9.770  17.787
 8399W        W 9263   2.665   8.035  15.289
 8400W        W 9264   0.292   7.454  14.864
 8401W        W 9265   1.438   9.876  17.081
 8402W        W 9266   1.197   9.741  16.353
 8403W        W 9267   0.706   9.470  14.549
 8404W        W 9268   0.242  10.369  15.264
 8405W        W 9269   0.669   8.934  17.724
 8406W        W 9270   1.490   7.705  18.062
 8407W        W 9271   2.057   7.739  17.346
 8408W        W 9272   1.297   7.543  15.683
 8409W        W 9273   1.943   7.351  15.048
 8410W        W 9274   0.414   7.454  16.680
 8411W        W 9275   0.277   8.238  16.236
 8412W        W 9276   3.098   7.515  16.640
 8413W        W 9277   0.482   7.969  15.317
 8414W        W 9278   2.930   7.850  16.991
 8415W        W 9279   3.123   8.637  14.758
 8416W        W 9280   0.818   7.759  16.573
 8417W        W 9281   1.988   8.260  17.439
 8418W        W 9282   0.185   7.970  14.864
 8419W        W 9283   0.822   9.336  17.397
 8420W        W 9284   2.206   8.762  16.556
 8421W        W 9285   1.764  10.710  15.000
 8422W        W 9286   0.276   9.251  14.750
 8423W        W 9287   0.980   9.696  17.794
 8424W        W 9288   0.484   8.941  17.244
 8425W        W 9289   1.427   9.087  17.080
 8426W        W 9290   3.048   7.465  17.417
 8427W        W 9291   3.577   9.139  17.524
 8428W        W 9292   3.297   8.981  15.109
 8429W        W 9293   2.217   9.566  15.344
 8430W        W 9294   2.896  10.852  14.701
 8431W        W 9295   2.062   8.799  18.261
 8432W        W 9296   0.633   9.696  18.178
 8433W        W 9297   3.673   7.854  18.127
 8434W        W 9298   3.135   8.727  16.440
 8435W        W 9299   1.597  10.712  18.004
 8436W        W 9300   1.412   7.558  14.781
 8437W        W 9301   2.775  10.007  14.749
 8438W        W 9302   0.830   8.085  17.715
 8439W        W 9303   1.391   9.980  17.585
 8440W        W 9304   3.346   7.889  17.303
 8441W        W 9305   2.615  10.860  15.122
 8442W        W 9306   2.769   9.463  16.773
 8443W        W 9307   1.103   7.820  17.351
 8444W        W 9308   1.479   8.775  17.886
 8445W        W 9309   1.037  10.166  15.089
 8446W        W 9310   2.856   9.495  15.877
 8447W        W 9311   0.709   8.071  17.177
 8448W        W 9312   1.753  10.068  15.821
 8449W        W 9313   3.562   8.776  16.132
 8450W        W 9314   1.782   7.421  17.737
 8451W        W 9315   2.610   9.983  16.819
 8452W        W 9316   2.955  10.422  16.672
 8453W        W 9317   1.998  10.343  14.711
 8454W        W 9318   0.261   9.977  17.982
 8455W        W 9319   1.025   8.196  16.788
 8456W        W 9320   0.935   7.677  16.048
 8457W        W 9321   2.470   8.268  16.668
 8458W        W 9322   1.163   9.405  14.780
 8459W        W 9323   3.279   9.465  16.715
 8460W        W 9324   0.748  10.168  17.899
 8461W        W 9325   2.967  10.856  15.562
 8462W        W 9326   1.140   8.065  15.747
 8463W        W 9327   0.934   9.453  16.003
 8464W        W 9328   1.108  10.894  16.886
 8465W        W 9329   3.152  10.950  17.966
 8466W        W 9330   2.414   9.086  16.930
 8467W        W 9331   0.293   8.856  15.084
 8468W        W 9332   3.293  10.500  15.810
 8469W        W 9333   3.060   8.105  14.917
 8470W        W 9334   1.373   7.390  17.430
 8471W        W 9335   3.080  10.177  16.159
 8472W        W 9336   3.019   8.650  15.946
 8473W        W 9337   1.204   8.454  16.088
 8474W        W 9338   1.600   8.632  17.363
 8475W        W 9339   2.542   9.867  17.352
 8476W        W 9340   1.150   8.333  17.376
 8477W        W 9341   1.154  10.692  16.136
 8478W        W 9342   0.712  10.705  17.809
 8479W        W 9343   0.544  10.145  14.909
 8480W        W 9344   3.167   9.869  15.712
 8481W        W 9345   0.671   8.504  17.438
 8482W        W 9346   3.534   8.305  14.769
 8483W        W 9347   1.276   9.613  15.275
 8484W        W 9348   2.330   8.955  17.457
 8485W        W 9349   2.290   8.583  17.059
 8486W        W 9350   0.909   9.005  16.945
 8487W        W 9351   2.918  10.814  16.998
 8488W        W 9352   2.781   7.585  17.868
 8489W        W 9353   0.597   7.642  17.527
 8490W        W 9354   1.014   8.683  16.519
 8491W        W 9355   1.025   8.416  14.559
 8492W        W 9356   0.085  10.159  17.450
 8493W        W 9357   1.470   8.945  16.569
 8494W        W 9358   1.519   8.081  14.742
 8495W        W 9359   0.673   8.896  15.430
 8496W        W 9360   0.320  10.824  17.117
 8497W        W 9361   2.772   9.030  15.013
 8498W        W 9362   3.253   7.813  17.815
 8499W        W 9363   2.675  10.007  15.899
 8500W        W 9364   0.280   8.917  18.042
 8501W        W 9365   3.152   7.813  15.327
 8502W        W 9366   2.707   9.778  15.451
 8503W        W 9367   1.558   8.787  15.307
 8504W        W 9368   2.842   7.835  14.529
 8505W        W 9369   2.899   8.363  17.160
 8506W        W 9370   0.530   8.688  16.351
 8507W        W 9371   0.896   9.888  15.521
 8508W        W 9372   2.560   8.384  15.768
 8509W        W 9373   1.702   7.878  16.568
 8510W        W 9374   3.571   9.760  17.060
 8511W        W 9375   3.452   7.950  16.811
 8512W        W 9376   0.188  10.460  16.029
 8513W        W 9377   0.394   9.870  15.331
 8514W        W 9378   0.606   7.751  18.054
 8515W        W 9379   1.710  10.227  18.215
 8516W        W 9380   3.502   9.262  16.295
 8517W        W 9381   2.640   9.547  14.997
 8518W        W 9382   2.151  10.973  17.065
 8519W        W 9383   2.831   9.550  18.108
 8520W        W 9384   1.462   7.347  15.237
 8521W        W 9385   2.420   8.093  16.170
 8522W        W 9386   0.173   9.771  16.573
 8523W        W 9387   1.223   7.810  15.232
 8524W        W 9388   1.116   9.187  17.812
 8525W        W 9389   2.039   8.295  15.858
 8526W        W 9390   2.294   9.598  16.958
 8527W        W 9391   0.555  10.334  17.344
 8528W        W 9392   1.247  10.331  17.969
 8529W        W 9393   0.915   8.148  14.987
 8530W        W 9394   2.295   8.382  15.197
 8531W        W 9395   2.369  10.285  17.628
 8532W        W 9396   1.082   8.960  16.069
 8533W        W 9397   0.716  10.524  16.890
 8534W        W 9398   3.389  10.679  14.738
 8535W        W 9399   0.452   9.399  17.802
 8536W        W 9400   2.211   9.665  16.444
 8537W        W 9401   0.843   9.377  15.492
 8538W        W 9402   1.226  10.372  17.011
 8539W        W 9403   1.536   7.593  16.140
 8540W        W 9404   0.054   9.674  14.990
 8541W        W 9405   1.422   8.585  14.851
 8542W        W 9406   0.558   9.094  15.913
 8543W        W 9407   1.589   7.872  17.498
 8544W        W 9408   3.268   7.578  14.652
 8545W        W 9409   3.314   9.368  17.924
 8546W        W 9410   2.096  10.639  17.923
 8547W        W 9411   3.491   9.702  17.563
 8548W        W 9412   3.068  10.346  18.114
 8549W        W 9413   0.806  10.846  16.481
 8550W        W 9414   3.556   9.545  15.857
 8551W        W 9415   2.198   8.765  16.009
 8552W        W 9416   1.827   7.504  15.575
 8553W        W 9417   1.029  10.381  15.731
 8554W        W 9418   1.520   8.178  17.050
 8555W        W 9419   1.209   7.426  16.509
 8556W        W 9420   0.508  10.734  14.877
 8557W        W 9421   1.803   9.532  15.780
 8558W        W 9422   1.031  10.344  17.496
 8559W        W 9423   0.396   9.357  15.252
 8560W        W 9424   0.435   7.750  16.229
 8561W        W 9425   1.720   9.784  16.262
 8562W        W 9426   0.058   7.657  15.268
 8563W        W 9427   2.767   8.848  17.247
 8564W        W 9428   2.559   8.196  14.780
 8565W        W 9429   3.085   9.932  16.623
 8566W        W 9430   1.791  10.333  16.290
 8567W        W 9431   1.295  10.566  15.324
 8568W        W 9432   2.274   7.338  14.636
 8569W        W 9433   0.330  10.634  16.543
 8570W        W 9434   2.294   8.356  18.040
 8571W        W 9435   0.548   8.163  18.373
 8572W        W 9436   0.327   8.525  15.538
 8573W        W 9437   0.944   8.659  15.050
 8574W        W 9438   2.470   8.829  17.930
 8575W        W 9439   1.026   9.262  16.500
 8576W        W 9440   2.453   7.546  16.182
 8577W        W 9441   1.741  10.842  16.240
 8578W        W 9442   2.825  10.312  17.180
 8579W        W 9443   2.257  10.572  16.289
 8580W        W 9444   2.346   9.562  15.939
 8581W        W 9445   1.739   7.807  15.134
 8582W        W 9446   3.543   7.435  16.019
 8583W        W 9447   1.089   8.926  14.617
 8584W        W 9448   3.415   8.303  15.970
 8585W        W 9449   1.983   9.452  14.878
 8586W        W 9450   2.963   9.640  17.612
 8587W        W 9451   2.524  10.481  14.714
 8588W        W 9452   1.353   8.176  17.831
 8589W        W 9453   1.262   8.622  16.962
 8590W        W 9454   3.179  10.118  17.540
 8591W        W 9455   2.391   7.981  17.659
 8592W        W 9456   0.181   8.601  17.555
 8593W        W 9457   1.943   8.988  17.135
 8594W        W 9458   0.477   9.624  15.789
 8595W        W 9459   0.416   8.976  16.742
 8596W        W 9460   2.683   9.369  17.269
 8597W        W 9461   2.575  10.490  18.058
 8598W        W 9462   2.476   8.463  17.528
 8599W        W 9463   2.772  10.549  15.959
 8600W        W 9464   1.764  10.294  17.012
 8601W        W 9465   1.021  10.354  16.503
 8602W        W 9466   3.005   9.816  17.120
 8603W        W 9467   1.906   9.719  18.131
 8604W        W 9468   0.676   9.679  16.401
 8605W        W 9469   2.710   9.710  16.327
 8606W        W 9470   2.468  10.609  16.798
 8607W        W 9471   0.541  10.160  16.568
 8608W        W 9472   1.764   8.375  18.081
 8609W        W 9473   1.799  10.391  15.401
 8610W        W 9474   1.419   9.825  18.068
 8611W        W 9475   1.374  10.092  15.477
 8612W        W 9476   0.587   8.732  14.665
 8613W        W 9477   0.170  10.985  21.679
 8614W        W 9478   0.543   9.879  21.221
 8615W        W 9479   3.240   9.491  19.221
 8616W        W 9480   3.424  10.561  21.049
 8617W        W 9481   1.364  10.507  18.454
 8618W        W 9482   1.230   8.665  19.323
 8619W        W 9483   0.741   8.640  19.536
 8620W        W 9484   1.700   9.307  18.971
 8621W        W 9485   1.572  10.536  21.312
 8622W        W 9486   0.383   8.045  21.248
 8623W        W 9487   0.922   7.194  21.105
 8624W        W 9488   2.562   7.749  19.995
 8625W        W 9489   2.252   8.496  18.662
 8626W        W 9490   2.839   8.083  21.621
 8627W        W 9491   0.349   7.749  20.808
 8628W        W 9492   0.346  10.480  21.812
 8629W        W 9493   1.565   9.540  18.520
 8630W        W 9494   0.193   8.496  20.345
 8631W        W 9495   0.932   8.646  21.525
 8632W        W 9496   3.341   8.189  20.064
 8633W        W 9497   3.133   9.322  20.824
 8634W        W 9498   1.597   8.689  19.818
 8635W        W 9499   2.211  10.069  20.244
 8636W        W 9500   0.621   9.430  20.453
 8637W        W 9501  28.972   8.809  19.994
 8638W        W 9502   1.058   8.907  21.035
 8639W        W 9503   3.273   8.760  21.487
 8640W        W 9504   0.862  10.100  19.776
 8641W        W 9505   1.911   9.992  20.962
 8642W        W 9506   1.421   8.378  20.204
 8643W        W 9507   1.530   9.292  19.828
 8644W        W 9508   2.309  10.181  21.710
 8645W        W 9509   1.581   9.269  21.693
 8646W        W 9510   1.546   9.134  21.196
 8647W        W 9511   0.030   8.494  21.884
 8648W        W 9512   2.730   9.952  21.348
 8649W        W 9513   0.399   7.383  19.617
 8650W        W 9514   0.994   9.818  20.376
 8651W        W 9515   3.407   9.762  19.920
 8652W        W 9516   2.870   8.063  20.312
 8653W        W 9517   3.178   8.032  18.294
 8654W        W 9518   3.598   8.745  20.692
 8655W        W 9519   1.550  10.566  20.327
 8656W        W 9520   3.373  10.247  18.957
 8657W        W 9521   0.474  10.996  18.904
 8658W        W 9522   0.806  10.849  19.289
 8659W        W 9523   0.871   7.575  20.776
 8660W        W 9524   3.147   8.685  20.987
 8661W        W 9525   2.516   8.968  19.543
 8662W        W 9526   2.633   8.725  18.417
 8663W        W 9527   1.880   9.761  20.478
 8664W        W 9528   1.640   8.155  19.757
 8665W        W 9529   2.203  10.375  20.691
 8666W        W 9530   3.022   9.082  19.450
 8667W        W 9531   2.200   7.680  19.162
 8668W        W 9532   0.670  10.492  18.955
 8669W        W 9533   0.387   7.825  19.338
 8670W        W 9534   2.548   8.646  19.926
 8671W        W 9535   0.344  10.088  19.864
 8672W        W 9536   1.722  10.372  18.854
 8673W        W 9537   3.052   8.517  18.213
 8674W        W 9538   0.225  10.278  20.524
 8675W        W 9539   0.986   9.934  20.951
 8676W        W 9540   1.272   9.195  19.263
 8677W        W 9541   1.372   7.700  20.602
 8678W        W 9542   3.504   7.437  20.137
 8679W        W 9543   0.700   9.173  18.204
 8680W        W 9544   0.612   8.509  18.776
 8681W        W 9545   0.529  10.219  19.381
 8682W        W 9546   1.418   9.675  19.444
 8683W        W 9547   3.019  10.371  21.451
 8684W        W 9548   1.918   8.214  18.947
 8685W        W 9549   3.148  10.760  19.847
 8686W        W 9550   2.816   8.555  21.406
 8687W        W 9551   3.756  10.077  19.679
 8688W        W 9552   2.131   9.528  20.919
 8689W        W 9553   0.333   8.842  19.051
 8690W        W 9554   1.109   9.464  20.710
 8691W        W 9555   2.157   8.639  19.166
 8692W        W 9556   2.174   9.163  19.217
 8693W        W 9557   0.682   8.510  20.555
 8694W        W 9558   0.463   8.428  21.600
 8695W        W 9559   0.778   7.355  19.958
 8696W        W 9560   2.185   7.882  20.322
 8697W        W 9561   1.929   7.928  21.528
 8698W        W 9562   2.393   7.769  18.666
 8699W        W 9563   3.554  10.304  21.501
 8700W        W 9564   2.261   7.509  21.385
 8701W        W 9565   3.254   9.899  21.629
 8702W        W 9566   2.867   7.949  21.119
 8703W        W 9567   2.528   7.924  19.479
 8704W        W 9568   2.939   9.017  21.802
 8705W        W 9569   0.693  10.577  19.738
 8706W        W 9570   1.406   8.314  18.950
 8707W        W 9571   1.061   7.627  21.429
 8708W        W 9572   2.909   8.233  19.227
 8709W        W 9573   3.224   8.673  19.188
 8710W        W 9574   1.104  10.660  21.477
 8711W        W 9575   1.060   7.378  18.831
 8712W        W 9576   3.315   7.773  19.788
 8713W        W 9577   3.464  10.145  18.403
 8714W        W 9578   0.290   9.362  20.010
 8715W        W 9579   2.395   7.860  18.147
 8716W        W 9580   3.489  10.234  20.128
 8717W        W 9581   3.458   7.447  20.709
 8718W        W 9582   1.953   8.811  21.364
 8719W        W 9583   1.771   9.806  19.042
 8720W        W 9584   2.444   9.180  21.967
 8721W        W 9585   2.169   7.405  20.109
 8722W        W 9586   0.772   8.222  20.100
 8723W        W 9587   0.347   9.485  20.899
 8724W        W 9588   2.220  10.429  19.676
 8725W        W 9589   3.240   8.361  20.570
 8726W        W 9590   1.955  10.726  21.037
 8727W        W 9591   3.173   9.367  18.436
 8728W        W 9592   1.722   8.989  19.410
 8729W        W 9593   3.613   7.452  21.229
 8730W        W 9594   1.631   9.486  20.823
 8731W        W 9595   1.935   8.329  20.157
 8732W        W 9596   2.714   8.740  19.119
 8733W        W 9597   2.989   8.484  18.746
 8734W        W 9598   2.988  10.336  19.290
 8735W        W 9599   2.618   9.749  20.038
 8736W        W 9600   2.499   9.069  18.788
 8737W        W 9601   2.044   9.122  19.786
 8738W        W 9602   2.979   9.025  19.989
 8739W        W 9603   0.381   8.022  20.376
 8740W        W 9604   2.938   9.081  21.283
 8741W        W 9605   1.369  10.193  19.690
 8742W        W 9606   2.467  10.748  21.017
 8743W        W 9607   2.533   7.983  20.706
 8744W        W 9608   1.607  11.044  20.624
 8745W        W 9609   3.217   7.814  19.269
 8746W        W 9610   3.129   8.911  20.514
 8747W        W 9611   0.259   8.290  20.815
 8748W        W 9612   2.877   8.128  19.794
 8749W        W 9613   3.231   8.258  21.317
 8750W        W 9614   2.185   9.923  19.750
 8751W        W 9615   1.523  10.565  19.309
 8752W        W 9616   0.777   7.715  18.561
 8753W        W 9617   1.748   7.375  20.427
 8754W        W 9618   0.834  10.482  18.446
 8755W        W 9619   1.174   9.193  18.733
 8756W        W 9620   1.763   9.611  21.304
 8757W        W 9621   1.715   7.822  19.285
 8758W        W 9622   2.877   7.590  19.616
 8759W        W 9623   2.664  10.819  20.082
 8760W        W 9624   2.208  10.586  20.186
 8761W        W 9625   1.438   9.533  20.313
 8762W        W 9626   3.279  10.255  20.648
 8763W        W 9627   0.881   7.790  19.130
 8764W        W 9628   1.422  10.070  20.207
 8765W        W 9629   1.051   7.970  18.193
 8766W        W 9630   1.742   8.675  20.494
 8767W        W 9631   2.575   7.501  20.455
 8768W        W 9632   0.122   9.281  20.497
 8769W        W 9633   1.598   9.007  18.476
 8770W        W 9634   1.100   7.418  18.282
 8771W        W 9635   1.694   8.470  19.348
 8772W        W 9636   2.581   7.546  20.981
 8773W        W 9637   1.269   9.571  21.190
 8774W        W 9638   2.095   9.286  21.553
 8775W        W 9639   2.581   9.411  21.441
 8776W        W 9640   1.967   7.637  21.936
 8777W        W 9641   1.198   7.951  20.002
 8778W        W 9642   0.754   8.116  19.585
 8779W        W 9643   0.315  10.686  19.298
 8780W        W 9644   1.833  10.137  21.501
 8781W        W 9645   0.827   9.637  18.647
 8782W        W 9646   2.493   9.183  20.035
 8783W        W 9647   2.642   8.832  20.375
 8784W        W 9648   1.819   9.193  20.336
 8785W        W 9649   2.382   9.704  18.336
 8786W        W 9650   2.021   7.791  19.798
 8787W        W 9651   3.382   8.218  19.005
 8788W        W 9652   0.327  10.813  21.202
 8789W        W 9653   0.560   9.896  20.678
 8790W        W 9654  28.992  10.804  18.907
 8791W        W 9655   2.055   8.232  20.693
 8792W        W 9656   1.432  10.021  18.619
 8793W        W 9657   3.136  10.708  18.806
 8794W        W 9658   2.008   8.937  18.772
 8795W        W 9659   0.908   8.319  19.140
 8796W        W 9660   2.035   8.091  18.424
 8797W        W 9661   2.231   9.796  21.366
 8798W        W 9662   2.738   7.655  19.097
 8799W        W 9663   0.298   7.541  18.478
 8800W        W 9664   1.425   9.918  20.692
 8801W        W 9665   1.193   9.730  19.901
 8802W        W 9666   1.013  10.011  18.322
 8803W        W 9667   0.193  10.260  18.939
 8804W        W 9668   0.713   9.080  21.797
 8805W        W 9669   1.504   7.651  21.682
 8806W        W 9670   2.106   7.724  20.851
 8807W        W 9671   1.337   7.453  19.284
 8808W        W 9672   2.152   7.308  18.687
 8809W        W 9673   0.365   7.495  20.322
 8810W        W 9674   0.349   8.359  19.844
 8811W        W 9675   3.017   7.572  20.171
 8812W        W 9676   0.484   8.012  18.870
 8813W        W 9677   2.997   7.708  20.670
 8814W        W 9678   3.267   8.865  18.515
 8815W        W 9679   0.823   7.733  20.293
 8816W        W 9680   1.898   8.310  21.188
 8817W        W 9681   0.071   8.025  18.552
 8818W        W 9682   0.795   9.409  21.104
 8819W        W 9683   2.144   8.809  20.192
 8820W        W 9684   1.883  10.674  18.442
 8821W        W 9685   0.228   9.377  18.319
 8822W        W 9686   0.901   9.642  21.552
 8823W        W 9687   0.607   8.982  21.302
 8824W        W 9688   1.415   9.056  20.687
 8825W        W 9689   3.078   7.425  21.102
 8826W        W 9690   3.490   9.070  21.109
 8827W        W 9691   3.519   9.314  18.822
 8828W        W 9692   2.202   9.514  18.834
 8829W        W 9693   2.876  10.762  18.365
 8830W        W 9694   2.078   8.810  21.894
 8831W        W 9695   0.191   9.743  21.875
 8832W        W 9696   3.696   7.740  21.672
 8833W        W 9697   2.997   8.542  20.150
 8834W        W 9698   1.513  10.786  21.760
 8835W        W 9699   1.518   7.445  18.575
 8836W        W 9700   3.230   9.770  18.754
 8837W        W 9701   0.869   8.119  21.426
 8838W        W 9702   1.448  10.047  21.188
 8839W        W 9703   3.363   7.872  20.983
 8840W        W 9704   2.704  11.064  18.773
 8841W        W 9705   2.790   9.334  20.437
 8842W        W 9706   1.174   7.921  21.023
 8843W        W 9707   1.440   8.706  21.469
 8844W        W 9708   0.961  10.093  18.845
 8845W        W 9709   2.671   9.358  19.188
 8846W        W 9710   0.727   8.075  20.853
 8847W        W 9711   1.820  10.147  19.447
 8848W        W 9712   3.453   8.739  19.698
 8849W        W 9713   1.777   7.395  21.332
 8850W        W 9714   2.663  10.143  20.493
 8851W        W 9715   3.027  10.467  20.256
 8852W        W 9716   1.955   9.939  18.583
 8853W        W 9717   0.166  10.101  21.509
 8854W        W 9718   1.085   8.117  20.500
 8855W        W 9719   0.993   7.665  19.625
 8856W        W 9720   2.432   8.358  20.347
 8857W        W 9721   1.118   9.467  18.263
 8858W        W 9722   3.260   9.393  20.261
 8859W        W 9723   0.602  10.019  21.749
 8860W        W 9724   3.073  10.851  19.327
 8861W        W 9725   1.268   8.049  19.401
 8862W        W 9726   0.925   9.419  19.606
 8863W        W 9727   1.116  10.797  20.609
 8864W        W 9728   3.337  10.763  21.553
 8865W        W 9729   2.305   9.192  20.544
 8866W        W 9730   0.379   8.922  18.543
 8867W        W 9731   3.443  10.467  19.519
 8868W        W 9732   2.996   7.965  18.782
 8869W        W 9733   1.355   7.441  21.051
 8870W        W 9734   3.082  10.220  19.805
 8871W        W 9735   2.957   8.613  19.626
 8872W        W 9736   1.154   8.411  19.763
 8873W        W 9737   1.594   8.667  20.981
 8874W        W 9738   2.447   9.962  20.923
 8875W        W 9739   1.175   8.413  21.109
 8876W        W 9740   1.207  10.747  19.661
 8877W        W 9741   0.654  10.840  21.595
 8878W        W 9742   0.515  10.079  18.537
 8879W        W 9743   3.313   9.956  19.426
 8880W        W 9744   0.675   8.518  21.088
 8881W        W 9745   3.491   8.377  18.521
 8882W        W 9746   1.272   9.649  18.945
 8883W        W 9747   2.321   9.090  21.109
 8884W        W 9748   2.256   8.706  20.692
 8885W        W 9749   0.907   9.011  20.550
 8886W        W 9750   2.758   7.566  21.501
 8887W        W 9751   0.588   7.568  21.232
 8888W        W 9752   0.920   8.711  20.128
 8889W        W 9753   1.275   8.443  18.282
 8890W        W 9754   0.182  10.326  21.031
 8891W        W 9755   1.376   8.935  20.204
 8892W        W 9756   1.519   8.028  18.474
 8893W        W 9757   0.840   8.910  19.091
 8894W        W 9758   0.377  10.750  20.697
 8895W        W 9759   3.033   9.110  18.909
 8896W        W 9760   3.233   7.747  21.465
 8897W        W 9761   2.671  10.002  19.577
 8898W        W 9762   0.254   8.914  21.661
 8899W        W 9763   3.179   7.474  18.760
 8900W        W 9764   2.878   9.839  19.128
 8901W        W 9765   1.541   8.819  18.956
 8902W        W 9766   2.821   7.692  18.384
 8903W        W 9767   2.746   8.455  20.748
 8904W        W 9768   0.642   9.045  19.827
 8905W        W 9769   0.944   9.872  19.325
 8906W        W 9770   2.510   8.432  19.467
 8907W        W 9771   1.671   7.864  20.204
 8908W        W 9772   3.483   9.786  20.546
 8909W        W 9773   3.488   7.891  20.461
 8910W        W 9774   0.068  10.488  19.703
 8911W        W 9775   0.501   9.840  19.017
 8912W        W 9776   0.661   7.695  21.736
 8913W        W 9777   1.377  10.294  21.743
 8914W        W 9778   3.389   9.250  19.777
 8915W        W 9779   2.743   9.519  18.681
 8916W        W 9780   2.136  10.900  20.597
 8917W        W 9781   2.932   9.533  21.792
 8918W        W 9782   1.754   7.300  19.021
 8919W        W 9783   2.337   8.185  19.880
 8920W        W 9784   0.248   9.799  20.287
 8921W        W 9785   1.348   7.808  18.909
 8922W        W 9786   1.099   9.170  21.466
 8923W        W 9787   2.080   8.153  19.429
 8924W        W 9788   2.417   9.683  20.506
 8925W        W 9789   0.591  10.393  21.356
 8926W        W 9790   1.010  10.124  21.441
 8927W        W 9791   1.002   8.163  18.663
 8928W        W 9792   2.442   8.157  19.013
 8929W        W 9793   2.230  10.322  21.218
 8930W        W 9794   1.146   8.958  19.728
 8931W        W 9795   0.673  10.363  20.843
 8932W        W 9796   3.397  10.662  18.352
 8933W        W 9797   0.433   9.429  21.519
 8934W        W 9798   2.129   9.538  20.088
 8935W        W 9799   0.838   9.426  19.105
 8936W        W 9800   1.100  10.288  20.550
 8937W        W 9801   1.510   7.635  19.745
 8938W        W 9802   0.073   9.734  18.694
 8939W        W 9803   1.723   8.514  18.575
 8940W        W 9804   0.461   9.211  19.375
 8941W        W 9805   1.672   7.849  21.087
 8942W        W 9806   3.301   7.536  18.261
 8943W        W 9807   3.354   9.271  21.574
 8944W        W 9808   2.007  10.629  21.611
 8945W        W 9809   3.550   9.598  21.028
 8946W        W 9810   3.213  10.333  21.923
 8947W        W 9811   0.775  10.854  20.201
 8948W        W 9812   3.678   9.586  19.528
 8949W        W 9813   2.083   8.611  19.691
 8950W        W 9814   1.886   7.374  19.516
 8951W        W 9815   1.009  10.384  19.360
 8952W        W 9816   1.538   8.210  20.727
 8953W        W 9817   1.260   7.440  20.166
 8954W        W 9818   0.342  10.606  18.589
 8955W        W 9819   1.906   9.522  19.479
 8956W        W 9820   1.144  10.439  21.030
 8957W        W 9821   0.423   9.352  18.824
 8958W        W 9822   0.461   7.815  19.900
 8959W        W 9823   1.707   9.778  19.890
 8960W        W 9824   0.065   7.660  18.940
 8961W        W 9825   2.727   8.966  20.842
 8962W        W 9826   2.645   8.196  18.460
 8963W        W 9827   3.063   9.930  20.257
 8964W        W 9828   1.825  10.276  19.970
 8965W        W 9829   1.194  10.572  18.924
 8966W        W 9830   2.434   7.377  18.264
 8967W        W 9831   0.328  10.577  20.133
 8968W        W 9832   2.339   8.382  21.653
 8969W        W 9833   0.590   8.113  22.024
 8970W        W 9834   0.402   8.363  19.259
 8971W        W 9835   1.107   8.673  18.715
 8972W        W 9836   2.468   8.896  21.548
 8973W        W 9837   1.008   9.294  20.123
 8974W        W 9838   2.385   7.444  19.610
 8975W        W 9839   1.768  10.717  19.721
 8976W        W 9840   2.831  10.335  20.960
 8977W        W 9841   2.606  10.290  20.005
 8978W        W 9842   2.419   9.482  19.622
 8979W        W 9843   1.870   7.745  18.770
 8980W        W 9844   3.599   7.411  19.562
 8981W        W 9845   1.155   8.945  18.256
 8982W        W 9846   3.317   8.250  19.541
 8983W        W 9847   2.005   9.307  18.410
 8984W        W 9848   3.066   9.579  21.262
 8985W        W 9849   2.877   9.961  18.406
 8986W        W 9850   1.416   8.119  21.466
 8987W        W 9851   1.204   8.600  20.617
 8988W        W 9852   3.263  10.047  21.131
 8989W        W 9853   2.360   8.014  21.230
 8990W        W 9854   0.200   8.653  21.188
 8991W        W 9855   1.903   9.049  20.835
 8992W        W 9856   0.476   9.704  19.526
 8993W        W 9857   0.458   8.937  20.289
 8994W        W 9858   2.644   9.468  20.935
 8995W        W 9859   2.557  10.607  21.502
 8996W        W 9860   2.370   8.544  21.154
 8997W        W 9861   2.698  10.611  19.612
 8998W        W 9862   1.613  10.398  20.808
 8999W        W 9863   1.097  10.462  20.069
 9000W        W 9864   2.972   9.825  20.767
 9001W        W 9865   1.905   9.732  21.787
 9002W        W 9866   0.677   9.687  20.001
 9003W        W 9867   2.968   9.569  19.668
 9004W        W 9868   2.646  10.646  20.559
 9005W        W 9869   0.669  10.202  20.257
 9006W        W 9870   1.797   8.405  21.696
 9007W        W 9871   2.026  10.627  19.231
 9008W        W 9872   1.410   9.781  21.649
 9009W        W 9873   1.378  10.109  19.149
 9010W        W 9874   0.751   8.643  18.300
 9011W        W 9875   0.363  10.966  25.317
 9012W        W 9876   0.584   9.803  24.907
 9013W        W 9877   3.169   9.261  22.628
 9014W        W 9878   3.298  10.711  24.658
 9015W        W 9879   1.312  10.569  22.198
 9016W        W 9880   1.225   8.774  22.986
 9017W        W 9881   0.758   8.665  23.177
 9018W        W 9882   1.712   9.333  22.630
 9019W        W 9883   1.654  10.589  24.959
 9020W        W 9884   0.206   8.012  24.906
 9021W        W 9885   0.843   7.220  24.646
 9022W        W 9886   2.556   7.746  23.588
 9023W        W 9887   2.238   8.521  22.329
 9024W        W 9888   2.760   8.177  25.289
 9025W        W 9889   0.251   7.764  24.396
 9026W        W 9890   0.307  10.441  25.537
 9027W        W 9891   1.528   9.631  22.201
 9028W        W 9892   0.178   8.478  23.952
 9029W        W 9893   1.074   8.645  25.174
 9030W        W 9894   3.327   8.249  23.631
 9031W        W 9895   3.283   9.317  24.412
 9032W        W 9896   1.644   8.722  23.552
 9033W        W 9897   2.284  10.168  23.918
 9034W        W 9898   0.559   9.529  24.079
 9035W        W 9899  28.998   8.935  23.827
 9036W        W 9900   1.244   8.939  24.799
 9037W        W 9901   3.368   8.707  25.049
 9038W        W 9902   0.985  10.082  23.532
 9039W        W 9903   2.099   9.968  24.605
 9040W        W 9904   1.321   8.403  23.843
 9041W        W 9905   1.600   9.265  23.547
 9042W        W 9906   2.406  10.193  25.377
 9043W        W 9907   1.661   9.377  25.365
 9044W        W 9908   1.700   9.178  24.861
 9045W        W 9909   0.075   8.421  25.404
 9046W        W 9910   2.848   9.931  25.146
 9047W        W 9911   0.504   7.417  23.127
 9048W        W 9912   0.964   9.861  24.018
 9049W        W 9913   3.265   9.884  23.543
 9050W        W 9914   2.840   8.212  23.850
 9051W        W 9915   3.279   8.014  21.895
 9052W        W 9916   3.612   8.703  24.300
 9053W        W 9917   1.654  10.470  24.060
 9054W        W 9918   3.420  10.264  22.406
 9055W        W 9919   0.573  10.832  22.131
 9056W        W 9920   0.866  10.860  22.956
 9057W        W 9921   0.760   7.677  24.377
 9058W        W 9922   3.263   8.422  24.627
 9059W        W 9923   2.501   8.951  23.153
 9060W        W 9924   2.597   8.693  22.009
 9061W        W 9925   1.854   9.956  24.118
 9062W        W 9926   1.640   8.099  23.386
 9063W        W 9927   2.104  10.413  24.333
 9064W        W 9928   3.267   9.086  23.099
 9065W        W 9929   2.227   7.642  22.761
 9066W        W 9930   0.852  10.456  22.412
 9067W        W 9931   0.229   7.833  23.019
 9068W        W 9932   2.573   8.680  23.588
 9069W        W 9933   0.448  10.205  23.577
 9070W        W 9934   1.288  10.072  22.401
 9071W        W 9935   3.056   8.486  21.889
 9072W        W 9936   0.294  10.284  24.126
 9073W        W 9937   1.028   9.993  24.677
 9074W        W 9938   1.253   9.277  23.172
 9075W        W 9939   1.225   7.774  24.154
 9076W        W 9940   3.449   7.402  23.796
 9077W        W 9941   0.903   9.097  22.262
 9078W        W 9942   0.473   8.403  22.450
 9079W        W 9943   0.560  10.039  23.118
 9080W        W 9944   1.401   9.811  23.299
 9081W        W 9945   2.960  10.410  24.900
 9082W        W 9946   1.861   8.293  22.608
 9083W        W 9947   3.213  10.897  23.365
 9084W        W 9948   2.878   8.558  24.945
 9085W        W 9949   3.611  10.145  23.271
 9086W        W 9950   2.238   9.475  24.674
 9087W        W 9951   0.283   8.795  22.728
 9088W        W 9952   0.943   9.543  24.426
 9089W        W 9953   2.128   8.686  22.823
 9090W        W 9954   2.151   9.205  22.879
 9091W        W 9955   0.546   8.577  24.323
 9092W        W 9956   0.552   8.524  25.163
 9093W        W 9957   0.689   7.333  23.603
 9094W        W 9958   2.170   7.889  23.898
 9095W        W 9959   1.900   7.971  25.225
 9096W        W 9960   2.381   7.770  22.260
 9097W        W 9961   3.466  10.440  25.079
 9098W        W 9962   2.159   7.518  25.127
 9099W        W 9963   3.382   9.731  25.226
 9100W        W 9964   2.839   8.065  24.765
 9101W        W 9965   2.509   7.906  23.093
 9102W        W 9966   2.967   8.943  25.281
 9103W        W 9967   0.787  10.695  23.486
 9104W        W 9968   1.353   8.327  22.704
 9105W        W 9969   0.979   7.632  25.020
 9106W        W 9970   2.906   8.158  22.863
 9107W        W 9971   3.228   8.498  22.655
 9108W        W 9972   1.226  10.728  25.194
 9109W        W 9973   1.126   7.304  22.461
 9110W        W 9974   3.365   7.764  23.413
 9111W        W 9975   3.658  10.055  21.959
 9112W        W 9976   0.289   9.326  23.663
 9113W        W 9977   2.398   7.863  21.743
 9114W        W 9978   3.488  10.405  23.705
 9115W        W 9979   3.438   7.457  24.355
 9116W        W 9980   1.959   8.705  25.065
 9117W        W 9981   1.734   9.864  22.635
 9118W        W 9982   2.546   9.153  25.499
 9119W        W 9983   2.185   7.403  23.721
 9120W        W 9984   0.813   8.296  23.701
 9121W        W 9985   0.421   9.419  24.572
 9122W        W 9986   2.152  10.639  23.370
 9123W        W 9987   3.256   8.350  24.130
 9124W        W 9988   2.140  10.630  24.798
 9125W        W 9989   3.298   9.312  22.110
 9126W        W 9990   1.710   9.008  23.099
 9127W        W 9991   3.657   7.459  24.872
 9128W        W 9992   1.793   9.540  24.443
 9129W        W 9993   1.950   8.335  23.717
 9130W        W 9994   2.893   8.843  22.830
 9131W        W 9995   2.733   8.476  22.495
 9132W        W 9996   2.989  10.369  22.684
 9133W        W 9997   2.870   9.557  23.658
 9134W        W 9998   2.522   8.946  22.470
 9135W        W 9999   2.093   9.174  23.416
 9136W        W10000   2.905   9.073  23.459
 9137W        W10001   0.495   8.098  24.079
 9138W        W10002   3.073   9.033  24.786
 9139W        W10003   3.426  10.617  24.173
 9140W        W10004   1.419  10.311  23.391
 9141W        W10005   2.616  10.662  24.603
 9142W        W10006   2.447   8.029  24.405
 9143W        W10007   1.749  10.776  24.490
 9144W        W10008   3.258   7.777  22.897
 9145W        W10009   3.106   8.823  24.320
 9146W        W10010   0.137   8.265  24.421
 9147W        W10011   2.918   8.068  23.368
 9148W        W10012   3.239   8.195  25.081
 9149W        W10013   2.271  10.092  23.391
 9150W        W10014   1.674  10.566  23.039
 9151W        W10015   0.845   7.702  22.266
 9152W        W10016   1.688   7.423  23.897
 9153W        W10017   0.875  10.439  21.886
 9154W        W10018   1.224   9.156  22.649
 9155W        W10019   1.819   9.681  24.958
 9156W        W10020   1.731   7.863  22.918
 9157W        W10021   2.887   7.574  23.217
 9158W        W10022   2.539  10.923  23.673
 9159W        W10023   2.108  10.667  23.880
 9160W        W10024   1.517   9.512  23.985
 9161W        W10025   3.011  10.374  24.379
 9162W        W10026   0.886   7.707  22.801
 9163W        W10027   1.422  10.020  23.825
 9164W        W10028   1.098   7.926  21.866
 9165W        W10029   1.724   8.590  24.095
 9166W        W10030   2.834   7.414  24.184
 9167W        W10031   0.105   9.322  24.173
 9168W        W10032   1.520   9.091  22.220
 9169W        W10033   1.104   7.397  21.932
 9170W        W10034   1.668   8.498  23.075
 9171W        W10035   2.558   7.588  24.647
 9172W        W10036   1.334   9.552  24.798
 9173W        W10037   2.139   9.267  25.165
 9174W        W10038   2.631   9.293  24.960
 9175W        W10039   1.932   7.643  25.616
 9176W        W10040   1.200   7.940  23.607
 9177W        W10041   0.749   8.028  23.255
 9178W        W10042   0.520  10.488  22.819
 9179W        W10043   1.967  10.181  25.069
 9180W        W10044   0.999   9.608  22.402
 9181W        W10045   2.493   9.191  23.751
 9182W        W10046   2.627   8.804  24.081
 9183W        W10047   2.011   9.376  23.900
 9184W        W10048   2.416   9.677  21.851
 9185W        W10049   2.056   7.780  23.374
 9186W        W10050   3.568   8.106  22.640
 9187W        W10051   0.487  10.763  24.810
 9188W        W10052   0.591   9.934  24.393
 9189W        W10053   0.182  10.851  22.527
 9190W        W10054   1.975   8.179  24.275
 9191W        W10055   1.048   9.934  21.976
 9192W        W10056   3.155  10.705  22.304
 9193W        W10057   2.016   8.970  22.404
 9194W        W10058   0.850   8.258  22.806
 9195W        W10059   2.076   8.137  22.045
 9196W        W10060   2.321   9.774  25.074
 9197W        W10061   2.770   7.709  22.659
 9198W        W10062   0.341   7.587  22.130
 9199W        W10063   1.386   9.831  24.353
 9200W        W10064   1.139   9.553  23.628
 9201W        W10065   0.664   9.554  22.009
 9202W        W10066   0.259  10.046  22.703
 9203W        W10067   0.713   9.001  25.308
 9204W        W10068   1.445   7.681  25.279
 9205W        W10069   2.041   7.734  24.599
 9206W        W10070   1.366   7.456  22.920
 9207W        W10071   2.104   7.345  22.334
 9208W        W10072   0.351   7.489  23.966
 9209W        W10073   0.323   8.241  23.520
 9210W        W10074   3.024   7.710  23.786
 9211W        W10075   0.481   7.918  22.562
 9212W        W10076   2.970   7.920  24.273
 9213W        W10077   3.439   8.843  21.953
 9214W        W10078   0.794   7.761  23.855
 9215W        W10079   1.930   8.262  24.788
 9216W        W10080   0.100   8.076  22.201
 9217W        W10081   0.844   9.326  24.870
 9218W        W10082   2.118   8.837  23.846
 9219W        W10083   1.829  10.646  22.126
 9220W        W10084   0.246   9.275  22.030
 9221W        W10085   1.043   9.766  25.163
 9222W        W10086   0.531   8.906  24.807
 9223W        W10087   1.355   9.228  24.392
 9224W        W10088   3.052   7.396  24.732
 9225W        W10089   3.630   9.047  24.695
 9226W        W10090   3.506   8.887  22.468
 9227W        W10091   2.302   9.418  22.421
 9228W        W10092   2.915  10.767  21.850
 9229W        W10093   2.122   8.813  25.555
 9230W        W10094   0.235   9.706  25.434
 9231W        W10095   3.733   7.739  25.341
 9232W        W10096   3.050   8.693  23.806
 9233W        W10097   1.643  10.919  25.401
 9234W        W10098   1.536   7.498  22.183
 9235W        W10099   3.195   9.835  22.156
 9236W        W10100   0.880   8.156  25.060
 9237W        W10101   1.451  10.074  24.984
 9238W        W10102   3.324   7.871  24.650
 9239W        W10103   2.704  10.944  22.358
 9240W        W10104   2.969   9.181  23.983
 9241W        W10105   1.094   7.989  24.630
 9242W        W10106   1.532   8.865  25.293
 9243W        W10107   0.900  10.040  22.731
 9244W        W10108   2.674   9.314  22.801
 9245W        W10109   0.601   8.123  24.599
 9246W        W10110   1.820  10.063  23.146
 9247W        W10111   3.433   8.776  23.486
 9248W        W10112   1.722   7.429  24.875
 9249W        W10113   2.778  10.006  23.909
 9250W        W10114   3.033  10.613  23.831
 9251W        W10115   1.707  10.118  22.086
 9252W        W10116   0.183  10.133  25.137
 9253W        W10117   0.966   8.259  24.212
 9254W        W10118   1.004   7.573  23.293
 9255W        W10119   2.381   8.361  23.991
 9256W        W10120   1.151   9.411  21.936
 9257W        W10121   3.280   9.594  23.986
 9258W        W10122   0.630  10.050  25.367
 9259W        W10123   3.078  10.872  22.816
 9260W        W10124   1.249   7.960  23.062
 9261W        W10125   0.764   9.222  23.474
 9262W        W10126   1.287  10.794  24.239
 9263W        W10127   3.206  10.874  25.145
 9264W        W10128   2.327   9.173  24.254
 9265W        W10129   0.338   8.810  22.181
 9266W        W10130   3.425  10.498  22.932
 9267W        W10131   3.071   8.072  22.374
 9268W        W10132   1.283   7.504  24.612
 9269W        W10133   3.114  10.377  23.353
 9270W        W10134   2.995   8.583  23.276
 9271W        W10135   1.192   8.390  23.331
 9272W        W10136   1.719   8.707  24.606
 9273W        W10137   2.641   9.781  24.692
 9274W        W10138   1.377   8.403  24.825
 9275W        W10139   1.260  10.787  23.286
 9276W        W10140   0.744  10.629  25.337
 9277W        W10141   0.609   9.976  22.295
 9278W        W10142   3.204  10.006  22.995
 9279W        W10143   0.897   8.539  24.695
 9280W        W10144   3.475   8.385  22.203
 9281W        W10145   1.307   9.645  22.808
 9282W        W10146   2.156   8.991  24.712
 9283W        W10147   2.183   8.659  24.341
 9284W        W10148   0.866   9.011  24.432
 9285W        W10149   2.960  10.896  24.284
 9286W        W10150   2.760   7.687  25.115
 9287W        W10151   0.499   7.575  24.827
 9288W        W10152   0.920   8.731  23.968
 9289W        W10153   1.273   8.408  21.883
 9290W        W10154   0.291  10.277  24.651
 9291W        W10155   1.415   8.976  23.942
 9292W        W10156   1.574   8.022  22.051
 9293W        W10157   0.800   8.766  22.652
 9294W        W10158   0.389  10.783  24.303
 9295W        W10159   3.019   8.862  22.294
 9296W        W10160   3.263   7.694  25.142
 9297W        W10161   2.779   9.963  23.361
 9298W        W10162   0.205   8.896  25.228
 9299W        W10163   3.254   7.576  22.418
 9300W        W10164   2.944   9.734  22.629
 9301W        W10165   1.618   8.785  22.648
 9302W        W10166   2.854   7.726  22.022
 9303W        W10167   2.789   8.413  24.375
 9304W        W10168   0.510   8.746  23.626
 9305W        W10169   0.920   9.678  23.158
 9306W        W10170   2.540   8.453  23.048
 9307W        W10171   1.641   7.960  23.897
 9308W        W10172   3.549   9.872  24.372
 9309W        W10173   3.462   7.887  24.027
 9310W        W10174   0.286  10.626  23.268
 9311W        W10175   0.581   9.648  22.730
 9312W        W10176   0.554   7.591  25.356
 9313W        W10177   1.601  10.376  25.424
 9314W        W10178   3.340   9.348  23.545
 9315W        W10179   2.809   9.356  22.274
 9316W        W10180   2.220  10.924  24.319
 9317W        W10181   2.955   9.451  25.338
 9318W        W10182   1.658   7.191  22.571
 9319W        W10183   2.397   8.213  23.492
 9320W        W10184   0.189   9.827  23.864
 9321W        W10185   1.332   7.825  22.534
 9322W        W10186   1.188   9.242  25.217
 9323W        W10187   2.085   8.204  23.073
 9324W        W10188   2.339   9.702  24.219
 9325W        W10189   0.728  10.312  24.941
 9326W        W10190   1.108  10.255  25.337
 9327W        W10191   1.016   8.200  22.314
 9328W        W10192   2.379   8.129  22.639
 9329W        W10193   2.467  10.235  24.870
 9330W        W10194   1.145   8.878  23.508
 9331W        W10195   0.744  10.430  24.440
 9332W        W10196   3.599  10.629  22.038
 9333W        W10197   0.385   9.348  25.089
 9334W        W10198   2.370   9.701  23.707
 9335W        W10199   0.786   9.204  22.941
 9336W        W10200   1.197  10.285  24.235
 9337W        W10201   1.539   7.584  23.401
 9338W        W10202   0.147   9.633  22.396
 9339W        W10203   1.706   8.560  22.184
 9340W        W10204   0.362   9.023  23.191
 9341W        W10205   1.559   7.912  24.823
 9342W        W10206   3.339   7.493  21.923
 9343W        W10207   3.401   9.222  25.138
 9344W        W10208   2.075  10.646  25.312
 9345W        W10209   3.599   9.567  24.773
 9346W        W10210   3.041  10.350  25.400
 9347W        W10211   0.825  10.870  23.987
 9348W        W10212   3.519   9.622  23.141
 9349W        W10213   2.113   8.654  23.338
 9350W        W10214   1.874   7.380  23.039
 9351W        W10215   0.964  10.380  23.113
 9352W        W10216   1.472   8.202  24.349
 9353W        W10217   1.183   7.420  23.771
 9354W        W10218   0.327  10.408  22.331
 9355W        W10219   1.779   9.523  23.111
 9356W        W10220   1.190  10.489  24.721
 9357W        W10221   0.474   9.214  22.500
 9358W        W10222   0.396   7.743  23.511
 9359W        W10223   1.834   9.754  23.598
 9360W        W10224   0.040   7.666  22.541
 9361W        W10225   2.633   8.872  24.591
 9362W        W10226   2.618   8.191  22.085
 9363W        W10227   3.267  10.111  24.026
 9364W        W10228   1.860  10.268  23.641
 9365W        W10229   1.251  10.612  22.726
 9366W        W10230   2.399   7.363  21.869
 9367W        W10231   0.366  10.671  23.786
 9368W        W10232   2.276   8.358  25.288
 9369W        W10233   0.500   8.106  25.474
 9370W        W10234   0.372   8.356  23.003
 9371W        W10235   1.213   8.683  22.350
 9372W        W10236   2.462   8.826  25.108
 9373W        W10237   0.979   9.246  23.989
 9374W        W10238   2.388   7.393  23.233
 9375W        W10239   1.672  10.752  23.578
 9376W        W10240   2.551  10.157  24.365
 9377W        W10241   2.616  10.412  23.600
 9378W        W10242   2.518   9.452  23.281
 9379W        W10243   1.876   7.812  22.421
 9380W        W10244   3.576   7.410  23.087
 9381W        W10245   1.202   8.906  21.882
 9382W        W10246   3.354   8.242  23.113
 9383W        W10247   1.950   9.316  22.054
 9384W        W10248   3.078   9.545  24.838
 9385W        W10249   2.799  10.042  21.848
 9386W        W10250   1.349   8.197  25.297
 9387W        W10251   1.269   8.679  24.347
 9388W        W10252   3.273  10.020  24.795
 9389W        W10253   2.354   7.969  24.950
 9390W        W10254   0.138   8.543  24.850
 9391W        W10255   1.829   9.062  24.263
 9392W        W10256   0.422   9.535  23.203
 9393W        W10257   0.489   9.014  24.060
 9394W        W10258   2.770   9.349  24.444
 9395W        W10259   2.595  10.667  25.160
 9396W        W10260   2.409   8.440  24.758
 9397W        W10261   2.748  10.745  23.219
 9398W        W10262   1.648  10.253  24.540
 9399W        W10263   1.215  10.563  23.778
 9400W        W10264   3.023   9.819  24.370
 9401W        W10265   1.983   9.781  25.450
 9402W        W10266   0.642   9.721  23.616
 9403W        W10267   3.013   9.533  23.146
 9404W        W10268   2.576  10.595  24.090
 9405W        W10269   0.774  10.351  23.935
 9406W        W10270   1.774   8.425  25.442
 9407W        W10271   1.679  10.378  22.547
 9408W        W10272   1.463   9.867  25.467
 9409W        W10273   1.375  10.147  22.905
 9410W        W10274   0.793   8.604  22.038
 9411W        W10275   0.174  10.988  28.794
 9412W        W10276   0.509   9.896  28.577
 9413W        W10277   3.111   9.161  26.256
 9414W        W10278   3.446  10.561  28.181
 9415W        W10279   1.274  10.702  25.716
 9416W        W10280   1.150   8.624  26.543
 9417W        W10281   0.722   8.521  26.812
 9418W        W10282   1.603   9.304  26.277
 9419W        W10283   1.608  10.577  28.309
 9420W        W10284   0.283   8.118  28.460
 9421W        W10285   0.858   7.227  28.250
 9422W        W10286   2.592   7.789  27.247
 9423W        W10287   2.323   8.543  25.958
 9424W        W10288   2.798   8.156  28.795
 9425W        W10289   0.327   7.838  28.019
 9426W        W10290   0.282  10.495  28.824
 9427W        W10291   1.674   9.592  25.851
 9428W        W10292   0.248   8.584  27.474
 9429W        W10293   1.102   8.581  28.705
 9430W        W10294   3.392   8.164  27.309
 9431W        W10295   3.263   9.309  28.060
 9432W        W10296   1.589   8.717  27.138
 9433W        W10297   2.270  10.134  27.573
 9434W        W10298   0.613   9.503  27.796
 9435W        W10299  28.959   9.010  27.441
 9436W        W10300   1.204   9.085  28.470
 9437W        W10301   3.442   8.744  28.711
 9438W        W10302   0.929  10.115  27.166
 9439W        W10303   1.940  10.220  28.137
 9440W        W10304   1.384   8.346  27.457
 9441W        W10305   1.441   9.219  27.098
 9442W        W10306   2.296  10.127  28.973
 9443W        W10307   1.571   9.337  28.888
 9444W        W10308   1.706   9.217  28.405
 9445W        W10309   0.107   8.436  28.906
 9446W        W10310   2.773   9.990  28.741
 9447W        W10311   0.443   7.517  26.638
 9448W        W10312   0.938   9.890  27.659
 9449W        W10313   3.403   9.614  27.083
 9450W        W10314   2.831   8.095  27.586
 9451W        W10315   3.373   8.024  25.565
 9452W        W10316   3.735   8.757  27.956
 9453W        W10317   1.497  10.677  27.370
 9454W        W10318   3.472  10.022  26.018
 9455W        W10319   0.517  11.110  26.218
 9456W        W10320   0.887  10.896  26.553
 9457W        W10321   0.760   7.573  27.884
 9458W        W10322   3.290   8.637  28.231
 9459W        W10323   2.734   9.105  26.894
 9460W        W10324   2.640   8.636  25.561
 9461W        W10325   1.822   9.929  27.721
 9462W        W10326   1.653   8.122  27.031
 9463W        W10327   2.419  10.392  28.000
 9464W        W10328   3.197   8.957  26.729
 9465W        W10329   2.193   7.700  26.479
 9466W        W10330   0.629  10.564  26.235
 9467W        W10331   0.121   7.906  26.710
 9468W        W10332   2.476   8.743  27.146
 9469W        W10333   0.339  10.053  27.084
 9470W        W10334   1.331  10.200  25.883
 9471W        W10335   3.134   8.491  25.494
 9472W        W10336   0.138  10.482  27.905
 9473W        W10337   0.905   9.922  28.177
 9474W        W10338   1.258   9.116  26.621
 9475W        W10339   1.305   7.710  27.744
 9476W        W10340   3.551   7.437  27.444
 9477W        W10341   0.703   9.083  25.851
 9478W        W10342   0.551   8.311  25.971
 9479W        W10343   0.484  10.241  26.631
 9480W        W10344   1.326   9.618  26.616
 9481W        W10345   3.016  10.415  28.511
 9482W        W10346   1.910   8.097  26.207
 9483W        W10347   3.230  10.907  27.199
 9484W        W10348   2.944   8.617  28.620
 9485W        W10349   3.602  10.275  26.815
 9486W        W10350   2.106   9.462  28.165
 9487W        W10351   0.410   8.769  26.178
 9488W        W10352   1.094   9.466  27.994
 9489W        W10353   2.051   8.563  26.399
 9490W        W10354   2.296   8.958  26.628
 9491W        W10355   0.520   8.601  27.914
 9492W        W10356   0.578   8.522  28.685
 9493W        W10357   0.474   7.398  27.126
 9494W        W10358   2.225   7.946  27.582
 9495W        W10359   1.977   7.878  28.743
 9496W        W10360   2.312   7.753  25.974
 9497W        W10361   3.518  10.339  28.686
 9498W        W10362   2.357   7.413  28.621
 9499W        W10363   3.300   9.900  28.801
 9500W        W10364   2.953   8.134  28.298
 9501W        W10365   2.566   7.940  26.742
 9502W        W10366   3.003   9.013   0.012
 9503W        W10367   0.646  10.520  27.066
 9504W        W10368   1.414   8.273  26.235
 9505W        W10369   1.039   7.577  28.671
 9506W        W10370   2.917   8.261  26.494
 9507W        W10371   3.275   8.621  26.329
 9508W        W10372   1.152  10.840   0.008
 9509W        W10373   1.002   7.329  26.027
 9510W        W10374   3.420   7.730  27.019
 9511W        W10375   3.512  10.132  25.513
 9512W        W10376   0.277   9.348  27.229
 9513W        W10377   2.405   7.821  25.460
 9514W        W10378   3.412  10.327  27.293
 9515W        W10379   3.506   7.480  27.976
 9516W        W10380   2.022   8.773  28.484
 9517W        W10381   1.720   9.812  26.329
 9518W        W10382   2.453   9.106   0.125
 9519W        W10383   2.252   7.438  27.462
 9520W        W10384   0.785   8.209  27.228
 9521W        W10385   0.297   9.604  28.209
 9522W        W10386   2.471  10.546  27.349
 9523W        W10387   3.314   8.322  27.813
 9524W        W10388   2.115  10.685  28.304
 9525W        W10389   3.335   9.362  25.681
 9526W        W10390   1.767   8.956  26.644
 9527W        W10391   3.616   7.418  28.473
 9528W        W10392   1.641   9.490  27.958
 9529W        W10393   1.942   8.377  27.381
 9530W        W10394   2.781   8.811  26.460
 9531W        W10395   2.842   8.534  26.039
 9532W        W10396   3.246  10.255  26.439
 9533W        W10397   2.569   9.682  27.611
 9534W        W10398   2.561   8.993  26.004
 9535W        W10399   1.989   9.099  27.103
 9536W        W10400   3.086   9.031  27.275
 9537W        W10401   0.459   8.128  27.621
 9538W        W10402   3.102   9.093  28.503
 9539W        W10403   3.475  10.716  27.644
 9540W        W10404   1.358  10.338  27.008
 9541W        W10405   2.635  10.750  28.333
 9542W        W10406   2.507   8.082  27.997
 9543W        W10407   1.785  10.927  27.987
 9544W        W10408   3.250   7.840  26.533
 9545W        W10409   3.206   8.866  27.769
 9546W        W10410   0.060   8.321  27.914
 9547W        W10411   2.965   8.087  27.041
 9548W        W10412   3.332   8.243  28.640
 9549W        W10413   2.224   9.762  27.220
 9550W        W10414   1.416  10.686  26.620
 9551W        W10415   0.646   7.763  25.855
 9552W        W10416   1.723   7.413  27.537
 9553W        W10417   0.851  10.394  25.783
 9554W        W10418   1.138   9.145  26.113
 9555W        W10419   1.794   9.785  28.394
 9556W        W10420   1.683   7.832  26.588
 9557W        W10421   2.931   7.587  26.893
 9558W        W10422   2.740  10.981  27.310
 9559W        W10423   2.051  10.617  27.668
 9560W        W10424   1.313   9.487  27.550
 9561W        W10425   3.303  10.208  27.797
 9562W        W10426   0.875   7.686  26.398
 9563W        W10427   1.383  10.024  27.434
 9564W        W10428   0.984   7.897  25.483
 9565W        W10429   1.675   8.663  27.724
 9566W        W10430   2.641   7.636  27.739
 9567W        W10431   0.112   9.342  27.828
 9568W        W10432   1.602   9.058  25.785
 9569W        W10433   1.026   7.398  25.505
 9570W        W10434   1.622   8.456  26.657
 9571W        W10435   2.747   7.619  28.250
 9572W        W10436   1.320   9.597  28.424
 9573W        W10437   2.127   9.258  28.721
 9574W        W10438   2.660   9.309  28.665
 9575W        W10439   2.024   7.521   0.108
 9576W        W10440   1.218   7.905  27.240
 9577W        W10441   0.636   7.978  26.795
 9578W        W10442   0.374  10.739  26.648
 9579W        W10443   1.853  10.232  28.656
 9580W        W10444   0.726   9.581  25.961
 9581W        W10445   2.449   9.246  27.324
 9582W        W10446   2.694   8.855  27.594
 9583W        W10447   1.714   9.152  27.547
 9584W        W10448   2.524   9.677  25.530
 9585W        W10449   2.073   7.800  27.096
 9586W        W10450   3.582   8.180  26.287
 9587W        W10451   0.356  10.704  28.367
 9588W        W10452   0.452  10.022  27.964
 9589W        W10453   0.112  10.797  26.199
 9590W        W10454   2.026   8.321  27.893
 9591W        W10455   0.989   9.896  25.683
 9592W        W10456   3.557  10.582  26.189
 9593W        W10457   2.019   8.972  26.091
 9594W        W10458   0.857   8.232  26.398
 9595W        W10459   2.092   8.138  25.721
 9596W        W10460   2.358   9.738  28.530
 9597W        W10461   2.774   7.795  26.274
 9598W        W10462   0.189   7.501  25.749
 9599W        W10463   1.369   9.925  27.958
 9600W        W10464   1.171   9.667  27.097
 9601W        W10465   0.721   9.495  25.455
 9602W        W10466   0.194  10.281  26.199
 9603W        W10467   0.749   9.025  28.699
 9604W        W10468   1.530   7.621  28.826
 9605W        W10469   2.027   7.838  28.107
 9606W        W10470   1.313   7.438  26.638
 9607W        W10471   2.223   7.274  26.151
 9608W        W10472   0.318   7.517  27.603
 9609W        W10473   0.306   8.319  27.037
 9610W        W10474   3.101   7.704  27.410
 9611W        W10475   0.445   7.934  26.302
 9612W        W10476   3.110   7.822  27.919
 9613W        W10477   3.497   8.875  25.525
 9614W        W10478   0.761   7.725  27.401
 9615W        W10479   2.003   8.268  28.405
 9616W        W10480   0.149   8.008  25.864
 9617W        W10481   0.789   9.468  28.401
 9618W        W10482   2.142   8.845  27.535
 9619W        W10483   1.811  10.662  25.802
 9620W        W10484   0.270   9.225  25.617
 9621W        W10485   0.999   9.937  28.671
 9622W        W10486   0.495   9.091  28.163
 9623W        W10487   1.411   9.034  27.988
 9624W        W10488   3.139   7.276  28.304
 9625W        W10489   3.607   9.078  28.351
 9626W        W10490   3.543   8.986  26.042
 9627W        W10491   2.108   9.392  26.367
 9628W        W10492   2.937  10.841  25.573
 9629W        W10493   2.046   8.787   0.020
 9630W        W10494   0.599   9.669   0.047
 9631W        W10495   3.614   7.827  28.823
 9632W        W10496   3.026   8.522  27.417
 9633W        W10497   1.627  10.706  28.828
 9634W        W10498   1.451   7.507  25.764
 9635W        W10499   3.085   9.853  25.656
 9636W        W10500   0.819   8.066  28.627
 9637W        W10501   1.396  10.132  28.428
 9638W        W10502   3.465   7.907  28.281
 9639W        W10503   2.743  11.063  26.009
 9640W        W10504   2.897   9.307  27.688
 9641W        W10505   1.078   7.793  28.211
 9642W        W10506   1.584   8.816  28.749
 9643W        W10507   0.876  10.086  26.212
 9644W        W10508   2.640   9.315  26.416
 9645W        W10509   0.703   8.175  28.138
 9646W        W10510   1.637   9.937  26.879
 9647W        W10511   3.422   8.654  27.123
 9648W        W10512   1.867   7.438  28.475
 9649W        W10513   2.770  10.138  27.728
 9650W        W10514   2.982  10.539  27.494
 9651W        W10515   1.824  10.106  25.824
 9652W        W10516   0.225  10.023   0.003
 9653W        W10517   0.984   8.109  27.706
 9654W        W10518   0.920   7.560  26.932
 9655W        W10519   2.440   8.417  27.582
 9656W        W10520   1.204   9.431  25.685
 9657W        W10521   3.374   9.420  27.558
 9658W        W10522   0.713  10.256  28.942
 9659W        W10523   3.099  11.169  26.430
 9660W        W10524   1.198   7.959  26.701
 9661W        W10525   0.803   9.318  26.904
 9662W        W10526   1.300  10.830  27.829
 9663W        W10527   3.316  10.804  28.659
 9664W        W10528   2.409   9.191  27.829
 9665W        W10529   0.430   8.703  25.649
 9666W        W10530   3.366  10.735  26.665
 9667W        W10531   3.129   8.107  26.024
 9668W        W10532   1.361   7.359  28.343
 9669W        W10533   3.138  10.008  26.916
 9670W        W10534   2.924   8.584  26.921
 9671W        W10535   1.204   8.382  26.986
 9672W        W10536   1.593   8.611  28.243
 9673W        W10537   2.763  10.041  28.234
 9674W        W10538   1.194   8.276  28.314
 9675W        W10539   1.098  10.789  27.018
 9676W        W10540   0.703  10.800  28.732
 9677W        W10541   0.494  10.027  25.857
 9678W        W10542   3.485   9.816  26.574
 9679W        W10543   0.858   8.709  28.282
 9680W        W10544   3.517   8.456  25.846
 9681W        W10545   1.235   9.713  26.117
 9682W        W10546   2.383   9.082  28.316
 9683W        W10547   2.362   8.699  27.993
 9684W        W10548   0.905   9.009  27.865
 9685W        W10549   3.058  10.999  27.719
 9686W        W10550   2.857   7.308  28.754
 9687W        W10551   0.591   7.638  28.417
 9688W        W10552   0.816   8.651  27.485
 9689W        W10553   1.351   8.487  25.752
 9690W        W10554   0.169  10.213  28.363
 9691W        W10555   1.269   8.905  27.499
 9692W        W10556   1.580   8.018  25.777
 9693W        W10557   0.762   8.961  26.515
 9694W        W10558   0.371  10.966  27.949
 9695W        W10559   3.050   8.929  25.790
 9696W        W10560   3.117   7.739  28.624
 9697W        W10561   3.064   9.478  26.704
 9698W        W10562   0.257   8.924  28.788
 9699W        W10563   3.213   7.595  26.063
 9700W        W10564   3.127   9.680  26.211
 9701W        W10565   1.506   8.793  26.226
 9702W        W10566   2.931   7.780  25.612
 9703W        W10567   2.841   8.490  27.937
 9704W        W10568   0.531   8.898  27.122
 9705W        W10569   0.861   9.884  26.713
 9706W        W10570   2.479   8.471  26.689
 9707W        W10571   1.710   7.926  27.498
 9708W        W10572   3.564   9.743  27.956
 9709W        W10573   3.597   7.902  27.715
 9710W        W10574   0.144  10.522  27.049
 9711W        W10575   0.451   9.818  26.337
 9712W        W10576   0.631   7.704  28.946
 9713W        W10577   1.776  10.179   0.161
 9714W        W10578   3.541   9.141  27.048
 9715W        W10579   2.845   9.407  25.859
 9716W        W10580   2.268  11.130  28.077
 9717W        W10581   2.983   9.550  28.968
 9718W        W10582   1.481   7.235  26.204
 9719W        W10583   2.371   8.230  27.123
 9720W        W10584   0.227   9.774  27.531
 9721W        W10585   1.340   7.756  26.204
 9722W        W10586   1.044   9.460  28.850
 9723W        W10587   2.071   8.147  26.705
 9724W        W10588   2.318   9.889  28.017
 9725W        W10589   0.722  10.347  28.423
 9726W        W10590   1.281  10.306  28.936
 9727W        W10591   1.040   8.097  25.942
 9728W        W10592   2.415   8.163  26.288
 9729W        W10593   2.366  10.263  28.487
 9730W        W10594   1.048   8.871  27.030
 9731W        W10595   0.647  10.503  27.926
 9732W        W10596   3.443  10.634  25.581
 9733W        W10597   0.360   9.403  28.673
 9734W        W10598   2.075   9.501  27.639
 9735W        W10599   0.880   9.466  26.425
 9736W        W10600   1.131  10.396  28.068
 9737W        W10601   1.591   7.600  27.050
 9738W        W10602   0.159   9.621  25.956
 9739W        W10603   1.817   8.523  25.935
 9740W        W10604   0.280   9.126  26.721
 9741W        W10605   1.576   7.901  28.387
 9742W        W10606   3.373   7.464  25.594
 9743W        W10607   3.463   9.251  28.821
 9744W        W10608   2.144  10.627  28.815
 9745W        W10609   3.570   9.611  28.461
 9746W        W10610   3.102  10.311   0.031
 9747W        W10611   0.816  10.927  27.685
 9748W        W10612   3.527   9.306  26.563
 9749W        W10613   2.038   8.606  26.928
 9750W        W10614   1.831   7.332  26.587
 9751W        W10615   0.959  10.405  26.675
 9752W        W10616   1.525   8.167  27.929
 9753W        W10617   1.214   7.384  27.349
 9754W        W10618   0.553  10.821  25.794
 9755W        W10619   1.789   9.453  26.774
 9756W        W10620   1.156  10.611  28.546
 9757W        W10621   0.439   9.280  26.251
 9758W        W10622   0.265   7.853  27.217
 9759W        W10623   1.722   9.625  27.280
 9760W        W10624   0.032   7.664  26.251
 9761W        W10625   2.824   8.983  28.093
 9762W        W10626   2.621   8.144  25.801
 9763W        W10627   3.140   9.892  27.433
 9764W        W10628   1.826  10.261  27.311
 9765W        W10629   1.142  10.548  26.208
 9766W        W10630   2.311   7.289  25.577
 9767W        W10631   0.388  10.698  27.491
 9768W        W10632   2.304   8.322  28.865
 9769W        W10633   0.589   8.194   0.094
 9770W        W10634   0.310   8.380  26.518
 9771W        W10635   0.948   8.649  26.062
 9772W        W10636   2.477   8.811  28.721
 9773W        W10637   0.881   9.233  27.399
 9774W        W10638   2.414   7.434  26.921
 9775W        W10639   1.904  10.897  27.119
 9776W        W10640   2.958  10.527  28.008
 9777W        W10641   2.692  10.060  27.229
 9778W        W10642   2.323   9.422  26.847
 9779W        W10643   1.826   7.605  26.119
 9780W        W10644   3.643   7.389  26.703
 9781W        W10645   1.123   8.918  25.623
 9782W        W10646   3.374   8.298  26.762
 9783W        W10647   2.087   9.316  25.693
 9784W        W10648   3.043   9.615  28.448
 9785W        W10649   3.135  10.402  25.916
 9786W        W10650   1.300   8.089  28.809
 9787W        W10651   1.174   8.565  27.886
 9788W        W10652   3.287  10.044  28.289
 9789W        W10653   2.414   7.933  28.481
 9790W        W10654   0.180   8.619  28.358
 9791W        W10655   1.942   9.004  28.001
 9792W        W10656   0.400   9.630  26.809
 9793W        W10657   0.456   9.032  27.619
 9794W        W10658   2.650   9.505  28.145
 9795W        W10659   2.650  10.543  28.841
 9796W        W10660   2.521   8.425  28.390
 9797W        W10661   3.009  10.497  26.981
 9798W        W10662   1.581  10.389  27.794
 9799W        W10663   1.040  10.461  27.537
 9800W        W10664   3.048   9.749  27.917
 9801W        W10665   1.965   9.735  28.886
 9802W        W10666   0.667   9.686  27.265
 9803W        W10667   2.881   9.518  27.199
 9804W        W10668   2.577  10.810  27.783
 9805W        W10669   0.556  10.214  27.507
 9806W        W10670   1.773   8.340  28.873
 9807W        W10671   1.650  10.426  26.227
 9808W        W10672   1.470   9.842  28.856
 9809W        W10673   1.322  10.115  26.478
 9810W        W10674   0.874   8.433  25.580
 9811W        W10675  28.991  14.682   3.344
 9812W        W10676   0.571  13.405   3.015
 9813W        W10677   3.263  13.083   0.712
 9814W        W10678   3.319  14.275   2.758
 9815W        W10679   1.418  14.207   0.288
 9816W        W10680   1.178  12.487   1.118
 9817W        W10681   0.783  12.318   1.422
 9818W        W10682   1.737  12.952   0.789
 9819W        W10683   1.633  14.182   3.220
 9820W        W10684   0.171  11.633   3.020
 9821W        W10685   0.855  10.896   2.737
 9822W        W10686   2.684  11.362   1.749
 9823W        W10687   2.291  12.139   0.449
 9824W        W10688   2.796  11.740   3.349
 9825W        W10689   0.283  11.384   2.585
 9826W        W10690   0.382  14.309   3.368
 9827W        W10691   1.714  13.281   0.366
 9828W        W10692   0.191  12.147   2.126
 9829W        W10693   1.070  12.264   3.363
 9830W        W10694   3.334  11.804   1.876
 9831W        W10695   3.330  13.037   2.587
 9832W        W10696   1.702  12.392   1.694
 9833W        W10697   2.252  13.708   2.059
 9834W        W10698   0.529  13.228   2.298
 9835W        W10699  28.996  12.591   1.957
 9836W        W10700   1.220  12.568   2.961
 9837W        W10701   3.341  12.419   3.208
 9838W        W10702   0.967  13.719   1.686
 9839W        W10703   2.129  13.584   2.675
 9840W        W10704   1.303  12.104   1.968
 9841W        W10705   1.567  12.936   1.646
 9842W        W10706   2.346  13.842   3.456
 9843W        W10707   1.645  12.993   3.452
 9844W        W10708   1.699  12.754   2.999
 9845W        W10709   0.098  11.959   3.455
 9846W        W10710   2.783  13.652   3.229
 9847W        W10711   0.534  11.176   1.212
 9848W        W10712   0.988  13.482   2.190
 9849W        W10713   3.379  13.284   1.584
 9850W        W10714   2.847  11.751   2.053
 9851W        W10715   3.228  11.666   0.105
 9852W        W10716   3.551  12.295   2.400
 9853W        W10717   1.626  14.148   2.175
 9854W        W10718   3.307  13.611   0.676
 9855W        W10719   0.591  14.588   0.709
 9856W        W10720   0.836  14.476   1.161
 9857W        W10721   0.789  11.356   2.478
 9858W        W10722   3.166  12.264   2.719
 9859W        W10723   2.634  12.575   1.173
 9860W        W10724   2.709  12.344   0.247
 9861W        W10725   1.794  13.688   2.294
 9862W        W10726   1.662  11.741   1.480
 9863W        W10727   2.114  14.072   2.521
 9864W        W10728   3.161  12.696   1.053
 9865W        W10729   2.212  11.352   0.957
 9866W        W10730   0.919  14.058   0.382
 9867W        W10731   0.220  11.569   1.263
 9868W        W10732   2.728  12.181   1.735
 9869W        W10733   0.428  13.792   1.752
 9870W        W10734   1.476  13.735   0.478
 9871W        W10735   2.969  12.072  28.841
 9872W        W10736   0.219  13.875   2.232
 9873W        W10737   1.021  13.650   2.852
 9874W        W10738   1.364  13.055   1.180
 9875W        W10739   1.238  11.505   2.238
 9876W        W10740   3.678  11.025   1.718
 9877W        W10741   0.793  12.726   0.450
 9878W        W10742   0.536  12.047   0.647
 9879W        W10743   0.578  13.797   1.268
 9880W        W10744   1.559  13.444   1.479
 9881W        W10745   2.900  14.154   3.014
 9882W        W10746   1.921  11.876   0.720
 9883W        W10747   3.244  14.300   1.557
 9884W        W10748   2.835  12.244   3.103
 9885W        W10749   3.639  13.639   1.279
 9886W        W10750   2.258  13.084   2.760
 9887W        W10751   0.149  12.507   0.978
 9888W        W10752   0.933  13.204   2.619
 9889W        W10753   2.216  12.244   0.949
 9890W        W10754   2.156  12.735   1.052
 9891W        W10755   0.515  12.272   2.511
 9892W        W10756   0.582  12.131   3.318
 9893W        W10757   0.586  10.998   1.698
 9894W        W10758   2.261  11.489   2.060
 9895W        W10759   1.932  11.577   3.282
 9896W        W10760   2.392  11.449   0.447
 9897W        W10761   3.412  14.059   3.235
 9898W        W10762   2.222  11.128   3.203
 9899W        W10763   3.264  13.521   3.358
 9900W        W10764   2.867  11.627   2.818
 9901W        W10765   2.612  11.521   1.234
 9902W        W10766   2.926  12.650   3.423
 9903W        W10767   0.763  14.175   1.600
 9904W        W10768   1.402  11.916   0.812
 9905W        W10769   1.001  11.286   3.125
 9906W        W10770   2.954  11.847   0.998
 9907W        W10771   3.245  12.229   0.825
 9908W        W10772   1.219  14.512   3.343
 9909W        W10773   1.111  10.955   0.555
 9910W        W10774   3.447  11.445   1.532
 9911W        W10775   3.513  13.792   0.225
 9912W        W10776   0.315  12.954   1.806
 9913W        W10777   2.344  11.451  28.933
 9914W        W10778   3.545  13.896   1.728
 9915W        W10779   3.461  11.079   2.479
 9916W        W10780   1.949  12.273   3.191
 9917W        W10781   1.842  13.484   0.827
 9918W        W10782   2.505  12.853   3.654
 9919W        W10783   2.291  11.024   1.840
 9920W        W10784   0.802  11.971   1.839
 9921W        W10785   0.368  12.974   2.719
 9922W        W10786   2.236  14.196   1.533
 9923W        W10787   3.250  11.853   2.402
 9924W        W10788   2.080  14.307   2.986
 9925W        W10789   3.352  13.278   0.242
 9926W        W10790   1.670  12.645   1.220
 9927W        W10791   3.583  11.122   2.994
 9928W        W10792   1.885  13.203   2.422
 9929W        W10793   1.962  11.955   1.837
 9930W        W10794   2.724  12.253   0.766
 9931W        W10795   3.198  12.176   0.284
 9932W        W10796   2.973  13.882   0.987
 9933W        W10797   2.867  13.364   1.738
 9934W        W10798   2.522  12.704   0.594
 9935W        W10799   2.050  12.766   1.553
 9936W        W10800   3.029  12.616   1.785
 9937W        W10801   0.479  11.712   2.194
 9938W        W10802   3.047  12.723   2.904
 9939W        W10803   3.469  14.287   2.057
 9940W        W10804   1.425  13.926   1.530
 9941W        W10805   2.567  14.363   2.679
 9942W        W10806   2.409  11.689   2.535
 9943W        W10807   1.668  14.408   2.641
 9944W        W10808   3.317  11.455   1.018
 9945W        W10809   3.085  12.648   2.368
 9946W        W10810   0.078  11.876   2.543
 9947W        W10811   2.958  11.760   1.525
 9948W        W10812   3.218  11.893   3.088
 9949W        W10813   2.216  13.528   1.547
 9950W        W10814   1.584  14.240   1.171
 9951W        W10815   0.610  11.376   0.459
 9952W        W10816   1.701  11.009   2.134
 9953W        W10817   0.732  14.530   0.209
 9954W        W10818   1.224  12.809   0.717
 9955W        W10819   1.824  13.283   2.973
 9956W        W10820   1.717  11.485   1.035
 9957W        W10821   3.020  11.182   1.397
 9958W        W10822   2.724  14.405   1.793
 9959W        W10823   2.110  14.225   2.035
 9960W        W10824   1.449  13.166   2.137
 9961W        W10825   3.328  13.920   2.391
 9962W        W10826   0.930  11.298   0.893
 9963W        W10827   1.413  13.649   1.957
 9964W        W10828   1.070  11.336   0.186
 9965W        W10829   1.730  12.262   2.212
 9966W        W10830   2.638  11.112   2.219
 9967W        W10831   0.054  13.005   2.253
 9968W        W10832   1.664  12.755   0.307
 9969W        W10833   0.710  10.874   0.249
 9970W        W10834   1.733  12.141   1.162
 9971W        W10835   2.536  11.227   2.739
 9972W        W10836   1.332  13.128   3.001
 9973W        W10837   2.128  12.935   3.271
 9974W        W10838   2.617  12.939   3.091
 9975W        W10839   1.921  11.219   3.633
 9976W        W10840   1.212  11.633   1.720
 9977W        W10841   0.728  11.667   1.414
 9978W        W10842   0.672  14.097   0.846
 9979W        W10843   1.964  13.795   3.119
 9980W        W10844   0.858  13.204   0.628
 9981W        W10845   2.535  12.664   1.675
 9982W        W10846   2.650  12.451   2.160
 9983W        W10847   1.892  12.862   2.024
 9984W        W10848   2.510  13.343   0.031
 9985W        W10849   2.064  11.402   1.555
 9986W        W10850   3.710  11.832   0.874
 9987W        W10851   0.278  14.532   2.913
 9988W        W10852   0.589  13.678   2.562
 9989W        W10853   0.107  14.422   0.730
 9990W        W10854   1.950  11.807   2.338
 9991W        W10855   1.043  13.553   0.287
 9992W        W10856   3.120  14.073   0.518
 9993W        W10857   2.035  12.566   0.585
 9994W        W10858   0.910  11.988   1.041
 9995W        W10859   2.022  11.778   0.197
 9996W        W10860   2.340  13.411   3.141
 9997W        W10861   2.842  11.429   0.748
 9998W        W10862   0.228  11.061   0.308
 9999W        W10863   1.433  13.432   2.592
10000W        W10864   1.152  13.228   1.716
10001W        W10865   0.733  13.167   0.123
10002W        W10866   0.199  13.888   0.800
10003W        W10867   0.715  12.633   3.479
10004W        W10868   1.437  11.301   3.421
10005W        W10869   2.030  11.367   2.736
10006W        W10870   1.359  11.072   1.076
10007W        W10871   2.187  10.984   0.599
10008W        W10872   0.387  11.176   2.144
10009W        W10873   0.308  11.949   1.654
10010W        W10874   3.202  11.153   1.929
10011W        W10875   0.558  11.625   0.908
10012W        W10876   3.044  11.378   2.376
10013W        W10877   3.491  12.600   0.235
10014W        W10878   0.820  11.397   1.945
10015W        W10879   1.944  11.860   2.855
10016W        W10880   0.087  11.546   0.396
10017W        W10881   0.835  12.948   3.041
10018W        W10882   2.164  12.433   1.962
10019W        W10883   1.930  14.327   0.281
10020W        W10884   0.286  12.922   0.248
10021W        W10885   1.029  13.368   3.325
10022W        W10886   0.540  12.533   2.985
10023W        W10887   1.337  12.879   2.553
10024W        W10888   3.043  11.092   2.819
10025W        W10889   3.562  12.639   2.777
10026W        W10890   3.551  12.630   0.737
10027W        W10891   2.263  13.147   0.769
10028W        W10892   2.981  14.483   0.224
10029W        W10893   2.058  12.507   3.659
10030W        W10894   0.233  13.328   3.578
10031W        W10895   3.655  11.446   3.476
10032W        W10896   3.115  12.220   2.090
10033W        W10897   1.639  14.519   3.630
10034W        W10898   1.539  11.077   0.281
10035W        W10899   2.944  13.604   0.247
10036W        W10900   0.655  11.649   3.185
10037W        W10901   1.460  13.648   3.138
10038W        W10902   3.379  11.515   2.750
10039W        W10903   2.692  14.535   0.640
10040W        W10904   2.745  12.957   2.068
10041W        W10905   1.057  11.682   2.797
10042W        W10906   1.545  12.471   3.437
10043W        W10907   0.982  13.689   0.783
10044W        W10908   2.771  13.013   0.928
10045W        W10909   0.562  11.799   2.706
10046W        W10910   1.888  13.822   1.262
10047W        W10911   3.432  12.255   1.665
10048W        W10912   1.739  11.075   3.044
10049W        W10913   2.754  13.627   2.154
10050W        W10914   3.040  14.021   1.952
10051W        W10915   1.990  13.746   0.369
10052W        W10916   0.164  13.804   3.361
10053W        W10917   0.938  11.946   2.355
10054W        W10918   0.997  11.217   1.457
10055W        W10919   2.402  11.993   2.108
10056W        W10920   1.239  13.072   0.268
10057W        W10921   3.246  13.066   2.054
10058W        W10922   0.641  13.659   3.480
10059W        W10923   3.079  14.450   0.971
10060W        W10924   1.234  11.593   1.191
10061W        W10925   0.801  12.832   1.672
10062W        W10926   1.225  14.423   2.368
10063W        W10927   3.182  14.516   3.231
10064W        W10928   2.309  12.786   2.340
10065W        W10929   0.338  12.484   0.489
10066W        W10930   3.420  14.075   1.120
10067W        W10931   3.275  11.770   0.607
10068W        W10932   1.285  11.202   2.678
10069W        W10933   3.108  13.773   1.487
10070W        W10934   3.043  12.284   1.329
10071W        W10935   1.260  12.067   1.426
10072W        W10936   1.721  12.294   2.732
10073W        W10937   2.635  13.492   2.732
10074W        W10938   1.374  12.059   3.005
10075W        W10939   1.223  14.388   1.496
10076W        W10940   0.777  14.481   3.047
10077W        W10941   0.557  13.650   0.481
10078W        W10942   3.145  13.389   1.126
10079W        W10943   0.891  12.175   2.859
10080W        W10944   3.665  12.171   0.493
10081W        W10945   1.346  13.311   0.733
10082W        W10946   2.163  12.598   2.852
10083W        W10947   2.185  12.281   2.460
10084W        W10948   0.855  12.672   2.591
10085W        W10949   2.993  14.371   2.332
10086W        W10950   2.724  11.215   3.240
10087W        W10951   0.502  11.195   3.010
10088W        W10952   0.910  12.433   2.095
10089W        W10953   1.256  12.016   0.249
10090W        W10954   0.147  13.837   2.835
10091W        W10955   1.413  12.650   2.090
10092W        W10956   1.532  11.585   0.183
10093W        W10957   0.670  12.475   0.930
10094W        W10958   0.381  14.316   2.454
10095W        W10959   3.047  12.628   0.533
10096W        W10960   3.200  11.396   3.242
10097W        W10961   2.677  13.529   1.276
10098W        W10962   0.227  12.483   3.438
10099W        W10963   3.288  11.268   0.518
10100W        W10964   2.794  13.481   0.735
10101W        W10965   1.564  12.422   0.745
10102W        W10966   2.840  11.323   0.220
10103W        W10967   2.764  12.054   2.485
10104W        W10968   0.469  12.439   1.798
10105W        W10969   1.017  13.447   1.241
10106W        W10970   2.583  12.058   1.253
10107W        W10971   1.700  11.513   1.957
10108W        W10972   3.605  13.468   2.429
10109W        W10973   3.575  11.477   2.178
10110W        W10974   0.337  14.271   1.270
10111W        W10975   0.533  13.384   0.982
10112W        W10976   0.677  11.219   3.544
10113W        W10977   1.806  13.875   3.627
10114W        W10978   3.435  12.759   1.499
10115W        W10979   2.844  13.095   0.401
10116W        W10980   2.132  14.595   2.554
10117W        W10981   2.892  13.170   3.464
10118W        W10982   1.688  10.883   0.730
10119W        W10983   2.414  11.781   1.645
10120W        W10984   0.163  13.418   1.982
10121W        W10985   1.368  11.409   0.653
10122W        W10986   1.172  12.835   3.394
10123W        W10987   2.120  11.798   1.217
10124W        W10988   2.397  13.292   2.315
10125W        W10989   0.616  13.953   3.046
10126W        W10990   1.304  13.949   3.566
10127W        W10991   0.959  11.741   0.573
10128W        W10992   2.456  11.800   0.816
10129W        W10993   2.437  13.925   2.939
10130W        W10994   1.212  12.538   1.635
10131W        W10995   0.846  14.149   2.621
10132W        W10996   3.463  14.307   0.183
10133W        W10997   0.376  12.958   3.255
10134W        W10998   2.315  13.112   1.843
10135W        W10999   0.859  12.942   1.101
10136W        W11000   1.236  13.884   2.406
10137W        W11001   1.523  11.242   1.536
10138W        W11002   0.136  13.374   0.643
10139W        W11003   1.753  12.223   0.299
10140W        W11004   0.422  12.746   1.334
10141W        W11005   1.523  11.559   2.975
10142W        W11006   3.292  11.153   0.021
10143W        W11007   3.376  12.959   3.204
10144W        W11008   2.079  14.302   3.513
10145W        W11009   3.519  13.378   2.922
10146W        W11010   2.966  14.054   3.506
10147W        W11011   0.859  14.519   2.014
10148W        W11012   3.569  13.103   1.130
10149W        W11013   2.174  12.270   1.469
10150W        W11014   1.889  11.026   1.238
10151W        W11015   1.040  13.994   1.209
10152W        W11016   1.470  11.874   2.524
10153W        W11017   1.222  11.055   1.924
10154W        W11018   0.400  14.162   0.400
10155W        W11019   1.911  13.157   1.244
10156W        W11020   1.164  14.108   3.027
10157W        W11021   0.447  12.917   0.767
10158W        W11022   0.358  11.455   1.731
10159W        W11023   1.862  13.357   1.894
10160W        W11024   0.174  11.280   0.825
10161W        W11025   2.638  12.520   2.679
10162W        W11026   2.800  11.841   0.422
10163W        W11027   3.277  13.571   2.013
10164W        W11028   1.858  13.861   1.779
10165W        W11029   1.273  14.126   0.776
10166W        W11030   2.454  10.967   0.118
10167W        W11031   0.404  14.277   1.942
10168W        W11032   2.323  11.996   3.406
10169W        W11033   0.717  11.746   3.678
10170W        W11034   0.394  12.071   1.160
10171W        W11035   1.060  12.285   0.656
10172W        W11036   2.424  12.496   3.271
10173W        W11037   0.966  12.956   2.151
10174W        W11038   2.459  11.037   1.350
10175W        W11039   1.742  14.363   1.672
10176W        W11040   2.842  13.929   2.565
10177W        W11041   2.614  13.859   1.701
10178W        W11042   2.435  13.067   1.335
10179W        W11043   1.876  11.386   0.532
10180W        W11044   3.560  11.033   1.197
10181W        W11045   1.221  12.535   0.246
10182W        W11046   3.380  11.902   1.262
10183W        W11047   2.132  12.998   0.276
10184W        W11048   3.020  13.251   2.968
10185W        W11049   2.632  14.104   0.280
10186W        W11050   1.144  11.732   3.350
10187W        W11051   1.260  12.347   2.487
10188W        W11052   3.179  13.750   2.895
10189W        W11053   2.390  11.613   3.043
10190W        W11054   0.193  12.150   2.971
10191W        W11055   1.815  12.707   2.487
10192W        W11056   0.292  13.346   1.465
10193W        W11057   0.485  12.715   2.234
10194W        W11058   2.765  13.016   2.577
10195W        W11059   2.529  14.351   3.285
10196W        W11060   2.391  12.109   2.894
10197W        W11061   2.782  14.204   1.334
10198W        W11062   1.643  13.908   2.734
10199W        W11063   1.181  14.125   1.934
10200W        W11064   3.087  13.457   2.485
10201W        W11065   1.953  13.408   3.464
10202W        W11066   0.665  13.326   1.816
10203W        W11067   2.946  12.976   1.422
10204W        W11068   2.568  14.105   2.186
10205W        W11069   0.749  13.950   2.141
10206W        W11070   1.616  11.948   3.444
10207W        W11071   1.794  14.028   0.755
10208W        W11072   1.461  13.443   3.604
10209W        W11073   1.437  13.716   1.042
10210W        W11074   0.770  12.250   0.239
10211W        W11075   0.148  14.629   7.005
10212W        W11076   0.519  13.525   6.669
10213W        W11077   3.056  12.831   4.419
10214W        W11078   3.319  14.174   6.475
10215W        W11079   1.152  14.390   3.850
10216W        W11080   1.165  12.474   4.694
10217W        W11081   0.716  12.358   5.004
10218W        W11082   1.617  12.917   4.467
10219W        W11083   1.596  14.227   6.719
10220W        W11084   0.317  11.781   6.632
10221W        W11085   0.843  10.944   6.364
10222W        W11086   2.501  11.417   5.369
10223W        W11087   2.225  12.192   4.074
10224W        W11088   2.824  11.726   7.045
10225W        W11089   0.284  11.451   6.191
10226W        W11090   0.332  14.160   7.216
10227W        W11091   1.629  13.209   4.045
10228W        W11092   0.170  12.196   5.691
10229W        W11093   1.088  12.222   6.888
10230W        W11094   3.309  11.817   5.455
10231W        W11095   3.181  12.927   6.232
10232W        W11096   1.611  12.407   5.368
10233W        W11097   2.220  13.809   5.752
10234W        W11098   0.585  13.113   5.897
10235W        W11099  28.938  12.665   5.618
10236W        W11100   1.063  12.652   6.594
10237W        W11101   3.280  12.430   6.850
10238W        W11102   0.872  13.755   5.200
10239W        W11103   1.949  13.546   6.344
10240W        W11104   1.339  12.035   5.603
10241W        W11105   1.496  12.937   5.351
10242W        W11106   2.185  13.832   7.178
10243W        W11107   1.597  12.998   7.171
10244W        W11108   1.571  12.799   6.684
10245W        W11109   0.149  12.101   7.210
10246W        W11110   2.773  13.578   6.925
10247W        W11111   0.513  11.186   4.749
10248W        W11112   0.952  13.477   5.847
10249W        W11113   3.394  13.440   5.321
10250W        W11114   2.881  11.584   5.663
10251W        W11115   3.231  11.689   3.690
10252W        W11116   3.549  12.495   6.162
10253W        W11117   1.472  14.206   5.806
10254W        W11118   3.260  13.767   4.239
10255W        W11119   0.619  14.523   3.807
10256W        W11120   0.865  14.501   4.684
10257W        W11121   0.721  11.270   5.965
10258W        W11122   3.190  12.209   6.399
10259W        W11123   2.268  12.630   4.860
10260W        W11124   2.578  12.353   3.732
10261W        W11125   1.803  13.547   5.853
10262W        W11126   1.619  11.830   5.154
10263W        W11127   2.265  13.954   6.254
10264W        W11128   2.706  12.796   5.065
10265W        W11129   2.157  11.378   4.561
10266W        W11130   0.742  14.227   4.226
10267W        W11131   0.141  11.530   4.834
10268W        W11132   2.471  12.375   5.317
10269W        W11133   0.355  13.752   5.259
10270W        W11134   1.477  13.704   4.040
10271W        W11135   3.033  12.152   3.567
10272W        W11136   0.164  13.933   5.957
10273W        W11137   0.943  13.611   6.387
10274W        W11138   1.284  12.978   4.865
10275W        W11139   1.198  11.329   5.737
10276W        W11140   3.472  11.005   5.565
10277W        W11141   0.730  12.718   3.998
10278W        W11142   0.411  11.915   4.082
10279W        W11143   0.552  13.813   4.779
10280W        W11144   1.393  13.480   4.894
10281W        W11145   2.940  14.134   6.856
10282W        W11146   1.908  11.836   4.305
10283W        W11147   3.187  14.445   5.308
10284W        W11148   2.805  12.187   6.782
10285W        W11149   3.623  13.841   5.079
10286W        W11150   2.150  13.073   6.456
10287W        W11151   0.000  12.515   4.785
10288W        W11152   1.070  13.089   6.134
10289W        W11153   2.022  12.289   4.555
10290W        W11154   2.103  13.023   4.569
10291W        W11155   0.659  12.173   5.919
10292W        W11156   0.569  12.199   6.931
10293W        W11157   0.464  11.068   5.232
10294W        W11158   2.137  11.547   5.694
10295W        W11159   1.922  11.561   6.906
10296W        W11160   2.403  11.429   4.060
10297W        W11161   3.419  13.963   6.953
10298W        W11162   2.241  11.155   6.861
10299W        W11163   3.267  13.468   7.054
10300W        W11164   2.847  11.744   6.505
10301W        W11165   2.478  11.593   4.886
10302W        W11166   2.903  12.662   7.067
10303W        W11167   0.651  14.216   5.101
10304W        W11168   1.407  11.907   4.271
10305W        W11169   1.057  11.318   6.765
10306W        W11170   2.874  11.855   4.657
10307W        W11171   3.176  12.261   4.544
10308W        W11172   1.152  14.414   6.863
10309W        W11173   1.091  10.938   4.168
10310W        W11174   3.212  11.346   5.305
10311W        W11175   3.406  13.859   3.730
10312W        W11176   0.272  13.024   5.435
10313W        W11177   2.373  11.491   3.535
10314W        W11178   3.492  14.045   5.570
10315W        W11179   3.397  11.089   6.144
10316W        W11180   1.958  12.423   6.732
10317W        W11181   1.756  13.426   4.507
10318W        W11182   2.492  12.851   7.317
10319W        W11183   2.125  11.066   5.493
10320W        W11184   0.765  11.982   5.419
10321W        W11185   0.346  13.099   6.353
10322W        W11186   2.221  14.189   5.385
10323W        W11187   3.407  12.171   5.800
10324W        W11188   2.043  14.378   6.514
10325W        W11189   3.282  12.910   3.714
10326W        W11190   1.668  12.594   4.869
10327W        W11191   3.579  11.131   6.668
10328W        W11192   1.680  13.126   6.214
10329W        W11193   1.893  12.004   5.564
10330W        W11194   2.723  12.495   4.635
10331W        W11195   2.743  12.178   4.223
10332W        W11196   2.951  14.073   4.523
10333W        W11197   2.558  13.377   5.571
10334W        W11198   2.544  12.665   4.169
10335W        W11199   1.981  12.765   5.269
10336W        W11200   2.940  12.613   5.480
10337W        W11201   0.403  11.732   5.774
10338W        W11202   2.895  12.637   6.544
10339W        W11203   3.419  14.449   5.893
10340W        W11204   1.364  13.927   5.172
10341W        W11205   2.502  14.418   6.313
10342W        W11206   2.467  11.698   6.153
10343W        W11207   1.627  14.525   6.228
10344W        W11208   3.198  11.438   4.783
10345W        W11209   3.048  12.489   5.989
10346W        W11210   0.255  12.022   6.189
10347W        W11211   2.881  11.723   5.166
10348W        W11212   3.239  11.902   6.800
10349W        W11213   2.173  13.603   5.288
10350W        W11214   1.540  14.276   4.811
10351W        W11215   0.576  11.413   4.044
10352W        W11216   1.724  11.317   6.050
10353W        W11217   0.851  14.160   3.476
10354W        W11218   1.171  12.781   4.264
10355W        W11219   1.762  13.281   6.744
10356W        W11220   1.662  11.523   4.672
10357W        W11221   2.813  11.209   5.013
10358W        W11222   2.674  14.497   5.437
10359W        W11223   1.979  14.261   5.875
10360W        W11224   1.416  13.219   5.773
10361W        W11225   3.183  13.881   6.058
10362W        W11226   0.910  11.328   4.472
10363W        W11227   1.346  13.723   5.647
10364W        W11228   1.081  11.401   3.825
10365W        W11229   1.665  12.282   5.957
10366W        W11230   2.507  11.215   5.872
10367W        W11231   0.067  13.037   5.928
10368W        W11232   1.608  12.718   3.901
10369W        W11233   1.111  10.905   3.625
10370W        W11234   1.566  12.088   4.726
10371W        W11235   2.558  11.264   6.445
10372W        W11236   1.302  13.242   6.552
10373W        W11237   2.061  12.893   6.943
10374W        W11238   2.557  13.027   6.829
10375W        W11239   1.971  11.285   7.332
10376W        W11240   1.153  11.643   5.328
10377W        W11241   0.666  11.658   5.003
10378W        W11242   0.405  14.282   4.621
10379W        W11243   1.957  13.883   6.718
10380W        W11244   0.814  13.196   4.173
10381W        W11245   2.449  12.861   5.500
10382W        W11246   2.568  12.490   5.838
10383W        W11247   1.734  12.800   5.794
10384W        W11248   2.444  13.364   3.656
10385W        W11249   1.990  11.464   5.177
10386W        W11250   3.361  11.764   4.428
10387W        W11251   0.339  14.293   6.658
10388W        W11252   0.492  13.557   6.143
10389W        W11253   0.235  14.363   4.133
10390W        W11254   1.932  11.823   6.058
10391W        W11255   1.009  13.561   3.839
10392W        W11256   3.006  14.173   4.006
10393W        W11257   2.023  12.669   4.192
10394W        W11258   0.872  12.014   4.643
10395W        W11259   2.043  11.771   3.802
10396W        W11260   2.248  13.457   6.797
10397W        W11261   2.725  11.353   4.509
10398W        W11262   0.252  11.059   3.885
10399W        W11263   1.400  13.583   6.166
10400W        W11264   1.160  13.343   5.324
10401W        W11265   0.704  13.131   3.654
10402W        W11266   0.312  13.877   4.306
10403W        W11267   0.756  12.678   7.051
10404W        W11268   1.501  11.286   7.015
10405W        W11269   2.071  11.466   6.407
10406W        W11270   1.333  11.110   4.708
10407W        W11271   2.237  10.973   4.236
10408W        W11272   0.283  11.196   5.712
10409W        W11273   0.310  12.023   5.185
10410W        W11274   3.001  11.074   5.731
10411W        W11275   0.512  11.651   4.504
10412W        W11276   2.937  11.382   6.128
10413W        W11277   3.466  12.408   3.704
10414W        W11278   0.714  11.446   5.482
10415W        W11279   1.840  11.935   6.556
10416W        W11280   0.051  11.544   3.963
10417W        W11281   0.811  13.110   6.575
10418W        W11282   2.089  12.459   5.658
10419W        W11283   2.016  14.562   4.038
10420W        W11284   0.255  12.860   3.805
10421W        W11285   0.992  13.500   6.891
10422W        W11286   0.536  12.657   6.569
10423W        W11287   1.382  12.691   6.189
10424W        W11288   3.042  11.077   6.528
10425W        W11289   3.567  12.781   6.576
10426W        W11290   3.445  12.564   4.212
10427W        W11291   2.376  13.156   4.145
10428W        W11292   2.884  14.541   3.647
10429W        W11293   2.128  12.460   7.324
10430W        W11294   0.242  13.369   7.281
10431W        W11295   3.670  11.411   7.097
10432W        W11296   2.897  12.114   5.591
10433W        W11297   1.562  14.487   7.167
10434W        W11298   1.502  11.087   3.892
10435W        W11299   2.923  13.602   3.772
10436W        W11300   0.800  11.759   6.822
10437W        W11301   1.459  13.714   6.701
10438W        W11302   3.312  11.545   6.424
10439W        W11303   2.674  14.589   4.140
10440W        W11304   2.821  12.971   5.845
10441W        W11305   1.118  11.395   6.249
10442W        W11306   1.654  12.496   7.130
10443W        W11307   0.864  13.707   4.349
10444W        W11308   2.610  13.001   4.607
10445W        W11309   0.704  11.720   6.288
10446W        W11310   1.805  13.778   4.950
10447W        W11311   3.331  12.325   5.317
10448W        W11312   1.818  11.065   6.600
10449W        W11313   2.676  13.767   5.958
10450W        W11314   2.991  14.157   5.680
10451W        W11315   2.024  13.525   3.962
10452W        W11316   0.156  13.748   6.958
10453W        W11317   0.951  11.756   5.843
10454W        W11318   0.950  11.214   5.059
10455W        W11319   2.407  12.007   5.746
10456W        W11320   1.186  13.064   3.840
10457W        W11321   3.299  13.194   5.769
10458W        W11322   0.616  13.715   7.157
10459W        W11323   3.041  14.601   4.558
10460W        W11324   1.183  11.630   4.808
10461W        W11325   0.815  12.981   5.135
10462W        W11326   1.128  14.460   6.096
10463W        W11327   3.327  14.487   6.916
10464W        W11328   2.240  12.864   5.979
10465W        W11329   0.287  12.421   4.109
10466W        W11330   3.321  14.216   4.851
10467W        W11331   2.913  11.685   4.162
10468W        W11332   1.338  10.992   6.483
10469W        W11333   3.135  13.907   5.233
10470W        W11334   2.891  12.223   5.063
10471W        W11335   1.172  12.096   5.082
10472W        W11336   1.474  12.302   6.520
10473W        W11337   2.596  13.550   6.435
10474W        W11338   1.170  11.868   6.478
10475W        W11339   1.144  14.402   5.117
10476W        W11340   0.664  14.475   7.002
10477W        W11341   0.502  13.536   3.969
10478W        W11342   3.220  13.672   4.770
10479W        W11343   0.765  12.209   6.447
10480W        W11344   3.227  12.088   4.044
10481W        W11345   1.252  13.308   4.414
10482W        W11346   2.392  12.611   6.420
10483W        W11347   2.174  12.261   6.124
10484W        W11348   0.853  12.630   6.092
10485W        W11349   2.969  14.425   6.113
10486W        W11350   2.741  11.194   6.956
10487W        W11351   0.547  11.295   6.613
10488W        W11352   0.795  12.486   5.532
10489W        W11353   1.200  11.996   3.794
10490W        W11354   0.168  13.849   6.463
10491W        W11355   1.274  12.554   5.713
10492W        W11356   1.555  11.616   3.835
10493W        W11357   0.666  12.485   4.485
10494W        W11358   0.354  14.524   6.206
10495W        W11359   2.998  12.550   3.947
10496W        W11360   3.200  11.396   6.903
10497W        W11361   2.812  13.519   5.106
10498W        W11362   0.261  12.597   7.041
10499W        W11363   3.202  11.279   4.256
10500W        W11364   2.875  13.407   4.414
10501W        W11365   1.554  12.421   4.334
10502W        W11366   2.825  11.381   3.739
10503W        W11367   3.060  11.877   6.041
10504W        W11368   0.332  12.531   5.305
10505W        W11369   0.892  13.420   4.803
10506W        W11370   2.445  12.121   4.833
10507W        W11371   1.626  11.574   5.596
10508W        W11372   3.500  13.491   6.174
10509W        W11373   3.413  11.527   5.885
10510W        W11374   0.115  14.148   5.019
10511W        W11375   0.441  13.402   4.484
10512W        W11376   0.659  11.338   7.115
10513W        W11377   1.671  13.940   7.156
10514W        W11378   3.431  12.916   5.219
10515W        W11379   2.859  13.070   3.984
10516W        W11380   2.108  14.709   6.092
10517W        W11381   2.909  13.148   7.218
10518W        W11382   1.649  10.920   4.350
10519W        W11383   2.304  11.877   5.269
10520W        W11384   0.238  13.475   5.701
10521W        W11385   1.369  11.395   4.272
10522W        W11386   1.134  13.016   6.977
10523W        W11387   2.030  11.831   4.810
10524W        W11388   2.319  13.373   6.030
10525W        W11389   0.758  13.995   6.751
10526W        W11390   1.159  13.947   7.088
10527W        W11391   0.920  11.768   4.177
10528W        W11392   2.418  11.814   4.404
10529W        W11393   2.457  13.951   6.748
10530W        W11394   1.156  12.596   5.194
10531W        W11395   0.601  14.048   6.248
10532W        W11396   3.386  14.364   3.701
10533W        W11397   0.416  13.060   6.890
10534W        W11398   2.051  13.178   5.588
10535W        W11399   0.841  12.947   4.618
10536W        W11400   1.043  13.956   5.998
10537W        W11401   1.487  11.299   5.159
10538W        W11402   0.088  13.258   4.109
10539W        W11403   1.705  12.177   3.904
10540W        W11404   0.417  12.793   4.864
10541W        W11405   1.548  11.494   6.513
10542W        W11406   3.304  11.163   3.737
10543W        W11407   3.357  12.939   7.018
10544W        W11408   2.041  14.324   7.030
10545W        W11409   3.548  13.294   6.641
10546W        W11410   3.025  13.879   7.296
10547W        W11411   0.700  14.375   5.842
10548W        W11412   3.097  13.144   4.858
10549W        W11413   2.002  12.253   5.095
10550W        W11414   1.829  11.060   4.846
10551W        W11415   1.023  14.016   4.773
10552W        W11416   1.430  11.757   6.043
10553W        W11417   1.616  11.060   5.610
10554W        W11418   0.449  14.024   3.802
10555W        W11419   1.778  13.125   4.951
10556W        W11420   1.182  14.082   6.462
10557W        W11421   0.405  12.909   4.340
10558W        W11422   0.227  11.523   5.327
10559W        W11423   1.668  13.443   5.347
10560W        W11424   0.158  11.272   4.378
10561W        W11425   2.693  12.190   6.241
10562W        W11426   2.581  11.859   3.830
10563W        W11427   3.030  13.607   5.635
10564W        W11428   1.788  13.931   5.483
10565W        W11429   1.235  14.316   4.380
10566W        W11430   2.387  11.018   3.707
10567W        W11431   0.331  14.214   5.510
10568W        W11432   2.389  12.023   7.108
10569W        W11433   0.602  11.803   7.325
10570W        W11434   0.339  12.122   4.650
10571W        W11435   1.050  12.273   4.223
10572W        W11436   2.436  12.517   6.918
10573W        W11437   0.988  12.963   5.624
10574W        W11438   2.314  11.093   5.005
10575W        W11439   1.625  14.410   5.333
10576W        W11440   2.810  14.018   6.381
10577W        W11441   2.633  13.889   5.434
10578W        W11442   2.304  13.132   5.075
10579W        W11443   1.880  11.347   4.133
10580W        W11444   3.535  11.055   5.015
10581W        W11445   1.157  12.523   3.795
10582W        W11446   3.311  11.933   4.943
10583W        W11447   2.035  13.014   3.790
10584W        W11448   3.029  13.175   6.670
10585W        W11449   2.527  14.194   3.792
10586W        W11450   1.446  11.811   6.904
10587W        W11451   1.158  12.205   6.084
10588W        W11452   3.166  13.676   6.568
10589W        W11453   2.409  11.642   6.743
10590W        W11454   0.171  12.291   6.617
10591W        W11455   1.880  12.649   6.282
10592W        W11456   0.413  13.301   4.993
10593W        W11457   0.407  12.641   5.825
10594W        W11458   2.649  13.046   6.316
10595W        W11459   2.507  14.450   6.820
10596W        W11460   2.331  12.110   6.589
10597W        W11461   2.807  14.225   5.011
10598W        W11462   1.706  14.003   6.254
10599W        W11463   1.020  14.122   5.520
10600W        W11464   2.989  13.399   6.138
10601W        W11465   1.923  13.396   7.205
10602W        W11466   0.661  13.362   5.445
10603W        W11467   2.974  13.118   5.374
10604W        W11468   2.499  14.240   5.840
10605W        W11469   0.620  13.839   5.709
10606W        W11470   1.869  12.038   7.096
10607W        W11471   1.614  14.207   4.036
10608W        W11472   1.416  13.479   7.190
10609W        W11473   1.431  13.839   4.530
10610W        W11474   0.719  12.238   3.816
10611W        W11475   0.154  14.675  10.660
10612W        W11476   0.538  13.457  10.273
10613W        W11477   3.139  13.069   7.989
10614W        W11478   3.275  14.225   9.983
10615W        W11479   1.342  14.194   7.526
10616W        W11480   1.206  12.371   8.324
10617W        W11481   0.795  12.278   8.627
10618W        W11482   1.699  12.957   8.074
10619W        W11483   1.539  14.213  10.382
10620W        W11484   0.321  11.728  10.304
10621W        W11485   0.894  10.829  10.163
10622W        W11486   2.561  11.408   9.029
10623W        W11487   2.298  12.203   7.751
10624W        W11488   2.743  11.799  10.621
10625W        W11489   0.336  11.405   9.840
10626W        W11490   0.328  14.147  10.762
10627W        W11491   1.651  13.259   7.638
10628W        W11492   0.194  12.081   9.354
10629W        W11493   1.053  12.195  10.541
10630W        W11494   3.336  11.869   9.073
10631W        W11495   3.338  13.010   9.788
10632W        W11496   1.656  12.376   8.958
10633W        W11497   2.210  13.729   9.320
10634W        W11498   0.579  13.086   9.454
10635W        W11499  28.984  12.532   9.210
10636W        W11500   1.111  12.585  10.214
10637W        W11501   3.319  12.414  10.490
10638W        W11502   0.969  13.684   8.888
10639W        W11503   1.932  13.620  10.063
10640W        W11504   1.407  12.043   9.272
10641W        W11505   1.602  12.943   8.934
10642W        W11506   2.601  14.060  10.779
10643W        W11507   1.633  12.968  10.824
10644W        W11508   1.646  12.809  10.266
10645W        W11509   0.124  12.046  10.774
10646W        W11510   2.758  13.570  10.554
10647W        W11511   0.522  11.089   8.603
10648W        W11512   0.991  13.402   9.351
10649W        W11513   3.340  13.366   8.890
10650W        W11514   2.875  11.764   9.325
10651W        W11515   3.269  11.695   7.313
10652W        W11516   3.644  12.433   9.735
10653W        W11517   1.491  14.202   9.287
10654W        W11518   3.242  13.916   7.823
10655W        W11519   0.507  14.686   8.051
10656W        W11520   0.871  14.490   8.349
10657W        W11521   0.799  11.184   9.802
10658W        W11522   3.230  12.242  10.009
10659W        W11523   2.546  12.603   8.568
10660W        W11524   2.632  12.370   7.397
10661W        W11525   1.793  13.572   9.555
10662W        W11526   1.658  11.784   8.826
10663W        W11527   2.304  13.852   9.810
10664W        W11528   3.007  12.679   8.297
10665W        W11529   2.177  11.360   8.193
10666W        W11530   0.668  14.178   7.950
10667W        W11531   0.275  11.524   8.447
10668W        W11532   2.572  12.273   8.977
10669W        W11533   0.419  13.770   8.890
10670W        W11534   1.389  13.720   7.742
10671W        W11535   3.060  12.151   7.229
10672W        W11536   0.228  13.918   9.535
10673W        W11537   0.953  13.656  10.064
10674W        W11538   1.365  13.045   8.459
10675W        W11539   1.311  11.333   9.699
10676W        W11540   3.490  11.048   9.208
10677W        W11541   0.814  12.732   7.615
10678W        W11542   0.537  12.063   7.784
10679W        W11543   0.569  13.836   8.391
10680W        W11544   1.465  13.478   8.739
10681W        W11545   2.907  14.135  10.344
10682W        W11546   1.912  11.918   7.989
10683W        W11547   3.076  14.325   9.066
10684W        W11548   2.841  12.237  10.358
10685W        W11549   3.601  13.810   8.718
10686W        W11550   2.151  13.142  10.140
10687W        W11551   0.264  12.437   8.018
10688W        W11552   0.940  13.181   9.802
10689W        W11553   2.132  12.313   8.237
10690W        W11554   2.158  12.827   8.315
10691W        W11555   0.684  12.178   9.549
10692W        W11556   0.555  12.168  10.532
10693W        W11557   0.795  10.967   9.034
10694W        W11558   2.163  11.520   9.350
10695W        W11559   1.917  11.640  10.621
10696W        W11560   2.378  11.432   7.721
10697W        W11561   3.444  14.145  10.478
10698W        W11562   2.344  11.085  10.458
10699W        W11563   3.280  13.437  10.689
10700W        W11564   2.850  11.614  10.157
10701W        W11565   2.502  11.559   8.528
10702W        W11566   2.905  12.679  10.624
10703W        W11567   0.636  14.224   8.742
10704W        W11568   1.399  11.951   8.039
10705W        W11569   1.070  11.107  10.665
10706W        W11570   2.899  11.850   8.282
10707W        W11571   3.244  12.227   8.182
10708W        W11572   1.153  14.413  10.655
10709W        W11573   1.101  11.006   7.851
10710W        W11574   3.336  11.406   8.842
10711W        W11575   3.514  13.722   7.442
10712W        W11576   0.291  12.910   9.040
10713W        W11577   2.407  11.508   7.223
10714W        W11578   3.468  13.805   9.217
10715W        W11579   3.436  11.124   9.728
10716W        W11580   1.946  12.370  10.450
10717W        W11581   1.773  13.476   8.092
10718W        W11582   2.514  12.822  10.943
10719W        W11583   2.195  11.037   9.174
10720W        W11584   0.781  11.945   9.077
10721W        W11585   0.376  13.041   9.944
10722W        W11586   2.225  14.161   8.834
10723W        W11587   3.265  12.058   9.542
10724W        W11588   1.996  14.144  10.127
10725W        W11589   3.371  13.056   7.522
10726W        W11590   1.713  12.648   8.512
10727W        W11591   3.565  11.093  10.224
10728W        W11592   1.713  13.186   9.875
10729W        W11593   1.924  11.989   9.218
10730W        W11594   2.681  12.308   8.121
10731W        W11595   3.002  12.247   7.728
10732W        W11596   2.944  14.042   8.216
10733W        W11597   2.826  13.346   9.014
10734W        W11598   2.519  12.685   7.817
10735W        W11599   2.102  12.812   8.849
10736W        W11600   3.048  12.753   8.821
10737W        W11601   0.534  11.684   9.453
10738W        W11602   3.084  12.718  10.138
10739W        W11603   3.424  14.246   9.475
10740W        W11604   1.389  13.977   8.821
10741W        W11605   2.570  14.299   9.958
10742W        W11606   2.493  11.628   9.757
10743W        W11607   1.707  14.568  10.016
10744W        W11608   3.238  11.444   8.319
10745W        W11609   3.140  12.570   9.607
10746W        W11610   0.264  11.934   9.836
10747W        W11611   2.868  11.790   8.811
10748W        W11612   3.215  11.899  10.396
10749W        W11613   2.226  13.591   8.800
10750W        W11614   1.516  14.244   8.406
10751W        W11615   0.824  11.395   7.641
10752W        W11616   1.753  11.040   9.446
10753W        W11617   0.825  14.084   7.464
10754W        W11618   1.195  12.796   7.992
10755W        W11619   1.743  13.294  10.424
10756W        W11620   1.684  11.540   8.282
10757W        W11621   2.877  11.246   8.655
10758W        W11622   2.570  14.467   9.079
10759W        W11623   2.035  14.246   9.314
10760W        W11624   1.463  13.168   9.394
10761W        W11625   3.320  13.793   9.729
10762W        W11626   0.927  11.414   8.187
10763W        W11627   1.402  13.675   9.235
10764W        W11628   1.100  11.606   7.230
10765W        W11629   1.729  12.260   9.607
10766W        W11630   2.577  11.188   9.491
10767W        W11631   0.071  13.006   9.501
10768W        W11632   1.569  12.723   7.617
10769W        W11633   1.063  11.087   7.296
10770W        W11634   1.658  12.132   8.459
10771W        W11635   2.561  11.197  10.012
10772W        W11636   1.295  13.204  10.169
10773W        W11637   2.079  12.884  10.589
10774W        W11638   2.549  13.062  10.484
10775W        W11639   1.905  11.215  10.922
10776W        W11640   1.192  11.645   9.015
10777W        W11641   0.740  11.739   8.597
10778W        W11642   0.352  14.298   8.330
10779W        W11643   1.843  13.821  10.538
10780W        W11644   0.797  13.218   7.800
10781W        W11645   2.582  12.789   9.073
10782W        W11646   2.667  12.441   9.448
10783W        W11647   1.931  12.944   9.344
10784W        W11648   2.433  13.358   7.269
10785W        W11649   2.026  11.414   8.842
10786W        W11650   3.543  11.799   8.079
10787W        W11651   0.270  14.345  10.268
10788W        W11652   0.548  13.522   9.750
10789W        W11653   0.128  14.394   7.852
10790W        W11654   2.037  11.852   9.718
10791W        W11655   0.995  13.578   7.467
10792W        W11656   3.083  14.398   7.765
10793W        W11657   2.025  12.628   7.834
10794W        W11658   0.891  11.964   8.169
10795W        W11659   2.089  11.802   7.501
10796W        W11660   2.233  13.485  10.504
10797W        W11661   2.758  11.390   8.102
10798W        W11662   0.350  11.229   7.523
10799W        W11663   1.330  13.519   9.751
10800W        W11664   1.121  13.145   8.913
10801W        W11665   0.733  13.176   7.276
10802W        W11666   0.207  13.883   7.992
10803W        W11667   0.761  12.664  10.662
10804W        W11668   1.474  11.397  10.634
10805W        W11669   2.053  11.357   9.907
10806W        W11670   1.350  11.157   8.344
10807W        W11671   2.107  10.982   7.742
10808W        W11672   0.453  11.159   9.386
10809W        W11673   0.301  11.883   8.872
10810W        W11674   3.024  11.257   9.216
10811W        W11675   0.502  11.610   7.991
10812W        W11676   2.984  11.425   9.697
10813W        W11677   3.376  12.529   7.361
10814W        W11678   0.924  11.360   9.338
10815W        W11679   1.882  11.919  10.195
10816W        W11680   0.159  11.709   7.581
10817W        W11681   0.809  13.007  10.254
10818W        W11682   2.148  12.467   9.244
10819W        W11683   1.858  14.253   7.527
10820W        W11684   0.333  12.960   7.560
10821W        W11685   0.991  13.406  10.530
10822W        W11686   0.513  12.592  10.215
10823W        W11687   1.332  12.824   9.810
10824W        W11688   3.056  11.119  10.107
10825W        W11689   3.591  12.749  10.171
10826W        W11690   3.365  12.613   7.865
10827W        W11691   2.174  13.140   7.902
10828W        W11692   2.885  14.556   7.174
10829W        W11693   2.106  12.500  10.952
10830W        W11694   0.232  13.391  10.899
10831W        W11695   3.654  11.508  10.829
10832W        W11696   3.062  12.311   9.130
10833W        W11697   1.618  14.446  10.936
10834W        W11698   1.524  11.109   7.510
10835W        W11699   3.082  13.466   7.595
10836W        W11700   0.817  11.723  10.469
10837W        W11701   1.439  13.696  10.242
10838W        W11702   3.359  11.548  10.017
10839W        W11703   2.639  14.656   7.735
10840W        W11704   2.814  13.044   9.483
10841W        W11705   1.074  11.378  10.199
10842W        W11706   1.475  12.477  10.629
10843W        W11707   0.914  13.707   7.997
10844W        W11708   2.632  13.023   8.193
10845W        W11709   0.733  11.692   9.952
10846W        W11710   1.815  13.809   8.519
10847W        W11711   3.422  12.377   8.749
10848W        W11712   1.855  11.138  10.395
10849W        W11713   2.662  13.555   9.505
10850W        W11714   2.987  13.938   9.383
10851W        W11715   1.883  13.725   7.597
10852W        W11716   0.183  13.731  10.518
10853W        W11717   1.046  11.808   9.553
10854W        W11718   0.996  11.291   8.699
10855W        W11719   2.420  11.994   9.397
10856W        W11720   1.195  13.083   7.504
10857W        W11721   3.278  12.952   9.258
10858W        W11722   0.629  13.689  10.758
10859W        W11723   3.031  14.565   8.273
10860W        W11724   1.249  11.699   8.484
10861W        W11725   0.758  12.776   8.910
10862W        W11726   1.316  14.435   9.699
10863W        W11727   3.127  14.529  10.610
10864W        W11728   2.350  12.820   9.611
10865W        W11729   0.386  12.456   7.511
10866W        W11730   3.268  14.186   8.591
10867W        W11731   3.097  11.725   7.813
10868W        W11732   1.375  10.979  10.244
10869W        W11733   3.088  13.814   8.884
10870W        W11734   2.949  12.270   8.611
10871W        W11735   1.241  12.110   8.789
10872W        W11736   1.539  12.306  10.108
10873W        W11737   2.545  13.482  10.081
10874W        W11738   1.194  11.889  10.105
10875W        W11739   1.206  14.446   8.760
10876W        W11740   0.647  14.496  10.586
10877W        W11741   0.512  13.643   7.652
10878W        W11742   3.241  13.659   8.403
10879W        W11743   0.786  12.194  10.059
10880W        W11744   3.479  12.069   7.630
10881W        W11745   1.271  13.297   8.005
10882W        W11746   2.228  12.654  10.123
10883W        W11747   2.228  12.329   9.733
10884W        W11748   0.814  12.674   9.794
10885W        W11749   2.934  14.416   9.604
10886W        W11750   2.803  11.261  10.577
10887W        W11751   0.567  11.236  10.286
10888W        W11752   1.016  12.390   9.189
10889W        W11753   1.341  12.096   7.322
10890W        W11754   0.234  13.867  10.038
10891W        W11755   1.485  12.635   9.356
10892W        W11756   1.598  11.650   7.394
10893W        W11757   0.770  12.459   8.066
10894W        W11758   0.313  14.393   9.748
10895W        W11759   2.959  12.753   7.573
10896W        W11760   3.281  11.405  10.501
10897W        W11761   2.722  13.627   8.571
10898W        W11762   0.248  12.550  10.696
10899W        W11763   3.196  11.210   7.852
10900W        W11764   2.881  13.503   8.077
10901W        W11765   1.622  12.429   8.046
10902W        W11766   2.854  11.388   7.468
10903W        W11767   2.805  12.025   9.794
10904W        W11768   0.464  12.369   9.017
10905W        W11769   0.937  13.390   8.439
10906W        W11770   2.497  12.069   8.518
10907W        W11771   1.631  11.535   9.291
10908W        W11772   3.643  13.420   9.792
10909W        W11773   3.471  11.570   9.482
10910W        W11774   0.099  14.177   8.760
10911W        W11775   0.462  13.425   8.124
10912W        W11776   0.612  11.318  10.797
10913W        W11777   1.358  14.008  10.976
10914W        W11778   3.576  12.898   8.844
10915W        W11779   2.674  13.169   7.698
10916W        W11780   2.144  14.480   9.758
10917W        W11781   2.926  13.124  10.866
10918W        W11782   1.652  10.961   7.988
10919W        W11783   2.310  11.834   8.928
10920W        W11784   0.271  13.464   9.303
10921W        W11785   1.333  11.468   7.857
10922W        W11786   1.195  12.932  10.585
10923W        W11787   2.060  11.816   8.477
10924W        W11788   2.225  13.328   9.678
10925W        W11789   0.641  13.999  10.338
10926W        W11790   1.089  13.906  10.558
10927W        W11791   1.021  11.864   7.676
10928W        W11792   2.423  11.818   8.068
10929W        W11793   2.426  13.927  10.309
10930W        W11794   1.231  12.631   8.772
10931W        W11795   0.671  14.027   9.813
10932W        W11796   3.380  14.247   7.380
10933W        W11797   0.376  13.019  10.523
10934W        W11798   2.345  13.234   9.185
10935W        W11799   0.890  12.834   8.414
10936W        W11800   1.120  13.957   9.582
10937W        W11801   1.511  11.276   8.831
10938W        W11802   0.053  13.377   7.778
10939W        W11803   1.759  12.218   7.594
10940W        W11804   0.420  12.595   8.500
10941W        W11805   1.582  11.493  10.137
10942W        W11806   3.327  11.173   7.365
10943W        W11807   3.374  12.912  10.631
10944W        W11808   2.001  14.328  10.617
10945W        W11809   3.541  13.267  10.266
10946W        W11810   3.097  13.899  10.764
10947W        W11811   0.828  14.446   9.533
10948W        W11812   3.523  13.219   8.417
10949W        W11813   2.101  12.290   8.748
10950W        W11814   1.851  11.074   8.481
10951W        W11815   1.023  14.026   8.481
10952W        W11816   1.530  11.811   9.730
10953W        W11817   1.279  11.009   9.238
10954W        W11818   0.561  14.524   7.546
10955W        W11819   1.876  13.202   8.556
10956W        W11820   1.122  14.143  10.087
10957W        W11821   0.482  12.904   8.066
10958W        W11822   0.561  11.445   8.973
10959W        W11823   1.847  13.373   9.078
10960W        W11824   0.079  11.323   7.953
10961W        W11825   2.675  12.491   9.949
10962W        W11826   2.653  11.865   7.547
10963W        W11827   3.171  13.432   9.390
10964W        W11828   1.831  13.879   9.028
10965W        W11829   1.192  14.167   8.013
10966W        W11830   2.407  11.001   7.324
10967W        W11831   0.454  14.250   9.218
10968W        W11832   2.274  12.011  10.695
10969W        W11833   0.587  11.813  10.932
10970W        W11834   0.388  12.062   8.365
10971W        W11835   1.193  12.347   7.756
10972W        W11836   2.438  12.494  10.545
10973W        W11837   1.032  12.877   9.359
10974W        W11838   2.372  11.069   8.666
10975W        W11839   1.733  14.387   8.874
10976W        W11840   2.838  13.881   9.887
10977W        W11841   2.609  13.855   9.040
10978W        W11842   2.479  13.133   8.676
10979W        W11843   1.846  11.433   7.803
10980W        W11844   3.559  11.060   8.511
10981W        W11845   1.197  12.607   7.288
10982W        W11846   3.323  11.899   8.567
10983W        W11847   2.019  12.956   7.451
10984W        W11848   3.024  13.181  10.334
10985W        W11849   2.573  14.155   7.237
10986W        W11850   1.474  11.906  10.535
10987W        W11851   1.195  12.302   9.704
10988W        W11852   3.214  13.712  10.248
10989W        W11853   2.335  11.599  10.290
10990W        W11854   0.136  12.224  10.247
10991W        W11855   1.848  12.707   9.792
10992W        W11856   0.457  13.109   8.551
10993W        W11857   0.412  12.605   9.477
10994W        W11858   2.660  13.000   9.982
10995W        W11859   2.474  14.436  10.433
10996W        W11860   2.374  12.108  10.175
10997W        W11861   2.751  14.199   8.673
10998W        W11862   1.576  13.987   9.838
10999W        W11863   0.990  14.163   9.124
11000W        W11864   3.009  13.393   9.871
11001W        W11865   1.902  13.435  10.909
11002W        W11866   0.635  13.302   8.984
11003W        W11867   3.009  13.185   8.515
11004W        W11868   2.518  14.145   9.465
11005W        W11869   0.685  13.800   9.329
11006W        W11870   1.794  12.106  10.874
11007W        W11871   1.719  14.006   8.003
11008W        W11872   1.426  13.542  10.751
11009W        W11873   1.363  13.722   8.282
11010W        W11874   0.840  12.254   7.374
11011W        W11875   0.193  14.670  14.300
11012W        W11876   0.534  13.424  13.830
11013W        W11877   3.182  12.972  11.755
11014W        W11878   3.312  14.190  13.657
11015W        W11879   1.170  14.424  11.207
11016W        W11880   1.137  12.362  11.978
11017W        W11881   0.728  12.349  12.389
11018W        W11882   1.588  13.007  11.341
11019W        W11883   1.496  14.164  14.001
11020W        W11884   0.294  11.725  13.932
11021W        W11885   0.857  10.857  13.837
11022W        W11886   2.478  11.377  12.623
11023W        W11887   2.213  12.175  11.363
11024W        W11888   2.733  11.783  14.359
11025W        W11889   0.307  11.445  13.497
11026W        W11890   0.376  14.163  14.376
11027W        W11891   1.495  13.558  11.274
11028W        W11892   0.423  12.246  12.825
11029W        W11893   1.003  12.126  14.271
11030W        W11894   3.251  11.841  12.761
11031W        W11895   3.302  12.954  13.506
11032W        W11896   1.713  12.502  12.686
11033W        W11897   2.236  13.725  12.980
11034W        W11898   0.587  13.100  13.136
11035W        W11899   0.094  12.658  12.777
11036W        W11900   1.148  12.460  13.869
11037W        W11901   3.340  12.386  14.218
11038W        W11902   0.899  13.818  12.490
11039W        W11903   1.990  13.528  13.717
11040W        W11904   1.373  12.113  12.769
11041W        W11905   1.489  12.960  12.626
11042W        W11906   2.518  13.954  14.521
11043W        W11907   1.644  12.859  14.452
11044W        W11908   1.610  12.726  13.947
11045W        W11909   0.038  12.027  14.547
11046W        W11910   2.777  13.594  14.239
11047W        W11911   0.514  11.099  12.206
11048W        W11912   3.450  13.347  12.560
11049W        W11913   2.760  11.889  12.944
11050W        W11914   3.151  11.688  10.921
11051W        W11915   3.625  12.391  13.404
11052W        W11916   1.538  14.242  13.083
11053W        W11917   3.354  13.896  11.466
11054W        W11918   0.610  14.662  11.594
11055W        W11919   0.881  14.495  12.035
11056W        W11920   0.748  11.177  13.443
11057W        W11921   3.258  12.237  13.728
11058W        W11922   2.556  12.598  12.328
11059W        W11923   2.574  12.312  11.001
11060W        W11924   1.904  13.406  13.201
11061W        W11925   1.593  11.722  12.446
11062W        W11926   2.338  13.820  13.490
11063W        W11927   3.038  12.669  12.158
11064W        W11928   2.172  11.278  11.810
11065W        W11929   0.747  14.156  11.631
11066W        W11930   0.236  11.518  12.134
11067W        W11931   2.486  12.265  12.703
11068W        W11932   0.378  13.737  12.533
11069W        W11933   1.225  13.989  11.487
11070W        W11934   3.038  12.184  10.852
11071W        W11935   0.278  13.942  13.270
11072W        W11936   1.024  13.640  13.768
11073W        W11937   1.272  12.859  12.009
11074W        W11938   1.257  11.349  13.245
11075W        W11939   3.316  11.050  12.898
11076W        W11940   0.703  12.753  11.213
11077W        W11941   0.566  12.053  11.418
11078W        W11942   0.593  13.862  12.070
11079W        W11943   1.512  13.271  12.209
11080W        W11944   2.944  14.030  13.988
11081W        W11945   1.989  11.774  11.641
11082W        W11946   3.239  14.294  12.668
11083W        W11947   2.845  12.228  14.078
11084W        W11948   3.693  13.748  12.339
11085W        W11949   2.232  13.064  13.765
11086W        W11950   0.185  12.635  11.891
11087W        W11951   1.034  13.225  13.408
11088W        W11952   1.927  12.271  11.843
11089W        W11953   2.197  12.712  11.977
11090W        W11954   0.706  12.193  13.299
11091W        W11955   0.486  12.042  14.306
11092W        W11956   0.684  11.003  12.693
11093W        W11957   2.022  11.527  12.819
11094W        W11958   1.895  11.608  14.313
11095W        W11959   2.349  11.392  11.336
11096W        W11960   3.524  14.096  14.136
11097W        W11961   2.337  11.074  14.074
11098W        W11962   3.265  13.460  14.340
11099W        W11963   2.832  11.616  13.886
11100W        W11964   2.458  11.562  12.120
11101W        W11965   2.884  12.624  14.409
11102W        W11966   0.648  14.259  12.474
11103W        W11967   1.494  11.933  11.847
11104W        W11968   1.017  11.214  14.182
11105W        W11969   2.880  11.816  11.939
11106W        W11970   3.182  12.233  11.907
11107W        W11971   1.160  14.414  14.353
11108W        W11972   1.107  10.984  11.518
11109W        W11973   3.273  11.376  12.493
11110W        W11974   3.549  13.744  11.021
11111W        W11975   0.289  13.131  12.652
11112W        W11976   2.373  11.487  10.800
11113W        W11977   3.549  13.812  12.840
11114W        W11978   3.345  11.045  13.409
11115W        W11979   1.919  12.241  14.145
11116W        W11980   1.766  13.006  11.814
11117W        W11981   2.454  12.852  14.629
11118W        W11982   2.188  11.031  12.858
11119W        W11983   0.786  11.895  12.721
11120W        W11984   0.339  13.017  13.584
11121W        W11985   2.241  14.193  12.700
11122W        W11986   3.186  12.049  13.237
11123W        W11987   1.954  14.038  13.820
11124W        W11988   3.306  13.008  11.224
11125W        W11989   1.726  12.707  12.220
11126W        W11990   3.504  10.985  13.889
11127W        W11991   1.766  13.063  13.557
11128W        W11992   1.888  12.027  12.714
11129W        W11993   2.706  12.432  11.850
11130W        W11994   2.860  12.185  11.422
11131W        W11995   3.022  14.027  11.828
11132W        W11996   2.813  13.393  12.655
11133W        W11997   2.503  12.618  11.419
11134W        W11998   2.134  12.787  12.571
11135W        W11999   2.933  12.871  12.622
11136W        W12000   0.429  11.766  13.072
11137W        W12001   3.045  12.687  13.895
11138W        W12002   3.471  14.225  13.128
11139W        W12003   1.402  13.892  12.440
11140W        W12004   2.600  14.269  13.661
11141W        W12005   2.393  11.748  13.528
11142W        W12006   1.654  14.401  13.549
11143W        W12007   3.188  11.388  11.977
11144W        W12008   3.010  12.543  13.370
11145W        W12009   0.266  12.026  13.491
11146W        W12010   2.838  11.691  12.455
11147W        W12011   3.217  11.877  14.104
11148W        W12012   2.311  13.567  12.483
11149W        W12013   1.527  14.300  12.073
11150W        W12014   0.735  11.420  11.311
11151W        W12015   1.686  11.154  12.985
11152W        W12016   0.820  14.124  10.966
11153W        W12017   1.115  12.852  11.502
11154W        W12018   1.785  13.213  14.059
11155W        W12019   1.704  11.450  11.934
11156W        W12020   2.814  11.194  12.278
11157W        W12021   2.725  14.419  12.778
11158W        W12022   2.047  14.311  13.165
11159W        W12023   1.460  13.167  13.111
11160W        W12024   3.393  13.771  13.353
11161W        W12025   0.885  11.325  11.841
11162W        W12026   1.424  13.699  13.048
11163W        W12027   1.065  11.574  10.900
11164W        W12028   1.698  12.122  13.183
11165W        W12029   2.443  11.417  13.133
11166W        W12030   0.071  13.038  13.143
11167W        W12031   1.630  12.538  11.130
11168W        W12032   0.804  10.946  11.108
11169W        W12033   1.586  12.212  12.273
11170W        W12034   2.546  11.274  13.642
11171W        W12035   1.311  13.181  13.869
11172W        W12036   2.111  12.883  14.246
11173W        W12037   2.605  12.921  14.079
11174W        W12038   1.923  11.204  14.667
11175W        W12039   1.160  11.556  12.651
11176W        W12040   0.750  11.610  12.256
11177W        W12041   0.401  14.336  12.009
11178W        W12042   1.971  13.746  14.251
11179W        W12043   0.803  13.262  11.378
11180W        W12044   2.527  12.732  12.899
11181W        W12045   2.569  12.316  13.216
11182W        W12046   1.894  12.915  13.007
11183W        W12047   2.449  13.329  10.947
11184W        W12048   2.017  11.392  12.339
11185W        W12049   3.414  11.785  11.746
11186W        W12050   0.352  14.377  13.876
11187W        W12051   0.673  13.587  13.343
11188W        W12052   0.108  14.476  11.622
11189W        W12053   1.944  11.608  13.314
11190W        W12054   1.014  13.648  11.095
11191W        W12055   3.145  14.408  11.448
11192W        W12056   1.988  12.636  11.483
11193W        W12057   0.958  11.895  11.842
11194W        W12058   2.057  11.744  11.120
11195W        W12059   2.303  13.376  14.148
11196W        W12060   2.722  11.343  11.743
11197W        W12061   0.293  11.107  11.157
11198W        W12062   1.487  13.496  13.509
11199W        W12063   1.253  13.426  12.643
11200W        W12064   0.709  13.158  10.881
11201W        W12065   0.252  13.966  11.657
11202W        W12066   0.754  12.561  14.176
11203W        W12067   1.459  11.307  14.420
11204W        W12068   2.023  11.309  13.721
11205W        W12069   1.345  11.073  11.979
11206W        W12070   2.130  10.927  11.419
11207W        W12071   0.368  11.141  13.067
11208W        W12072   0.387  11.931  12.407
11209W        W12073   2.934  11.402  12.881
11210W        W12074   0.520  11.657  11.731
11211W        W12075   2.885  11.589  13.360
11212W        W12076   3.437  12.506  10.988
11213W        W12077   0.804  11.419  12.990
11214W        W12078   1.930  11.827  13.802
11215W        W12079   0.241  11.610  11.245
11216W        W12080   0.856  12.916  13.791
11217W        W12081   2.101  12.426  13.000
11218W        W12082   2.036  14.610  11.359
11219W        W12083   0.235  12.913  11.061
11220W        W12084   0.899  13.285  14.160
11221W        W12085   0.499  12.546  13.689
11222W        W12086   1.324  12.803  13.519
11223W        W12087   2.988  11.059  13.805
11224W        W12088   3.576  12.674  13.853
11225W        W12089   3.304  12.534  11.506
11226W        W12090   2.273  13.061  11.585
11227W        W12091   2.844  14.458  11.018
11228W        W12092   2.043  12.505  14.607
11229W        W12093   0.450  13.414  14.469
11230W        W12094   3.667  11.447  14.476
11231W        W12095   2.977  12.372  12.839
11232W        W12096   1.646  14.324  14.466
11233W        W12097   1.390  11.182  11.121
11234W        W12098   3.105  13.500  11.190
11235W        W12099   0.802  11.676  14.094
11236W        W12100   1.530  13.654  13.989
11237W        W12101   3.278  11.488  13.674
11238W        W12102   2.672  14.683  11.456
11239W        W12103   2.834  13.099  13.089
11240W        W12104   1.096  11.422  13.727
11241W        W12105   1.447  12.387  14.318
11242W        W12106   0.911  13.655  11.684
11243W        W12107   2.682  12.949  11.890
11244W        W12108   0.741  11.715  13.507
11245W        W12109   1.840  13.674  12.290
11246W        W12110   3.331  12.326  12.428
11247W        W12111   1.831  11.078  14.135
11248W        W12112   2.708  13.603  13.122
11249W        W12113   3.046  13.970  13.008
11250W        W12114   1.865  13.983  11.030
11251W        W12115   0.198  13.740  14.132
11252W        W12116   1.090  11.844  13.132
11253W        W12117   1.006  11.169  12.348
11254W        W12118   2.261  11.925  13.051
11255W        W12119   1.198  13.168  11.051
11256W        W12120   3.336  12.990  12.950
11257W        W12121   0.707  13.780  14.187
11258W        W12122   3.147  14.524  11.959
11259W        W12123   1.246  11.558  12.116
11260W        W12124   0.972  13.037  12.397
11261W        W12125   1.163  14.527  13.344
11262W        W12126   3.164  14.443  14.227
11263W        W12127   2.281  12.760  13.354
11264W        W12128   0.301  12.497  11.402
11265W        W12129   3.384  14.125  12.198
11266W        W12130   2.992  11.679  11.444
11267W        W12131   1.374  10.995  13.876
11268W        W12132   3.155  13.782  12.525
11269W        W12133   2.853  12.183  12.326
11270W        W12134   1.116  11.997  12.340
11271W        W12135   1.611  12.232  13.728
11272W        W12136   2.624  13.476  13.753
11273W        W12137   1.168  11.938  13.820
11274W        W12138   1.162  14.348  12.438
11275W        W12139   0.688  14.527  14.233
11276W        W12140   0.534  13.729  11.282
11277W        W12141   3.291  13.633  12.041
11278W        W12142   0.683  12.109  13.837
11279W        W12143   3.344  12.046  11.265
11280W        W12144   1.293  13.290  11.696
11281W        W12145   2.085  12.582  13.812
11282W        W12146   2.125  12.198  13.476
11283W        W12147   0.880  12.692  13.306
11284W        W12148   2.947  14.382  13.298
11285W        W12149   2.775  11.245  14.287
11286W        W12150   0.544  11.256  13.933
11287W        W12151   0.946  12.372  12.886
11288W        W12152   1.296  12.139  11.000
11289W        W12153   0.034  13.983  13.708
11290W        W12154   1.378  12.632  13.036
11291W        W12155   1.546  11.680  11.078
11292W        W12156   0.714  12.602  11.751
11293W        W12157   0.491  14.415  13.376
11294W        W12158   2.956  12.631  11.137
11295W        W12159   3.257  11.362  14.168
11296W        W12160   2.779  13.652  12.198
11297W        W12161   0.288  12.533  14.345
11298W        W12162   3.150  11.171  11.484
11299W        W12163   2.935  13.430  11.727
11300W        W12164   1.513  12.544  11.660
11301W        W12165   2.798  11.347  11.093
11302W        W12166   2.801  12.052  13.591
11303W        W12167   0.618  12.741  12.733
11304W        W12168   1.054  13.490  12.145
11305W        W12169   2.420  12.075  12.056
11306W        W12170   1.556  11.669  12.964
11307W        W12171   3.708  13.367  13.466
11308W        W12172   3.402  11.524  13.165
11309W        W12173   0.141  14.172  12.418
11310W        W12174   0.442  13.483  11.748
11311W        W12175   0.594  11.333  14.454
11312W        W12176   1.590  13.782  14.597
11313W        W12177   3.423  12.842  12.453
11314W        W12178   2.786  13.066  11.370
11315W        W12179   2.141  14.482  13.653
11316W        W12180   2.864  13.136  14.462
11317W        W12181   1.625  10.908  11.600
11318W        W12182   2.318  11.839  12.518
11319W        W12183   0.301  13.512  12.990
11320W        W12184   1.322  11.469  11.581
11321W        W12185   1.175  12.850  14.244
11322W        W12186   1.965  11.861  12.143
11323W        W12187   2.379  13.291  13.341
11324W        W12188   0.546  13.928  13.720
11325W        W12189   1.194  13.885  14.300
11326W        W12190   1.042  11.838  11.336
11327W        W12191   2.495  11.807  11.616
11328W        W12192   2.420  13.894  14.003
11329W        W12193   1.221  12.545  12.471
11330W        W12194   0.878  14.083  13.355
11331W        W12195   3.364  14.247  11.015
11332W        W12196   0.459  12.995  14.145
11333W        W12197   2.316  13.206  12.844
11334W        W12198   0.828  13.109  11.878
11335W        W12199   1.346  13.990  13.529
11336W        W12200   1.522  11.217  12.454
11337W        W12201   0.083  13.389  11.396
11338W        W12202   1.676  12.099  11.387
11339W        W12203   0.519  12.826  12.227
11340W        W12204   1.564  11.480  13.924
11341W        W12205   3.269  11.181  10.968
11342W        W12206   3.313  12.909  14.290
11343W        W12207   2.122  14.247  14.295
11344W        W12208   3.536  13.200  13.922
11345W        W12209   3.079  13.956  14.475
11346W        W12210   0.782  14.474  12.943
11347W        W12211   3.560  13.192  12.073
11348W        W12212   2.091  12.331  12.350
11349W        W12213   1.842  10.971  12.099
11350W        W12214   1.076  14.024  12.030
11351W        W12215   1.485  11.757  13.481
11352W        W12216   1.186  11.046  12.834
11353W        W12217   0.393  14.260  11.254
11354W        W12218   2.016  13.167  12.253
11355W        W12219   0.978  14.159  13.905
11356W        W12220   0.421  12.995  11.582
11357W        W12221   0.406  11.451  12.633
11358W        W12222   1.802  13.367  12.704
11359W        W12223   0.157  11.309  11.651
11360W        W12224   2.584  12.511  13.715
11361W        W12225   2.598  11.824  11.117
11362W        W12226   3.195  13.476  12.985
11363W        W12227   1.806  13.905  12.779
11364W        W12228   1.249  14.552  11.699
11365W        W12229   2.381  11.011  10.965
11366W        W12230   0.303  14.300  12.894
11367W        W12231   2.257  11.978  14.435
11368W        W12232   0.440  11.728  14.734
11369W        W12233   0.498  12.165  11.945
11370W        W12234   1.064  12.340  11.448
11371W        W12235   2.407  12.470  14.231
11372W        W12236   1.034  12.993  12.904
11373W        W12237   2.329  10.984  12.328
11374W        W12238   1.666  14.383  12.600
11375W        W12239   2.897  13.886  13.502
11376W        W12240   2.663  13.891  12.680
11377W        W12241   2.522  13.101  12.361
11378W        W12242   1.811  11.353  11.410
11379W        W12243   3.535  11.043  12.174
11380W        W12244   1.157  12.649  11.011
11381W        W12245   3.277  11.849  12.249
11382W        W12246   2.062  12.989  11.113
11383W        W12247   3.022  13.208  13.957
11384W        W12248   2.908  13.991  11.236
11385W        W12249   1.427  11.833  14.280
11386W        W12250   1.224  12.278  13.381
11387W        W12251   3.287  13.671  13.854
11388W        W12252   2.340  11.587  14.027
11389W        W12253   0.156  12.226  13.942
11390W        W12254   1.775  12.583  13.387
11391W        W12255   0.541  13.352  12.240
11392W        W12256   0.388  12.614  13.191
11393W        W12257   2.737  12.981  13.577
11394W        W12258   2.611  14.360  14.176
11395W        W12259   2.374  12.081  13.918
11396W        W12260   2.879  14.191  12.310
11397W        W12261   1.825  13.886  13.343
11398W        W12262   1.118  14.082  12.872
11399W        W12263   3.049  13.395  13.471
11400W        W12264   1.937  13.301  14.540
11401W        W12265   0.740  13.395  12.736
11402W        W12266   3.051  13.194  12.222
11403W        W12267   2.544  14.112  13.141
11404W        W12268   0.646  13.911  12.926
11405W        W12269   1.769  12.067  14.599
11406W        W12270   1.635  14.283  11.437
11407W        W12271   1.394  13.325  14.401
11408W        W12272   1.468  13.727  11.912
11409W        W12273   0.787  12.278  11.003
11410W        W12274   0.241  14.585  17.974
11411W        W12275   0.545  13.392  17.383
11412W        W12276   2.964  13.516  15.286
11413W        W12277   3.410  14.301  17.287
11414W        W12278   1.287  14.192  14.818
11415W        W12279   1.311  12.359  15.721
11416W        W12280   0.657  12.200  15.970
11417W        W12281   1.750  13.085  15.366
11418W        W12282   1.630  14.218  17.613
11419W        W12283   0.202  11.574  17.627
11420W        W12284   0.819  10.801  17.314
11421W        W12285   2.620  11.329  16.328
11422W        W12286   2.157  12.163  14.980
11423W        W12287   2.662  11.832  17.850
11424W        W12288   0.253  11.364  17.135
11425W        W12289   0.386  14.091  18.079
11426W        W12290   1.626  13.387  14.948
11427W        W12291   0.272  12.207  16.616
11428W        W12292   1.048  12.167  17.935
11429W        W12293   3.365  11.817  16.465
11430W        W12294   3.315  13.016  17.120
11431W        W12295   1.580  12.349  16.191
11432W        W12296   2.130  13.782  16.480
11433W        W12297   0.556  13.200  16.857
11434W        W12298   0.023  12.643  16.457
11435W        W12299   1.140  12.518  17.556
11436W        W12300   3.333  12.365  17.786
11437W        W12301   0.995  13.820  16.237
11438W        W12302   2.031  13.507  17.305
11439W        W12303   1.251  12.074  16.527
11440W        W12304   1.520  12.870  16.246
11441W        W12305   2.319  13.733  17.996
11442W        W12306   1.679  12.949  18.089
11443W        W12307   1.617  12.754  17.582
11444W        W12308   0.161  11.869  18.063
11445W        W12309   2.767  13.652  17.710
11446W        W12310   0.491  11.237  15.758
11447W        W12311   0.998  13.536  16.754
11448W        W12312   3.280  13.422  16.147
11449W        W12313   2.855  11.658  16.661
11450W        W12314   3.180  11.662  14.602
11451W        W12315   3.613  12.583  17.069
11452W        W12316   1.773  14.065  16.732
11453W        W12317   3.305  13.856  15.045
11454W        W12318   0.600  14.544  15.226
11455W        W12319   0.908  14.407  15.638
11456W        W12320   0.764  11.280  17.090
11457W        W12321   3.250  12.228  17.284
11458W        W12322   2.560  12.593  15.862
11459W        W12323   2.555  12.317  14.693
11460W        W12324   1.808  13.534  16.816
11461W        W12325   1.622  11.852  16.045
11462W        W12326   2.208  13.849  16.989
11463W        W12327   3.035  12.701  15.688
11464W        W12328   2.229  11.387  15.546
11465W        W12329   0.855  14.091  15.133
11466W        W12330   0.249  11.679  15.747
11467W        W12331   2.486  12.291  16.271
11468W        W12332   0.465  13.881  16.299
11469W        W12333   1.680  13.944  15.076
11470W        W12334   3.042  12.151  14.558
11471W        W12335   0.160  13.972  16.753
11472W        W12336   0.956  13.690  17.277
11473W        W12337   1.195  12.856  15.814
11474W        W12338   1.289  11.407  16.866
11475W        W12339   3.537  11.020  16.430
11476W        W12340   0.785  13.000  14.605
11477W        W12341   0.697  12.226  15.195
11478W        W12342   0.640  13.742  15.823
11479W        W12343   1.545  13.250  15.834
11480W        W12344   2.954  14.160  17.489
11481W        W12345   2.023  11.810  15.341
11482W        W12346   3.173  14.430  16.281
11483W        W12347   2.812  12.194  17.530
11484W        W12348   3.650  13.834  16.028
11485W        W12349   2.238  13.047  17.286
11486W        W12350   0.404  12.609  15.343
11487W        W12351   0.985  13.163  17.114
11488W        W12352   2.252  12.264  15.488
11489W        W12353   2.171  12.789  15.581
11490W        W12354   0.520  12.236  17.069
11491W        W12355   0.554  12.112  17.853
11492W        W12356   0.441  10.906  16.127
11493W        W12357   2.151  11.540  16.575
11494W        W12358   1.882  11.504  17.837
11495W        W12359   2.331  11.328  15.028
11496W        W12360   3.399  14.021  17.740
11497W        W12361   2.164  11.085  17.633
11498W        W12362   3.223  13.487  17.868
11499W        W12363   2.802  11.703  17.364
11500W        W12364   2.643  11.508  15.833
11501W        W12365   2.857  12.535  17.894
11502W        W12366   0.814  14.343  16.230
11503W        W12367   1.394  11.886  15.504
11504W        W12368   0.930  11.198  17.817
11505W        W12369   3.035  12.010  15.541
11506W        W12370   3.223  12.447  15.255
11507W        W12371   1.266  14.390  17.922
11508W        W12372   1.054  10.997  15.186
11509W        W12373   3.304  11.404  16.178
11510W        W12374   3.593  13.753  14.621
11511W        W12375   0.355  13.032  16.381
11512W        W12376   2.354  11.458  14.512
11513W        W12377   3.435  14.013  16.462
11514W        W12378   3.392  11.048  17.106
11515W        W12379   1.866  12.312  17.704
11516W        W12380   2.001  13.587  15.277
11517W        W12381   2.449  12.742  18.110
11518W        W12382   2.192  11.047  16.442
11519W        W12383   0.777  11.911  16.399
11520W        W12384   0.360  12.915  17.262
11521W        W12385   2.156  14.171  15.930
11522W        W12386   3.363  12.212  16.789
11523W        W12387   2.046  14.207  17.327
11524W        W12388   3.267  13.141  14.777
11525W        W12389   1.692  12.709  15.757
11526W        W12390   3.528  10.988  17.588
11527W        W12391   1.733  13.109  17.183
11528W        W12392   2.011  12.040  16.364
11529W        W12393   2.722  12.415  15.409
11530W        W12394   2.882  12.113  15.043
11531W        W12395   3.014  14.049  15.432
11532W        W12396   2.762  13.472  16.212
11533W        W12397   2.351  12.637  15.095
11534W        W12398   2.017  12.946  16.080
11535W        W12399   2.963  12.684  16.404
11536W        W12400   0.468  11.669  16.732
11537W        W12401   3.034  12.679  17.426
11538W        W12402   3.453  14.442  16.763
11539W        W12403   1.347  13.789  15.869
11540W        W12404   2.525  14.358  17.274
11541W        W12405   2.431  11.585  17.022
11542W        W12406   1.612  14.376  17.104
11543W        W12407   3.164  11.384  15.647
11544W        W12408   3.068  12.606  16.919
11545W        W12409   0.095  11.897  16.997
11546W        W12410   2.936  11.776  16.154
11547W        W12411   3.177  11.861  17.702
11548W        W12412   2.302  13.649  15.995
11549W        W12413   1.657  14.210  15.722
11550W        W12414   0.759  11.386  14.958
11551W        W12415   1.755  11.174  16.709
11552W        W12416   0.825  14.056  14.613
11553W        W12417   0.923  12.727  15.122
11554W        W12418   1.783  13.271  17.689
11555W        W12419   1.729  11.497  15.676
11556W        W12420   2.941  11.076  16.023
11557W        W12421   2.669  14.482  16.393
11558W        W12422   2.140  14.315  16.438
11559W        W12423   1.401  13.099  16.756
11560W        W12424   3.257  13.954  16.959
11561W        W12425   0.859  11.440  15.470
11562W        W12426   1.428  13.711  16.521
11563W        W12427   1.027  11.627  14.571
11564W        W12428   1.687  12.214  16.729
11565W        W12429   2.561  11.135  16.800
11566W        W12430   0.070  13.041  16.818
11567W        W12431   1.544  12.511  14.837
11568W        W12432   1.018  11.054  14.664
11569W        W12433   1.773  12.188  15.630
11570W        W12434   2.571  11.212  17.346
11571W        W12435   1.314  13.165  17.507
11572W        W12436   2.085  12.848  17.778
11573W        W12437   2.587  12.871  17.607
11574W        W12438   1.918  11.127  18.175
11575W        W12439   1.218  11.594  16.330
11576W        W12440   0.731  11.665  15.950
11577W        W12441   0.467  14.107  15.493
11578W        W12442   1.900  13.790  17.705
11579W        W12443   0.923  13.298  15.040
11580W        W12444   2.447  12.800  16.331
11581W        W12445   2.614  12.482  16.722
11582W        W12446   1.887  13.077  16.577
11583W        W12447   2.448  13.406  14.629
11584W        W12448   2.165  11.403  16.060
11585W        W12449   3.480  11.741  15.424
11586W        W12450   0.376  14.404  17.511
11587W        W12451   0.546  13.704  16.960
11588W        W12452   0.094  14.394  15.276
11589W        W12453   1.991  11.855  16.957
11590W        W12454   1.220  13.719  14.986
11591W        W12455   3.166  14.365  15.033
11592W        W12456   1.867  12.528  15.249
11593W        W12457   0.893  11.963  15.571
11594W        W12458   2.019  11.692  14.829
11595W        W12459   2.313  13.326  17.701
11596W        W12460   2.718  11.297  15.372
11597W        W12461   0.275  11.203  14.869
11598W        W12462   1.388  13.481  17.102
11599W        W12463   1.206  13.284  16.316
11600W        W12464   0.952  13.537  14.591
11601W        W12465   0.123  13.856  15.185
11602W        W12466   0.770  12.611  17.970
11603W        W12467   1.432  11.208  17.951
11604W        W12468   1.923  11.401  17.234
11605W        W12469   1.395  11.066  15.888
11606W        W12470   2.116  10.927  15.322
11607W        W12471   0.415  11.123  16.711
11608W        W12472   0.301  11.896  16.202
11609W        W12473   3.058  11.136  16.576
11610W        W12474   0.478  11.734  15.265
11611W        W12475   2.966  11.335  17.043
11612W        W12476   3.308  12.578  14.717
11613W        W12477   0.856  11.360  16.589
11614W        W12478   1.870  11.874  17.460
11615W        W12479  28.997  11.628  14.950
11616W        W12480   0.828  12.951  17.558
11617W        W12481   1.993  12.565  16.452
11618W        W12482   2.004  14.265  14.824
11619W        W12483   0.253  12.966  14.644
11620W        W12484   0.936  13.436  17.727
11621W        W12485   0.540  12.505  17.522
11622W        W12486   1.332  12.767  17.148
11623W        W12487   3.018  11.002  17.466
11624W        W12488   3.538  12.781  17.536
11625W        W12489   3.131  12.982  15.255
11626W        W12490   2.250  13.147  15.185
11627W        W12491   2.866  14.414  14.627
11628W        W12492   2.022  12.394  18.184
11629W        W12493   0.208  13.337  18.125
11630W        W12494   3.452  11.394  17.896
11631W        W12495   2.942  12.154  16.505
11632W        W12496   1.755  14.438  18.069
11633W        W12497   1.468  11.112  14.903
11634W        W12498   2.941  13.560  14.759
11635W        W12499   0.708  11.648  17.715
11636W        W12500   1.389  13.691  17.592
11637W        W12501   3.296  11.463  17.406
11638W        W12502   2.695  14.562  15.104
11639W        W12503   2.719  13.141  16.616
11640W        W12504   1.054  11.639  17.338
11641W        W12505   1.492  12.448  18.002
11642W        W12506   0.999  13.653  15.440
11643W        W12507   2.649  12.932  15.439
11644W        W12508   0.547  11.755  17.242
11645W        W12509   1.855  13.746  15.770
11646W        W12510   3.449  12.277  16.270
11647W        W12511   1.673  10.999  17.546
11648W        W12512   2.612  13.671  16.669
11649W        W12513   2.942  14.099  16.596
11650W        W12514   2.081  13.748  14.778
11651W        W12515   0.226  13.696  17.749
11652W        W12516   0.945  11.829  16.879
11653W        W12517   0.910  11.196  16.096
11654W        W12518   2.441  11.982  16.696
11655W        W12519   1.296  12.982  14.834
11656W        W12520   3.244  13.135  16.608
11657W        W12521   0.623  13.641  18.071
11658W        W12522   3.041  14.550  15.536
11659W        W12523   1.223  11.535  15.823
11660W        W12524   0.810  12.955  16.131
11661W        W12525   1.132  14.452  16.990
11662W        W12526   3.169  14.515  17.803
11663W        W12527   2.274  12.836  16.826
11664W        W12528   0.522  12.554  14.820
11665W        W12529   3.324  14.192  15.847
11666W        W12530   3.041  11.635  15.152
11667W        W12531   1.220  11.146  17.317
11668W        W12532   3.049  13.890  16.138
11669W        W12533   2.991  12.304  16.018
11670W        W12534   1.133  12.004  16.028
11671W        W12535   1.649  12.317  17.235
11672W        W12536   2.555  13.456  17.273
11673W        W12537   1.372  12.031  17.559
11674W        W12538   1.280  14.364  16.023
11675W        W12539   0.747  14.402  17.871
11676W        W12540   0.592  13.697  14.923
11677W        W12541   3.268  13.693  15.696
11678W        W12542   0.864  12.104  17.440
11679W        W12543   3.380  12.003  14.946
11680W        W12544   1.232  13.179  15.415
11681W        W12545   2.062  12.588  17.330
11682W        W12546   2.153  12.339  16.901
11683W        W12547   0.832  12.658  17.120
11684W        W12548   2.966  14.408  17.007
11685W        W12549   2.626  10.957  17.833
11686W        W12550   0.496  11.140  17.551
11687W        W12551   0.839  12.358  16.673
11688W        W12552   1.277  12.078  14.722
11689W        W12553   0.211  13.962  17.282
11690W        W12554   1.329  12.581  16.645
11691W        W12555   1.505  11.629  14.832
11692W        W12556   0.851  12.508  15.596
11693W        W12557   0.305  14.427  17.007
11694W        W12558   2.851  12.651  14.948
11695W        W12559   2.909  11.391  17.773
11696W        W12560   2.753  13.698  15.740
11697W        W12561   0.256  12.475  18.054
11698W        W12562   3.131  11.102  15.129
11699W        W12563   2.493  13.616  15.097
11700W        W12564   1.398  12.712  15.325
11701W        W12565   2.794  11.347  14.798
11702W        W12566   2.830  12.099  17.013
11703W        W12567   0.530  12.548  16.312
11704W        W12568   0.997  13.364  15.861
11705W        W12569   2.595  12.058  15.816
11706W        W12570   1.649  11.709  16.589
11707W        W12571   3.467  13.489  16.985
11708W        W12572   3.437  11.454  16.819
11709W        W12573   0.353  14.317  15.967
11710W        W12574   0.534  13.460  15.372
11711W        W12575   0.616  10.947  18.286
11712W        W12576   1.530  13.925  18.046
11713W        W12577   3.665  13.104  16.262
11714W        W12578   2.729  13.147  14.974
11715W        W12579   2.090  14.505  16.926
11716W        W12580   2.740  13.191  17.974
11717W        W12581   1.583  10.972  15.415
11718W        W12582   2.441  11.791  16.230
11719W        W12583   0.231  13.489  16.596
11720W        W12584   1.342  11.420  15.305
11721W        W12585   1.199  12.879  17.921
11722W        W12586   2.113  11.868  15.844
11723W        W12587   2.275  13.341  16.863
11724W        W12588   0.641  13.948  17.609
11725W        W12589   1.037  13.919  17.926
11726W        W12590   1.032  11.797  15.092
11727W        W12591   2.554  11.803  15.369
11728W        W12592   2.384  13.886  17.493
11729W        W12593   1.059  12.495  16.195
11730W        W12594   0.719  14.159  17.148
11731W        W12595   3.451  14.254  14.632
11732W        W12596   0.393  12.925  17.827
11733W        W12597   2.295  13.297  16.358
11734W        W12598   0.753  13.019  15.543
11735W        W12599   1.255  13.961  16.957
11736W        W12600   1.681  11.359  16.204
11737W        W12601   0.171  13.376  14.963
11738W        W12602   1.656  12.065  15.098
11739W        W12603   0.449  12.719  15.840
11740W        W12604   1.502  11.517  17.520
11741W        W12605   3.282  11.170  14.650
11742W        W12606   3.169  12.940  17.858
11743W        W12607   2.157  14.230  17.828
11744W        W12608   3.543  13.329  17.485
11745W        W12609   2.962  14.060  17.996
11746W        W12610   0.751  14.560  16.695
11747W        W12611   3.642  13.358  15.801
11748W        W12612   2.082  12.412  15.968
11749W        W12613   1.921  11.031  15.802
11750W        W12614   1.479  11.840  17.078
11751W        W12615   1.299  11.090  16.437
11752W        W12616   0.403  14.197  14.899
11753W        W12617   2.073  13.287  15.702
11754W        W12618   1.141  14.153  17.454
11755W        W12619   0.510  13.023  15.077
11756W        W12620   0.435  11.399  16.276
11757W        W12621   1.807  13.464  16.225
11758W        W12622   0.125  11.349  15.374
11759W        W12623   2.559  12.516  17.224
11760W        W12624   2.532  11.800  14.850
11761W        W12625   3.124  13.627  16.578
11762W        W12626   1.720  14.008  16.210
11763W        W12627   1.287  14.090  15.400
11764W        W12628   2.395  10.974  14.638
11765W        W12629   0.357  14.354  16.483
11766W        W12630   2.166  11.945  17.920
11767W        W12631   0.764  11.779  18.218
11768W        W12632   0.338  12.155  15.571
11769W        W12633   1.197  12.272  15.204
11770W        W12634   2.372  12.398  17.710
11771W        W12635   0.915  12.899  16.636
11772W        W12636   2.429  10.969  15.958
11773W        W12637   1.791  14.516  16.130
11774W        W12638   2.759  13.899  17.102
11775W        W12639   2.549  13.998  16.272
11776W        W12640   2.518  13.119  15.911
11777W        W12641   1.838  11.353  15.176
11778W        W12642   3.443  10.986  15.893
11779W        W12643   1.044  12.539  14.643
11780W        W12644   3.367  11.864  15.919
11781W        W12645   1.896  12.912  14.896
11782W        W12646   2.976  13.218  17.481
11783W        W12647   2.798  14.016  14.957
11784W        W12648   1.189  11.666  17.920
11785W        W12649   1.176  12.266  17.054
11786W        W12650   3.171  13.694  17.388
11787W        W12651   2.306  11.600  17.541
11788W        W12652   0.199  12.092  17.486
11789W        W12653   1.773  12.694  16.899
11790W        W12654   0.456  13.271  15.916
11791W        W12655   0.443  12.689  16.790
11792W        W12656   2.724  12.974  17.098
11793W        W12657   2.630  14.430  17.795
11794W        W12658   2.356  12.048  17.293
11795W        W12659   2.770  14.231  15.868
11796W        W12660   1.691  13.873  17.213
11797W        W12661   1.293  14.223  16.517
11798W        W12662   2.968  13.411  16.996
11799W        W12663   1.839  13.509  18.156
11800W        W12664   0.695  13.414  16.357
11801W        W12665   3.037  13.222  15.724
11802W        W12666   2.491  14.201  16.783
11803W        W12667   0.812  14.042  16.662
11804W        W12668   1.637  11.937  18.003
11805W        W12669   2.053  14.109  15.404
11806W        W12670   1.364  13.368  18.010
11807W        W12671   1.512  13.598  15.419
11808W        W12672   0.773  12.100  14.723
11809W        W12673   0.167  14.689  21.639
11810W        W12674   0.602  13.519  21.259
11811W        W12675   3.180  13.206  19.587
11812W        W12676   3.484  14.328  21.029
11813W        W12677   1.375  14.252  18.424
11814W        W12678   1.097  12.281  19.265
11815W        W12679   0.661  12.281  19.558
11816W        W12680   1.633  12.814  18.984
11817W        W12681   1.694  14.212  21.360
11818W        W12682   0.329  11.771  21.308
11819W        W12683   0.818  10.852  21.067
11820W        W12684   2.480  11.323  20.032
11821W        W12685   2.227  12.076  18.553
11822W        W12686   2.786  11.628  21.607
11823W        W12687   0.414  11.520  20.863
11824W        W12688   0.374  14.223  21.773
11825W        W12689   1.673  13.160  18.571
11826W        W12690   0.237  12.149  20.220
11827W        W12691   1.173  12.234  21.550
11828W        W12692   3.238  11.591  19.966
11829W        W12693   3.343  13.135  20.828
11830W        W12694   1.489  12.238  19.975
11831W        W12695   2.326  13.863  20.322
11832W        W12696   0.655  13.129  20.436
11833W        W12697   0.107  12.647  20.240
11834W        W12698   1.292  12.721  21.298
11835W        W12699   3.325  12.305  21.410
11836W        W12700   0.983  13.823  19.874
11837W        W12701   2.197  13.629  20.949
11838W        W12702   1.258  11.842  20.231
11839W        W12703   1.448  12.866  19.863
11840W        W12704   2.408  13.765  21.709
11841W        W12705   1.651  13.039  21.590
11842W        W12706   1.764  12.844  21.106
11843W        W12707   0.201  12.078  21.769
11844W        W12708   2.839  13.601  21.389
11845W        W12709   0.428  11.226  19.369
11846W        W12710   1.039  13.495  20.396
11847W        W12711   3.510  13.500  19.934
11848W        W12712   2.752  11.712  20.224
11849W        W12713   3.096  11.605  18.203
11850W        W12714   3.495  12.371  20.680
11851W        W12715   1.674  14.159  20.469
11852W        W12716   3.377  13.990  19.026
11853W        W12717   0.490  14.634  18.939
11854W        W12718   0.885  14.458  19.272
11855W        W12719   0.686  11.151  20.644
11856W        W12720   3.164  12.083  20.968
11857W        W12721   2.303  12.321  19.603
11858W        W12722   2.527  12.236  18.174
11859W        W12723   1.893  13.679  20.526
11860W        W12724   1.544  11.695  19.780
11861W        W12725   2.179  14.112  20.763
11862W        W12726   3.029  12.730  19.439
11863W        W12727   2.190  11.367  19.057
11864W        W12728   0.725  14.095  18.928
11865W        W12729   0.070  11.614  19.416
11866W        W12730   2.548  12.192  20.051
11867W        W12731   0.463  13.767  19.854
11868W        W12732   1.438  13.621  18.697
11869W        W12733   3.012  12.099  18.135
11870W        W12734   0.304  13.972  20.543
11871W        W12735   1.052  13.674  21.033
11872W        W12736   1.212  12.773  19.298
11873W        W12737   1.131  11.294  20.457
11874W        W12738   3.494  10.700  20.416
11875W        W12739   0.735  12.756  18.508
11876W        W12740   0.459  11.913  18.626
11877W        W12741   0.592  13.818  19.355
11878W        W12742   1.432  13.202  19.442
11879W        W12743   3.005  14.025  21.113
11880W        W12744   1.936  11.776  18.864
11881W        W12745   3.180  14.562  19.747
11882W        W12746   2.813  12.112  21.404
11883W        W12747   3.789  13.946  19.762
11884W        W12748   2.208  13.099  20.975
11885W        W12749   0.207  12.621  19.212
11886W        W12750   0.988  13.201  20.813
11887W        W12751   1.947  12.145  19.218
11888W        W12752   1.992  12.647  19.319
11889W        W12753   0.646  12.202  20.524
11890W        W12754   0.648  12.161  21.463
11891W        W12755   0.347  10.941  19.773
11892W        W12756   2.104  11.376  20.370
11893W        W12757   1.913  11.496  21.539
11894W        W12758   2.328  11.350  18.553
11895W        W12759   3.421  14.016  21.429
11896W        W12760   2.236  11.036  21.393
11897W        W12761   3.271  13.364  21.581
11898W        W12762   2.829  11.699  21.099
11899W        W12763   2.360  11.382  19.542
11900W        W12764   2.920  12.614  21.518
11901W        W12765   0.679  14.210  19.677
11902W        W12766   1.425  11.804  18.821
11903W        W12767   1.055  11.185  21.453
11904W        W12768   2.873  11.914  19.115
11905W        W12769   3.228  12.283  19.184
11906W        W12770   1.284  14.461  21.541
11907W        W12771   0.943  10.944  18.683
11908W        W12772   3.452  11.131  20.052
11909W        W12773   3.396  13.824  18.222
11910W        W12774   0.360  13.044  20.007
11911W        W12775   2.351  11.401  18.014
11912W        W12776   3.602  13.909  20.240
11913W        W12777   3.324  11.034  20.782
11914W        W12778   1.911  12.362  21.280
11915W        W12779   1.765  13.313  19.063
11916W        W12780   2.491  12.766  21.802
11917W        W12781   2.254  10.932  19.778
11918W        W12782   0.724  11.900  20.082
11919W        W12783   0.436  13.124  20.937
11920W        W12784   2.268  14.201  19.826
11921W        W12785   3.225  11.948  20.450
11922W        W12786   2.158  14.417  21.184
11923W        W12787   2.918  12.548  18.399
11924W        W12788   1.548  12.413  19.469
11925W        W12789   3.602  11.073  21.239
11926W        W12790   1.838  13.163  20.637
11927W        W12791   1.847  11.832  20.168
11928W        W12792   2.420  12.252  19.035
11929W        W12793   2.764  12.111  18.638
11930W        W12794   3.016  14.040  19.412
11931W        W12795   2.670  13.520  20.156
11932W        W12796   2.440  12.540  18.599
11933W        W12797   1.886  12.566  19.815
11934W        W12798   2.914  12.579  19.999
11935W        W12799   0.325  11.655  20.363
11936W        W12800   3.180  12.641  20.997
11937W        W12801   3.570  14.357  20.496
11938W        W12802   1.446  13.982  19.745
11939W        W12803   2.632  14.382  20.968
11940W        W12804   2.403  11.578  20.769
11941W        W12805   1.740  14.467  20.892
11942W        W12806   3.168  11.376  19.456
11943W        W12807   2.982  12.416  20.535
11944W        W12808   0.248  12.011  20.779
11945W        W12809   2.774  11.656  19.702
11946W        W12810   3.229  11.799  21.425
11947W        W12811   2.257  13.644  19.854
11948W        W12812   1.486  14.279  19.308
11949W        W12813   0.565  11.386  18.584
11950W        W12814   1.847  10.968  20.157
11951W        W12815   0.874  14.089  18.395
11952W        W12816   1.152  12.686  18.807
11953W        W12817   1.840  13.358  21.208
11954W        W12818   1.621  11.417  19.138
11955W        W12819   2.786  11.120  19.674
11956W        W12820   2.571  14.570  20.084
11957W        W12821   2.119  14.347  20.296
11958W        W12822   1.407  13.138  20.334
11959W        W12823   3.414  13.908  20.729
11960W        W12824   0.863  11.313  19.069
11961W        W12825   1.448  13.745  20.222
11962W        W12826   1.022  11.327  18.316
11963W        W12827   1.601  12.142  20.495
11964W        W12828   2.570  11.155  20.510
11965W        W12829   0.141  13.089  20.492
11966W        W12830   1.586  12.624  18.497
11967W        W12831   1.093  10.827  18.158
11968W        W12832   1.483  11.918  19.321
11969W        W12833   2.685  11.214  21.014
11970W        W12834   1.351  13.224  21.194
11971W        W12835   2.116  12.851  21.459
11972W        W12836   2.578  12.883  21.257
11973W        W12837   1.931  11.112  21.900
11974W        W12838   1.141  11.443  19.946
11975W        W12839   0.711  11.593  19.642
11976W        W12840   0.367  14.272  19.259
11977W        W12841   2.009  13.819  21.380
11978W        W12842   0.804  13.249  18.660
11979W        W12843   2.361  12.668  20.026
11980W        W12844   2.461  12.399  20.527
11981W        W12845   1.856  12.882  20.201
11982W        W12846   2.273  13.233  18.198
11983W        W12847   1.960  11.382  19.868
11984W        W12848   3.350  11.691  19.067
11985W        W12849   0.373  14.381  21.278
11986W        W12850   0.631  13.582  20.728
11987W        W12851   0.031  14.400  18.873
11988W        W12852   1.878  11.701  20.674
11989W        W12853   1.047  13.588  18.356
11990W        W12854   3.138  14.331  18.696
11991W        W12855   1.974  12.452  18.801
11992W        W12856   0.887  11.835  19.209
11993W        W12857   1.999  11.672  18.325
11994W        W12858   2.347  13.343  21.414
11995W        W12859   2.726  11.412  19.182
11996W        W12860   0.156  11.091  18.482
11997W        W12861   1.449  13.481  20.747
11998W        W12862   1.291  13.389  19.897
11999W        W12863   0.767  13.133  18.132
12000W        W12864   0.225  13.914  18.915
12001W        W12865   0.842  12.629  21.577
12002W        W12866   1.480  11.289  21.720
12003W        W12867   1.994  11.277  20.975
12004W        W12868   1.281  11.026  19.226
12005W        W12869   2.174  10.918  18.806
12006W        W12870   0.300  11.078  20.287
12007W        W12871   0.332  11.939  19.742
12008W        W12872   2.972  11.215  20.195
12009W        W12873   0.458  11.619  19.044
12010W        W12874   2.945  11.489  20.647
12011W        W12875   3.426  12.350  18.301
12012W        W12876   0.695  11.371  20.155
12013W        W12877   1.919  11.840  21.166
12014W        W12878   0.071  11.592  18.501
12015W        W12879   0.873  13.053  21.281
12016W        W12880   2.020  12.329  20.246
12017W        W12881   1.935  14.499  18.541
12018W        W12882   0.267  12.896  18.360
12019W        W12883   1.043  13.493  21.509
12020W        W12884   0.562  12.653  21.133
12021W        W12885   1.388  12.885  20.782
12022W        W12886   2.982  10.815  21.162
12023W        W12887   3.689  12.755  20.987
12024W        W12888   3.346  13.072  19.124
12025W        W12889   2.177  12.917  18.921
12026W        W12890   2.875  14.498  18.258
12027W        W12891   2.075  12.427  21.822
12028W        W12892   0.287  13.464  21.873
12029W        W12893   3.662  11.402  21.687
12030W        W12894   3.034  12.065  19.984
12031W        W12895   1.709  14.464  21.830
12032W        W12896   1.479  11.010  18.428
12033W        W12897   2.780  13.639  18.230
12034W        W12898   0.858  11.681  21.461
12035W        W12899   1.487  13.717  21.342
12036W        W12900   3.313  11.495  21.020
12037W        W12901   2.667  14.571  18.736
12038W        W12902   2.708  12.972  20.285
12039W        W12903   0.981  11.435  20.988
12040W        W12904   1.594  12.523  21.670
12041W        W12905   0.964  13.633  18.971
12042W        W12906   2.519  12.693  19.321
12043W        W12907   0.723  11.926  20.998
12044W        W12908   1.740  13.574  19.643
12045W        W12909   3.297  12.376  19.681
12046W        W12910   1.734  11.032  21.373
12047W        W12911   3.046  13.854  20.360
12048W        W12912   3.069  14.374  20.209
12049W        W12913   1.981  14.021  18.280
12050W        W12914   0.240  13.814  21.507
12051W        W12915   0.826  11.695  20.550
12052W        W12916   0.838  11.098  19.730
12053W        W12917   2.294  11.904  20.397
12054W        W12918   1.205  13.024  18.412
12055W        W12919   3.213  12.858  20.418
12056W        W12920   0.680  13.784  21.756
12057W        W12921   3.027  14.561  19.224
12058W        W12922   1.192  11.493  19.437
12059W        W12923   0.984  13.026  19.675
12060W        W12924   1.284  14.451  20.636
12061W        W12925   3.153  14.476  21.419
12062W        W12926   2.265  12.869  20.515
12063W        W12927   0.334  12.468  18.702
12064W        W12928   3.480  14.248  19.466
12065W        W12929   2.907  11.551  18.694
12066W        W12930   1.329  10.947  21.067
12067W        W12931   3.254  14.026  19.882
12068W        W12932   2.806  12.240  19.532
12069W        W12933   1.099  11.971  19.709
12070W        W12934   1.491  12.374  20.956
12071W        W12935   2.640  13.356  20.992
12072W        W12936   1.228  11.912  21.133
12073W        W12937   1.178  14.437  19.703
12074W        W12938   0.773  14.481  21.597
12075W        W12939   0.556  13.716  18.575
12076W        W12940   3.432  13.726  19.490
12077W        W12941   0.977  12.370  21.092
12078W        W12942   3.258  11.923  18.579
12079W        W12943   1.263  13.189  18.934
12080W        W12944   2.247  12.599  20.965
12081W        W12945   2.038  12.176  20.770
12082W        W12946   0.974  12.624  20.628
12083W        W12947   3.083  14.338  20.714
12084W        W12948   2.718  11.109  21.516
12085W        W12949   0.572  11.274  21.296
12086W        W12950   1.029  12.308  20.198
12087W        W12951   1.219  11.983  18.377
12088W        W12952   0.342  13.923  21.034
12089W        W12953   1.425  12.610  20.332
12090W        W12954   1.499  11.547  18.344
12091W        W12955   0.724  12.597  19.101
12092W        W12956   0.404  14.437  20.767
12093W        W12957   2.845  12.537  18.941
12094W        W12958   3.192  11.280  21.492
12095W        W12959   2.965  13.633  19.747
12096W        W12960   0.344  12.581  21.701
12097W        W12961   3.176  11.200  18.962
12098W        W12962   3.084  13.540  19.184
12099W        W12963   1.496  12.307  18.939
12100W        W12964   2.753  11.244  18.267
12101W        W12965   2.737  11.980  20.673
12102W        W12966   0.587  12.535  20.051
12103W        W12967   0.984  13.496  19.478
12104W        W12968   2.420  11.865  19.372
12105W        W12969   1.579  11.407  20.237
12106W        W12970   3.759  13.478  20.791
12107W        W12971   3.428  11.472  20.475
12108W        W12972   0.152  14.131  19.684
12109W        W12973   0.477  13.462  19.021
12110W        W12974   0.590  11.282  21.824
12111W        W12975   1.696  13.936  21.798
12112W        W12976   3.364  12.844  19.909
12113W        W12977   2.647  13.008  18.497
12114W        W12978   2.215  14.644  20.702
12115W        W12979   2.792  13.146  21.656
12116W        W12980   1.657  10.886  18.910
12117W        W12981   2.289  11.785  19.876
12118W        W12982   0.352  13.520  20.286
12119W        W12983   1.286  11.313  18.776
12120W        W12984   1.167  12.995  21.721
12121W        W12985   1.948  11.660  19.426
12122W        W12986   2.365  13.374  20.542
12123W        W12987   0.767  14.029  21.319
12124W        W12988   1.165  13.974  21.650
12125W        W12989   0.936  11.699  18.711
12126W        W12990   2.460  11.748  18.863
12127W        W12991   2.485  13.967  21.234
12128W        W12992   1.086  12.516  19.737
12129W        W12993   0.777  14.077  20.807
12130W        W12994   3.369  14.333  18.238
12131W        W12995   0.453  13.067  21.558
12132W        W12996   2.277  13.173  20.070
12133W        W12997   0.819  13.105  19.187
12134W        W12998   1.231  13.937  20.632
12135W        W12999   1.513  11.176  19.695
12136W        W13000   0.124  13.359  18.654
12137W        W13001   1.711  12.101  18.494
12138W        W13002   0.544  12.791  19.570
12139W        W13003   1.497  11.454  21.185
12140W        W13004   3.219  11.150  18.448
12141W        W13005   3.391  12.829  21.432
12142W        W13006   2.138  14.237  21.669
12143W        W13007   3.666  13.216  21.220
12144W        W13008   2.930  14.048  21.637
12145W        W13009   0.808  14.460  20.454
12146W        W13010   3.677  13.249  19.521
12147W        W13011   1.884  12.068  19.716
12148W        W13012   1.931  11.102  19.404
12149W        W13013   1.061  14.001  19.386
12150W        W13014   1.374  11.661  20.705
12151W        W13015   1.299  10.961  20.118
12152W        W13016   0.414  14.265  18.558
12153W        W13017   1.898  13.072  19.694
12154W        W13018   1.245  14.163  21.104
12155W        W13019   0.440  12.962  18.872
12156W        W13020   0.256  11.436  19.880
12157W        W13021   1.809  13.389  20.116
12158W        W13022   0.050  11.319  18.963
12159W        W13023   2.726  12.409  20.996
12160W        W13024   2.575  11.742  18.339
12161W        W13025   3.398  13.467  20.435
12162W        W13026   1.882  13.933  20.049
12163W        W13027   1.236  14.073  18.896
12164W        W13028   2.364  10.901  18.300
12165W        W13029   0.421  14.253  20.129
12166W        W13030   2.305  11.912  21.599
12167W        W13031   0.602  11.785  21.913
12168W        W13032   0.466  12.144  19.093
12169W        W13033   0.911  12.215  18.777
12170W        W13034   2.406  12.419  21.416
12171W        W13035   0.996  12.857  20.156
12172W        W13036   2.459  10.953  19.272
12173W        W13037   1.629  14.395  20.004
12174W        W13038   2.658  13.811  20.743
12175W        W13039   2.724  14.034  19.998
12176W        W13040   2.716  13.016  19.772
12177W        W13041   1.827  11.308  18.670
12178W        W13042   3.514  11.009  19.555
12179W        W13043   1.121  12.489  18.336
12180W        W13044   3.198  11.884  19.527
12181W        W13045   2.052  12.837  18.432
12182W        W13046   3.028  13.110  21.208
12183W        W13047   2.499  14.147  18.229
12184W        W13048   1.358  11.757  21.598
12185W        W13049   1.123  12.113  20.669
12186W        W13050   3.316  13.587  21.118
12187W        W13051   2.366  11.523  21.276
12188W        W13052   0.207  12.279  21.224
12189W        W13053   1.830  12.624  20.646
12190W        W13054   0.466  13.317  19.538
12191W        W13055   0.463  12.684  20.610
12192W        W13056   2.762  12.881  20.778
12193W        W13057   2.595  14.425  21.488
12194W        W13058   2.406  12.012  21.084
12195W        W13059   2.708  14.402  19.619
12196W        W13060   1.706  13.925  20.932
12197W        W13061   1.177  14.200  20.178
12198W        W13062   2.923  13.352  20.576
12199W        W13063   1.945  13.440  21.724
12200W        W13064   0.764  13.367  19.980
12201W        W13065   3.092  13.244  20.088
12202W        W13066   2.622  14.250  20.474
12203W        W13067   0.756  13.910  20.318
12204W        W13068   1.801  12.008  21.653
12205W        W13069   1.732  14.063  18.756
12206W        W13070   1.443  13.490  21.812
12207W        W13071   1.424  13.683  19.226
12208W        W13072   0.653  12.272  18.330
12209W        W13073   0.050  14.694  25.286
12210W        W13074   0.571  13.543  24.886
12211W        W13075   3.024  12.938  22.656
12212W        W13076   3.458  14.293  24.682
12213W        W13077   1.330  14.196  22.077
12214W        W13078   1.171  12.322  22.882
12215W        W13079   0.767  12.224  23.208
12216W        W13080   1.605  12.953  22.593
12217W        W13081   1.672  14.208  24.993
12218W        W13082   0.380  11.779  24.906
12219W        W13083   0.878  10.921  24.515
12220W        W13084   2.430  11.458  23.626
12221W        W13085   2.211  12.124  22.225
12222W        W13086   2.812  11.740  25.256
12223W        W13087   0.292  11.510  24.334
12224W        W13088   0.345  14.268  25.475
12225W        W13089   1.734  13.297  22.194
12226W        W13090   0.244  12.210  23.963
12227W        W13091   1.162  12.249  25.031
12228W        W13092   3.465  11.903  23.656
12229W        W13093   3.199  12.982  24.428
12230W        W13094   1.712  12.328  23.576
12231W        W13095   2.419  13.752  24.077
12232W        W13096   0.653  13.143  24.123
12233W        W13097   0.052  12.654  23.733
12234W        W13098   1.137  12.660  24.707
12235W        W13099   3.341  12.407  25.066
12236W        W13100   0.923  13.878  23.485
12237W        W13101   2.041  13.536  24.564
12238W        W13102   1.393  12.018  23.819
12239W        W13103   1.506  12.920  23.493
12240W        W13104   2.395  13.778  25.375
12241W        W13105   1.551  12.966  25.293
12242W        W13106   1.637  12.833  24.794
12243W        W13107   0.190  12.158  25.541
12244W        W13108   2.789  13.615  25.089
12245W        W13109   0.443  11.117  22.883
12246W        W13110   1.040  13.471  24.074
12247W        W13111   3.491  13.331  23.488
12248W        W13112   3.028  11.645  23.839
12249W        W13113   3.233  11.592  21.929
12250W        W13114   3.610  12.448  24.324
12251W        W13115   1.667  14.137  24.085
12252W        W13116   3.011  14.050  22.153
12253W        W13117   0.518  14.685  22.612
12254W        W13118   0.861  14.568  22.990
12255W        W13119   0.782  11.333  24.232
12256W        W13120   3.245  12.169  24.606
12257W        W13121   2.418  12.595  23.153
12258W        W13122   2.563  12.259  21.869
12259W        W13123   1.940  13.555  24.049
12260W        W13124   1.687  11.826  23.409
12261W        W13125   2.199  14.039  24.445
12262W        W13126   2.875  12.803  23.158
12263W        W13127   2.188  11.338  22.765
12264W        W13128   0.738  14.203  22.620
12265W        W13129   0.182  11.502  23.100
12266W        W13130   2.577  12.279  23.521
12267W        W13131   0.415  13.810  23.527
12268W        W13132   1.514  13.751  22.336
12269W        W13133   3.042  12.067  21.851
12270W        W13134   0.292  13.992  24.209
12271W        W13135   1.053  13.607  24.646
12272W        W13136   1.246  12.922  22.997
12273W        W13137   1.315  11.313  24.242
12274W        W13138   3.480  10.960  23.794
12275W        W13139   0.788  12.810  22.070
12276W        W13140   0.481  12.041  22.404
12277W        W13141   0.608  13.901  23.056
12278W        W13142   1.502  13.337  23.132
12279W        W13143   2.981  14.159  24.837
12280W        W13144   1.815  11.874  22.475
12281W        W13145   3.184  14.543  23.448
12282W        W13146   2.878  12.197  24.997
12283W        W13147   3.622  13.825  23.371
12284W        W13148   2.181  13.049  24.692
12285W        W13149   0.376  12.441  22.750
12286W        W13150   1.142  13.111  24.412
12287W        W13151   2.257  12.328  22.696
12288W        W13152   1.996  12.742  22.875
12289W        W13153   0.713  12.215  24.214
12290W        W13154   0.598  12.167  25.213
12291W        W13155   0.469  11.118  23.404
12292W        W13156   2.091  11.414  24.075
12293W        W13157   1.747  11.433  25.401
12294W        W13158   2.404  11.380  22.290
12295W        W13159   3.406  13.982  25.105
12296W        W13160   2.283  11.069  25.024
12297W        W13161   3.262  13.458  25.205
12298W        W13162   2.898  11.735  24.721
12299W        W13163   2.489  11.580  23.099
12300W        W13164   2.936  12.611  25.347
12301W        W13165   0.663  14.304  23.381
12302W        W13166   1.291  11.978  22.492
12303W        W13167   0.868  11.033  25.020
12304W        W13168   2.899  11.774  22.866
12305W        W13169   3.236  12.140  22.783
12306W        W13170   1.282  14.533  25.117
12307W        W13171   1.018  10.990  22.449
12308W        W13172   3.354  11.390  23.518
12309W        W13173   3.364  13.778  21.879
12310W        W13174   0.356  13.075  23.650
12311W        W13175   2.363  11.390  21.771
12312W        W13176   3.453  13.915  23.850
12313W        W13177   3.442  11.108  24.333
12314W        W13178   2.010  12.250  24.938
12315W        W13179   1.790  13.432  22.699
12316W        W13180   2.452  12.753  25.559
12317W        W13181   2.035  11.114  23.630
12318W        W13182   0.849  11.943  23.636
12319W        W13183   0.386  13.161  24.561
12320W        W13184   2.143  14.258  23.420
12321W        W13185   3.347  12.045  24.122
12322W        W13186   2.127  14.396  24.823
12323W        W13187   3.212  12.954  21.900
12324W        W13188   1.574  12.542  23.122
12325W        W13189   3.588  11.094  24.845
12326W        W13190   1.862  13.090  24.299
12327W        W13191   1.952  11.887  23.877
12328W        W13192   2.799  12.455  22.765
12329W        W13193   2.811  12.150  22.344
12330W        W13194   3.290  14.022  22.622
12331W        W13195   2.651  13.356  23.840
12332W        W13196   2.464  12.585  22.295
12333W        W13197   2.005  12.742  23.432
12334W        W13198   2.977  12.628  23.641
12335W        W13199   0.535  11.783  24.002
12336W        W13200   3.003  12.693  24.830
12337W        W13201   3.520  14.406  24.184
12338W        W13202   1.412  13.809  23.384
12339W        W13203   2.579  14.379  24.586
12340W        W13204   2.457  11.664  24.387
12341W        W13205   1.694  14.435  24.515
12342W        W13206   3.189  11.344  22.996
12343W        W13207   3.126  12.519  24.173
12344W        W13208   0.298  12.021  24.442
12345W        W13209   2.796  11.817  23.416
12346W        W13210   3.285  11.888  25.038
12347W        W13211   2.249  13.583  23.584
12348W        W13212   1.601  14.202  23.106
12349W        W13213   1.723  11.008  24.035
12350W        W13214   0.825  14.192  22.048
12351W        W13215   1.078  12.860  22.510
12352W        W13216   1.807  13.300  24.975
12353W        W13217   1.698  11.495  22.869
12354W        W13218   2.839  11.280  23.361
12355W        W13219   2.682  14.505  23.655
12356W        W13220   2.153  14.183  23.940
12357W        W13221   1.465  13.146  23.975
12358W        W13222   3.256  13.977  24.324
12359W        W13223   0.887  11.373  22.797
12360W        W13224   1.465  13.676  23.897
12361W        W13225   1.054  11.466  21.924
12362W        W13226   1.727  12.274  24.126
12363W        W13227   2.574  11.235  24.083
12364W        W13228   0.125  13.071  24.117
12365W        W13229   1.540  12.828  22.088
12366W        W13230   1.040  10.944  21.921
12367W        W13231   1.599  12.033  22.931
12368W        W13232   2.582  11.182  24.593
12369W        W13233   1.310  13.224  24.894
12370W        W13234   2.054  12.771  25.114
12371W        W13235   2.570  12.922  25.047
12372W        W13236   1.223  11.610  23.564
12373W        W13237   0.685  11.645  23.231
12374W        W13238   0.361  14.344  22.961
12375W        W13239   1.994  13.801  25.013
12376W        W13240   0.763  13.324  22.373
12377W        W13241   2.480  12.758  23.670
12378W        W13242   2.658  12.405  24.009
12379W        W13243   1.817  12.741  23.918
12380W        W13244   2.387  13.296  21.949
12381W        W13245   2.019  11.472  23.275
12382W        W13246   3.388  11.668  22.657
12383W        W13247   0.381  14.405  24.982
12384W        W13248   0.616  13.614  24.379
12385W        W13249   0.030  14.481  22.585
12386W        W13250   1.975  11.880  24.533
12387W        W13251   1.052  13.708  22.102
12388W        W13252   3.257  14.459  22.331
12389W        W13253   1.931  12.564  22.336
12390W        W13254   0.858  11.917  22.796
12391W        W13255   2.036  11.691  22.016
12392W        W13256   2.302  13.366  25.085
12393W        W13257   2.731  11.302  22.729
12394W        W13258   0.193  11.189  22.148
12395W        W13259   1.511  13.473  24.402
12396W        W13260   1.220  13.361  23.560
12397W        W13261   0.774  13.290  21.879
12398W        W13262   0.198  13.970  22.616
12399W        W13263   0.775  12.640  25.074
12400W        W13264   1.310  11.256  25.172
12401W        W13265   2.084  11.349  24.598
12402W        W13266   1.331  11.115  22.897
12403W        W13267   2.162  10.945  22.384
12404W        W13268   0.386  11.159  23.937
12405W        W13269   0.350  12.075  23.475
12406W        W13270   3.005  11.133  23.826
12407W        W13271   0.451  11.586  22.639
12408W        W13272   3.003  11.431  24.301
12409W        W13273   3.417  12.447  21.897
12410W        W13274   0.782  11.412  23.725
12411W        W13275   1.964  11.662  25.001
12412W        W13276   0.154  11.691  22.199
12413W        W13277   0.823  13.091  24.813
12414W        W13278   2.166  12.363  23.812
12415W        W13279   1.807  14.200  22.252
12416W        W13280   0.312  13.007  22.083
12417W        W13281   0.994  13.569  25.158
12418W        W13282   0.575  12.675  24.573
12419W        W13283   1.466  12.722  24.307
12420W        W13284   3.065  11.154  24.727
12421W        W13285   3.593  12.764  24.744
12422W        W13286   3.229  12.512  22.431
12423W        W13287   2.113  13.044  22.449
12424W        W13288   2.922  14.527  21.887
12425W        W13289   2.069  12.397  25.488
12426W        W13290   0.368  13.490  25.524
12427W        W13291   3.690  11.399  25.247
12428W        W13292   3.020  12.144  23.749
12429W        W13293   1.701  14.489  25.428
12430W        W13294   1.462  11.081  22.182
12431W        W13295   2.866  13.592  21.908
12432W        W13296   0.894  11.788  25.019
12433W        W13297   1.472  13.713  24.953
12434W        W13298   3.386  11.557  24.641
12435W        W13299   2.763  14.630  22.383
12436W        W13300   2.812  12.920  24.042
12437W        W13301   1.061  11.406  24.702
12438W        W13302   1.614  12.459  25.193
12439W        W13303   0.960  13.747  22.624
12440W        W13304   2.512  12.888  22.743
12441W        W13305   0.728  11.757  24.509
12442W        W13306   1.871  13.709  23.164
12443W        W13307   3.499  12.279  23.303
12444W        W13308   1.786  11.110  24.955
12445W        W13309   2.915  13.834  23.953
12446W        W13310   3.111  14.318  23.894
12447W        W13311   2.031  13.732  22.144
12448W        W13312   0.256  13.844  25.182
12449W        W13313   1.051  11.758  24.098
12450W        W13314   0.995  11.228  23.294
12451W        W13315   2.494  11.911  23.890
12452W        W13316   1.218  13.218  22.174
12453W        W13317   3.311  12.934  23.904
12454W        W13318   0.719  13.900  25.439
12455W        W13319   3.124  14.601  22.838
12456W        W13320   1.241  11.652  23.049
12457W        W13321   0.822  13.029  23.334
12458W        W13322   1.253  14.426  24.240
12459W        W13323   3.314  14.493  25.142
12460W        W13324   2.311  12.757  24.169
12461W        W13325   0.361  12.519  22.239
12462W        W13326   3.380  14.212  23.104
12463W        W13327   2.943  11.637  22.368
12464W        W13328   1.343  10.982  24.732
12465W        W13329   3.093  14.014  23.486
12466W        W13330   2.992  12.279  23.225
12467W        W13331   1.261  12.103  23.335
12468W        W13332   1.552  12.305  24.667
12469W        W13333   2.553  13.469  24.662
12470W        W13334   1.218  11.896  24.626
12471W        W13335   1.201  14.442  23.371
12472W        W13336   0.813  14.403  25.294
12473W        W13337   0.548  13.793  22.262
12474W        W13338   3.211  13.645  23.133
12475W        W13339   0.764  12.220  24.722
12476W        W13340   3.332  12.007  22.264
12477W        W13341   1.260  13.332  22.665
12478W        W13342   2.364  12.575  24.696
12479W        W13343   2.282  12.218  24.298
12480W        W13344   0.951  12.679  24.220
12481W        W13345   3.033  14.455  24.370
12482W        W13346   2.751  11.179  25.179
12483W        W13347   0.556  11.296  24.712
12484W        W13348   0.841  12.433  23.772
12485W        W13349   1.111  11.977  22.002
12486W        W13350   0.330  13.975  24.699
12487W        W13351   1.337  12.552  23.842
12488W        W13352   1.523  11.665  22.085
12489W        W13353   0.808  12.662  22.935
12490W        W13354   0.398  14.527  24.464
12491W        W13355   2.924  12.557  22.032
12492W        W13356   3.200  11.403  25.138
12493W        W13357   2.784  13.599  23.421
12494W        W13358   0.395  12.631  25.415
12495W        W13359   3.230  11.210  22.454
12496W        W13360   2.813  13.297  22.983
12497W        W13361   1.430  12.481  22.476
12498W        W13362   2.833  11.278  21.993
12499W        W13363   2.866  11.950  24.241
12500W        W13364   0.506  12.617  23.438
12501W        W13365   1.015  13.549  23.112
12502W        W13366   2.534  12.091  23.045
12503W        W13367   1.642  11.472  23.818
12504W        W13368   3.457  13.490  24.336
12505W        W13369   3.506  11.552  24.079
12506W        W13370   0.097  14.185  23.369
12507W        W13371   0.479  13.550  22.727
12508W        W13372   0.617  11.418  25.247
12509W        W13373   1.664  13.920  25.414
12510W        W13374   3.417  12.784  23.431
12511W        W13375   2.754  13.018  22.196
12512W        W13376   2.154  14.563  24.314
12513W        W13377   2.908  13.123  25.382
12514W        W13378   1.687  10.897  22.599
12515W        W13379   2.232  11.908  23.438
12516W        W13380   0.320  13.529  23.960
12517W        W13381   1.320  11.457  22.513
12518W        W13382   1.024  13.076  25.303
12519W        W13383   2.084  11.843  22.919
12520W        W13384   2.356  13.263  24.243
12521W        W13385   0.785  14.016  24.930
12522W        W13386   1.197  14.043  25.236
12523W        W13387   0.869  11.672  22.351
12524W        W13388   2.468  11.810  22.577
12525W        W13389   2.468  13.970  24.893
12526W        W13390   1.107  12.596  23.368
12527W        W13391   0.770  14.150  24.418
12528W        W13392   3.374  14.295  21.859
12529W        W13393   0.503  13.102  25.221
12530W        W13394   2.142  13.123  23.797
12531W        W13395   0.804  13.174  22.855
12532W        W13396   1.215  13.916  24.270
12533W        W13397   1.535  11.265  23.351
12534W        W13398   0.125  13.479  22.367
12535W        W13399   1.623  12.193  22.095
12536W        W13400   0.375  12.898  23.021
12537W        W13401   1.575  11.491  24.676
12538W        W13402   3.332  11.079  21.960
12539W        W13403   3.367  12.924  25.193
12540W        W13404   2.130  14.229  25.315
12541W        W13405   3.540  13.279  24.795
12542W        W13406   2.942  14.055  25.339
12543W        W13407   0.829  14.393  23.944
12544W        W13408   3.278  13.124  23.083
12545W        W13409   2.017  12.283  23.166
12546W        W13410   1.880  11.025  23.068
12547W        W13411   1.076  14.095  23.023
12548W        W13412   1.560  11.785  24.241
12549W        W13413   1.251  11.091  23.757
12550W        W13414   0.374  14.299  22.269
12551W        W13415   1.998  13.189  23.162
12552W        W13416   1.241  14.177  24.714
12553W        W13417   0.558  12.879  22.530
12554W        W13418   0.284  11.569  23.610
12555W        W13419   1.749  13.385  23.582
12556W        W13420   0.018  11.323  22.626
12557W        W13421   2.773  12.367  24.510
12558W        W13422   2.576  11.786  22.043
12559W        W13423   3.211  13.437  23.889
12560W        W13424   1.845  13.901  23.647
12561W        W13425   1.365  14.211  22.594
12562W        W13426   2.408  10.902  21.909
12563W        W13427   0.377  14.250  23.791
12564W        W13428   2.315  11.952  25.290
12565W        W13429   0.605  11.815  25.596
12566W        W13430   0.377  11.981  22.964
12567W        W13431   0.864  12.391  22.453
12568W        W13432   2.461  12.429  25.158
12569W        W13433   1.010  12.955  23.798
12570W        W13434   2.371  11.097  23.212
12571W        W13435   1.672  14.391  23.617
12572W        W13436   2.755  13.895  24.455
12573W        W13437   2.553  14.011  23.631
12574W        W13438   2.486  13.153  23.360
12575W        W13439   1.847  11.362  22.374
12576W        W13440   3.563  10.998  23.004
12577W        W13441   1.178  12.488  22.007
12578W        W13442   3.279  11.813  23.196
12579W        W13443   2.021  12.930  21.953
12580W        W13444   2.990  13.202  24.852
12581W        W13445   2.542  14.181  21.984
12582W        W13446   1.414  11.763  25.097
12583W        W13447   1.226  12.247  24.257
12584W        W13448   3.164  13.675  24.731
12585W        W13449   2.460  11.554  24.921
12586W        W13450   0.264  12.319  24.852
12587W        W13451   1.932  12.591  24.460
12588W        W13452   0.459  13.384  23.220
12589W        W13453   0.462  12.672  24.046
12590W        W13454   2.670  12.957  24.527
12591W        W13455   2.588  14.433  25.110
12592W        W13456   2.446  12.041  24.764
12593W        W13457   2.798  14.340  23.178
12594W        W13458   1.698  13.926  24.552
12595W        W13459   1.246  14.136  23.788
12596W        W13460   2.911  13.405  24.306
12597W        W13461   1.949  13.488  25.447
12598W        W13462   0.730  13.424  23.667
12599W        W13463   2.999  13.133  23.527
12600W        W13464   2.630  14.246  24.098
12601W        W13465   0.739  13.883  23.957
12602W        W13466   1.790  11.988  25.356
12603W        W13467   1.859  13.966  22.699
12604W        W13468   1.416  13.450  25.407
12605W        W13469   1.426  13.768  22.865
12606W        W13470   0.704  12.288  21.955
12607W        W13471   0.213  14.625  28.806
12608W        W13472   0.566  13.411  28.454
12609W        W13473   3.122  12.756  26.291
12610W        W13474   3.440  14.215  28.207
12611W        W13475   1.239  14.381  25.628
12612W        W13476   1.210  12.371  26.533
12613W        W13477   0.754  12.253  26.788
12614W        W13478   1.736  12.990  26.067
12615W        W13479   1.582  14.232  28.355
12616W        W13480   0.176  11.665  28.436
12617W        W13481   0.850  10.873  28.218
12618W        W13482   2.578  11.449  27.259
12619W        W13483   2.269  12.136  25.930
12620W        W13484   2.818  11.579  28.773
12621W        W13485   0.255  11.466  27.977
12622W        W13486   0.453  14.167  28.890
12623W        W13487   1.625  13.595  25.856
12624W        W13488   0.319  12.316  27.453
12625W        W13489   1.132  12.288  28.807
12626W        W13490   3.476  12.145  27.277
12627W        W13491   3.418  12.941  28.046
12628W        W13492   1.641  12.421  27.158
12629W        W13493   2.282  13.659  27.605
12630W        W13494   0.655  13.185  27.802
12631W        W13495   0.008  12.745  27.267
12632W        W13496   1.253  12.573  28.375
12633W        W13497   3.441  12.372  28.767
12634W        W13498   0.979  13.854  27.097
12635W        W13499   2.121  13.575  28.087
12636W        W13500   1.399  12.069  27.480
12637W        W13501   1.517  12.992  27.147
12638W        W13502   2.301  13.865  28.946
12639W        W13503   1.701  13.048  28.894
12640W        W13504   1.713  12.858  28.416
12641W        W13505   0.133  12.001  28.873
12642W        W13506   2.765  13.713  28.744
12643W        W13507   0.517  11.213  26.723
12644W        W13508   1.069  13.510  27.760
12645W        W13509   3.568  13.325  27.128
12646W        W13510   2.757  11.781  27.615
12647W        W13511   3.359  11.680  25.544
12648W        W13512   3.758  12.502  27.991
12649W        W13513   1.538  14.305  27.692
12650W        W13514   3.414  14.197  26.142
12651W        W13515   0.582  14.637  26.142
12652W        W13516   0.902  14.498  26.512
12653W        W13517   0.761  11.342  27.997
12654W        W13518   3.437  12.201  28.273
12655W        W13519   2.426  12.631  26.769
12656W        W13520   2.636  12.264  25.601
12657W        W13521   1.798  13.539  27.656
12658W        W13522   1.633  11.813  27.033
12659W        W13523   2.375  14.031  27.962
12660W        W13524   2.919  12.769  26.829
12661W        W13525   2.164  11.417  26.443
12662W        W13526   0.711  14.095  26.271
12663W        W13527   0.168  11.573  26.680
12664W        W13528   2.624  12.380  27.187
12665W        W13529   0.468  13.884  27.218
12666W        W13530   1.617  14.139  25.869
12667W        W13531   3.111  12.129  25.465
12668W        W13532   0.312  13.964  27.717
12669W        W13533   1.033  13.574  28.291
12670W        W13534   1.248  13.088  26.703
12671W        W13535   1.288  11.361  27.855
12672W        W13536   3.567  11.219  27.402
12673W        W13537   0.801  12.862  25.734
12674W        W13538   0.511  12.088  26.037
12675W        W13539   0.567  13.909  26.720
12676W        W13540   1.407  13.584  26.731
12677W        W13541   2.989  14.119  28.480
12678W        W13542   1.932  11.881  26.237
12679W        W13543   3.229  14.626  27.039
12680W        W13544   2.971  12.369  28.426
12681W        W13545   3.664  13.879  26.866
12682W        W13546   2.290  13.037  28.246
12683W        W13547   0.388  12.534  26.446
12684W        W13548   1.137  13.102  28.062
12685W        W13549   2.180  12.308  26.423
12686W        W13550   2.044  12.819  26.461
12687W        W13551   0.676  12.220  27.824
12688W        W13552   0.631  12.151  28.767
12689W        W13553   0.667  11.014  27.197
12690W        W13554   2.220  11.602  27.609
12691W        W13555   1.846  11.549  28.770
12692W        W13556   2.334  11.378  25.949
12693W        W13557   3.486  14.021  28.709
12694W        W13558   2.342  11.057  28.609
12695W        W13559   3.247  13.571  28.819
12696W        W13560   3.027  11.829  28.339
12697W        W13561   2.566  11.587  26.762
12698W        W13562   3.029  12.611  28.949
12699W        W13563   0.741  14.315  26.995
12700W        W13564   1.423  11.985  26.244
12701W        W13565   0.986  11.242  28.590
12702W        W13566   2.965  11.884  26.566
12703W        W13567   3.265  12.235  26.318
12704W        W13568   1.170  14.513  28.939
12705W        W13569   1.008  11.016  26.057
12706W        W13570   3.411  11.656  27.077
12707W        W13571   3.372  13.785  25.583
12708W        W13572   0.426  13.063  27.306
12709W        W13573   2.297  11.446  25.396
12710W        W13574   3.501  13.915  27.364
12711W        W13575   3.506  11.184  27.912
12712W        W13576   2.101  12.096  28.743
12713W        W13577   1.904  13.448  26.287
12714W        W13578   2.567  12.813   0.074
12715W        W13579   2.241  11.091  27.480
12716W        W13580   0.802  11.881  27.226
12717W        W13581   0.427  12.990  28.209
12718W        W13582   2.026  14.214  26.965
12719W        W13583   3.245  11.951  27.863
12720W        W13584   2.089  14.350  28.275
12721W        W13585   3.290  12.958  25.782
12722W        W13586   1.586  12.693  26.712
12723W        W13587   3.648  11.112  28.396
12724W        W13588   1.866  13.132  27.974
12725W        W13589   1.937  12.042  27.375
12726W        W13590   2.803  12.405  26.472
12727W        W13591   2.826  12.075  26.062
12728W        W13592   3.676  13.446  26.605
12729W        W13593   2.608  13.419  27.276
12730W        W13594   2.559  12.543  26.044
12731W        W13595   1.993  12.799  27.030
12732W        W13596   3.028  12.682  27.350
12733W        W13597   0.442  11.780  27.588
12734W        W13598   3.165  12.834  28.495
12735W        W13599   3.502  14.329  27.687
12736W        W13600   1.488  13.998  27.032
12737W        W13601   2.616  14.462  28.280
12738W        W13602   2.469  11.728  28.038
12739W        W13603   1.699  14.636  28.064
12740W        W13604   3.397  11.580  26.537
12741W        W13605   3.162  12.501  27.905
12742W        W13606   0.128  12.030  27.911
12743W        W13607   2.903  11.837  27.102
12744W        W13608   3.419  11.862  28.668
12745W        W13609   2.188  13.718  27.102
12746W        W13610   1.604  14.260  26.605
12747W        W13611   0.818  11.460  25.912
12748W        W13612   1.706  11.130  27.532
12749W        W13613   0.772  14.284  25.800
12750W        W13614   1.268  12.808  26.252
12751W        W13615   1.850  13.352  28.462
12752W        W13616   1.674  11.572  26.556
12753W        W13617   3.015  11.337  26.928
12754W        W13618   2.745  14.587  27.282
12755W        W13619   2.050  14.397  27.742
12756W        W13620   1.443  13.177  27.637
12757W        W13621   3.298  13.858  27.829
12758W        W13622   0.886  11.404  26.427
12759W        W13623   1.379  13.817  27.502
12760W        W13624   1.079  11.604  25.478
12761W        W13625   1.735  12.371  27.708
12762W        W13626   2.637  11.310  27.758
12763W        W13627   0.204  12.935  27.745
12764W        W13628   1.625  12.642  25.687
12765W        W13629   0.919  11.087  25.533
12766W        W13630   1.685  12.162  26.665
12767W        W13631   2.706  11.334  28.315
12768W        W13632   1.348  13.237  28.529
12769W        W13633   2.192  13.024  28.755
12770W        W13634   2.661  12.885  28.578
12771W        W13635   1.960  11.098  28.990
12772W        W13636   1.232  11.622  27.294
12773W        W13637   0.674  11.724  26.758
12774W        W13638   0.358  14.367  26.512
12775W        W13639   1.965  13.870  28.497
12776W        W13640   0.925  13.183  26.146
12777W        W13641   2.533  12.894  27.214
12778W        W13642   2.657  12.575  27.692
12779W        W13643   1.825  12.853  27.539
12780W        W13644   2.441  13.276  25.571
12781W        W13645   2.027  11.489  27.150
12782W        W13646   3.700  11.937  26.286
12783W        W13647   0.377  14.348  28.398
12784W        W13648   0.628  13.662  27.989
12785W        W13649  28.950  14.559  26.222
12786W        W13650   1.943  11.935  27.874
12787W        W13651   1.179  13.866  25.727
12788W        W13652   3.153  14.621  25.982
12789W        W13653   2.063  12.601  25.959
12790W        W13654   0.893  11.968  26.371
12791W        W13655   2.034  11.738  25.728
12792W        W13656   2.363  13.481  28.533
12793W        W13657   2.847  11.557  26.145
12794W        W13658   0.369  11.299  25.727
12795W        W13659   1.507  13.499  28.076
12796W        W13660   1.207  13.403  27.189
12797W        W13661   0.887  13.426  25.671
12798W        W13662   0.224  13.891  26.326
12799W        W13663   0.782  12.675  28.939
12800W        W13664   1.453  11.211  28.801
12801W        W13665   1.845  11.445  28.013
12802W        W13666   1.315  11.190  26.582
12803W        W13667   2.054  10.975  26.147
12804W        W13668   0.279  11.228  27.530
12805W        W13669   0.310  11.959  27.075
12806W        W13670   3.085  11.425  27.434
12807W        W13671   0.465  11.634  26.265
12808W        W13672   3.077  11.469  27.968
12809W        W13673   3.438  12.526  25.548
12810W        W13674   0.801  11.414  27.493
12811W        W13675   1.838  11.870  28.366
12812W        W13676   0.153  11.750  25.866
12813W        W13677   0.881  12.990  28.502
12814W        W13678   2.188  12.522  27.430
12815W        W13679   2.046  14.437  25.818
12816W        W13680   0.299  13.035  25.742
12817W        W13681   0.576  12.576  28.483
12818W        W13682   1.510  12.757  27.963
12819W        W13683   3.104  10.985  28.228
12820W        W13684   3.665  12.720  28.454
12821W        W13685   3.566  12.570  26.052
12822W        W13686   2.279  13.055  26.028
12823W        W13687   2.915  14.546  25.506
12824W        W13688   2.144  12.507   0.070
12825W        W13689   0.250  13.405   0.110
12826W        W13690   3.662  11.445  28.849
12827W        W13691   2.998  12.201  27.489
12828W        W13692   1.658  14.442  28.832
12829W        W13693   1.380  11.226  25.723
12830W        W13694   2.868  13.597  25.595
12831W        W13695   0.661  11.667  28.627
12832W        W13696   1.460  13.761  28.524
12833W        W13697   3.508  11.641  28.214
12834W        W13698   2.640  14.596  26.001
12835W        W13699   2.832  13.083  27.600
12836W        W13700   1.034  11.683  28.256
12837W        W13701   1.672  12.503  28.811
12838W        W13702   1.024  13.694  26.201
12839W        W13703   2.632  12.915  26.395
12840W        W13704   0.564  11.830  28.129
12841W        W13705   1.864  13.796  26.695
12842W        W13706   3.794  12.497  27.034
12843W        W13707   1.848  11.116  28.465
12844W        W13708   2.770  13.784  27.689
12845W        W13709   3.044  14.170  27.466
12846W        W13710   2.064  13.912  25.752
12847W        W13711   0.231  13.706  28.696
12848W        W13712   0.989  11.822  27.740
12849W        W13713   0.977  11.329  26.953
12850W        W13714   2.377  12.124  27.683
12851W        W13715   1.298  13.065  25.768
12852W        W13716   3.363  13.097  27.555
12853W        W13717   0.679  13.682  28.956
12854W        W13718   3.139  14.627  26.509
12855W        W13719   1.210  11.718  26.701
12856W        W13720   0.828  13.093  26.991
12857W        W13721   1.183  14.492  28.010
12858W        W13722   3.244  14.488  28.719
12859W        W13723   2.320  12.978  27.698
12860W        W13724   0.404  12.577  25.927
12861W        W13725   3.537  14.321  26.635
12862W        W13726   3.352  11.433  26.026
12863W        W13727   1.355  11.029  28.297
12864W        W13728   3.205  13.590  26.890
12865W        W13729   3.087  12.293  26.924
12866W        W13730   1.222  12.134  27.000
12867W        W13731   1.721  12.357  28.240
12868W        W13732   2.758  13.748  28.200
12869W        W13733   1.355  12.048  28.417
12870W        W13734   1.241  14.454  26.903
12871W        W13735   0.729  14.581  28.682
12872W        W13736   0.554  13.779  25.912
12873W        W13737   3.285  13.104  26.685
12874W        W13738   0.878  12.196  28.310
12875W        W13739   3.464  12.096  25.847
12876W        W13740   1.401  13.331  26.268
12877W        W13741   2.126  12.573  28.522
12878W        W13742   2.227  12.174  28.207
12879W        W13743   0.851  12.672  28.063
12880W        W13744   3.078  14.631  27.698
12881W        W13745   2.848  11.044  28.737
12882W        W13746   0.496  11.216  28.427
12883W        W13747   0.946  12.335  27.403
12884W        W13748   1.309  12.116  25.497
12885W        W13749   0.231  13.890  28.215
12886W        W13750   1.339  12.641  27.502
12887W        W13751   1.511  11.730  25.758
12888W        W13752   0.834  12.470  26.180
12889W        W13753   0.325  14.491  27.914
12890W        W13754   3.044  12.491  25.860
12891W        W13755   3.224  11.372  28.550
12892W        W13756   2.791  13.281  26.725
12893W        W13757   0.289  12.510  28.917
12894W        W13758   3.242  10.923  25.990
12895W        W13759   3.043  13.255  26.245
12896W        W13760   1.670  12.472  26.254
12897W        W13761   2.920  11.380  25.634
12898W        W13762   2.779  12.145  28.001
12899W        W13763   0.619  12.621  27.110
12900W        W13764   0.916  13.512  26.705
12901W        W13765   2.540  12.102  26.764
12902W        W13766   1.682  11.630  27.539
12903W        W13767   3.575  13.446  27.986
12904W        W13768   3.632  11.643  27.708
12905W        W13769   0.193  14.257  26.973
12906W        W13770   0.548  13.504  26.361
12907W        W13771   0.603  11.270  28.949
12908W        W13772   1.731  13.940  28.958
12909W        W13773   3.425  12.827  27.085
12910W        W13774   2.787  12.974  25.881
12911W        W13775   2.262  14.792  28.048
12912W        W13776   2.983  13.133  28.905
12913W        W13777   1.517  10.948  26.156
12914W        W13778   2.390  11.909  27.205
12915W        W13779   0.195  13.499  27.485
12916W        W13780   1.296  11.493  26.159
12917W        W13781   1.256  12.820  28.820
12918W        W13782   2.093  11.830  26.747
12919W        W13783   2.563  13.357  27.945
12920W        W13784   0.676  13.912  28.488
12921W        W13785   1.153  13.949  28.915
12922W        W13786   1.034  11.923  25.889
12923W        W13787   2.444  11.843  26.321
12924W        W13788   2.446  14.025  28.480
12925W        W13789   1.140  12.652  27.009
12926W        W13790   0.734  14.179  28.045
12927W        W13791   3.373  14.298  25.615
12928W        W13792   0.408  13.006  28.749
12929W        W13793   2.101  13.237  27.307
12930W        W13794   0.837  12.769  26.593
12931W        W13795   1.248  13.966  28.005
12932W        W13796   1.547  11.292  27.035
12933W        W13797   0.141  13.451  26.023
12934W        W13798   1.749  12.172  25.843
12935W        W13799   0.367  12.932  26.792
12936W        W13800   1.486  11.512  28.389
12937W        W13801   3.378  11.151  25.558
12938W        W13802   3.494  12.954  28.871
12939W        W13803   2.155  14.342  28.799
12940W        W13804   3.449  13.263  28.460
12941W        W13805   3.068  14.037  28.994
12942W        W13806   0.809  14.541  27.658
12943W        W13807   3.795  12.989  26.778
12944W        W13808   2.102  12.294  26.962
12945W        W13809   1.814  11.068  26.619
12946W        W13810   1.110  14.017  26.625
12947W        W13811   1.457  11.839  27.965
12948W        W13812   1.204  11.113  27.394
12949W        W13813   0.289  14.254  25.986
12950W        W13814   1.768  13.199  26.732
12951W        W13815   1.075  14.232  28.464
12952W        W13816   0.464  13.005  26.255
12953W        W13817   0.449  11.484  27.138
12954W        W13818   1.703  13.533  27.151
12955W        W13819   0.043  11.346  26.178
12956W        W13820   2.541  12.564  28.202
12957W        W13821   2.575  11.766  25.722
12958W        W13822   3.148  13.553  27.432
12959W        W13823   1.868  14.000  27.421
12960W        W13824   1.196  14.220  26.150
12961W        W13825   2.429  10.984  25.563
12962W        W13826   0.399  14.361  27.418
12963W        W13827   2.499  11.931   0.020
12964W        W13828   0.519  11.787   0.157
12965W        W13829   0.335  12.051  26.556
12966W        W13830   1.265  12.385  25.936
12967W        W13831   2.558  12.397  28.748
12968W        W13832   0.993  13.011  27.460
12969W        W13833   2.329  11.140  26.922
12970W        W13834   1.651  14.459  27.206
12971W        W13835   2.944  14.191  27.977
12972W        W13836   2.376  14.140  27.406
12973W        W13837   2.296  13.151  26.811
12974W        W13838   1.792  11.403  26.052
12975W        W13839   3.544  11.193  26.869
12976W        W13840   1.171  12.609  25.440
12977W        W13841   3.529  12.065  26.761
12978W        W13842   1.990  12.988  25.588
12979W        W13843   2.917  13.317  28.429
12980W        W13844   2.535  14.190  25.651
12981W        W13845   1.174  11.700  28.790
12982W        W13846   1.217  12.306  27.914
12983W        W13847   3.257  13.719  28.320
12984W        W13848   2.218  11.524  28.425
12985W        W13849   0.263  12.175  28.408
12986W        W13850   2.067  12.639  27.987
12987W        W13851   0.449  13.439  26.924
12988W        W13852   0.626  12.691  27.615
12989W        W13853   2.872  12.927  28.081
12990W        W13854   2.678  14.342  28.812
12991W        W13855   2.559  11.938  28.506
12992W        W13856   3.211  14.111  26.981
12993W        W13857   1.817  13.969  27.970
12994W        W13858   1.150  14.268  27.363
12995W        W13859   3.076  13.393  27.935
12996W        W13860   1.987  13.466  28.940
12997W        W13861   0.728  13.472  27.372
12998W        W13862   3.043  13.155  27.143
12999W        W13863   2.569  14.468  27.758
13000W        W13864   0.830  13.947  27.595
13001W        W13865   1.605  11.992  28.858
13002W        W13866   1.966  14.124  26.252
13003W        W13867   1.450  13.497  28.978
13004W        W13868   1.518  13.845  26.298
13005W        W13869   0.792  12.331  25.663
13006W        W13870   0.199  18.306   3.315
13007W        W13871   0.533  17.081   2.943
13008W        W13872   3.130  16.765   0.729
13009W        W13873   3.438  17.850   2.616
13010W        W13874   1.435  17.857   0.331
13011W        W13875   1.103  16.225   1.104
13012W        W13876   0.707  16.045   1.412
13013W        W13877   1.611  16.553   0.679
13014W        W13878   1.638  17.787   3.090
13015W        W13879   0.293  15.413   3.087
13016W        W13880   0.780  14.662   2.535
13017W        W13881   2.691  14.919   1.810
13018W        W13882   2.305  15.727   0.505
13019W        W13883   2.776  15.391   3.323
13020W        W13884   0.164  15.209   2.492
13021W        W13885   0.403  17.858   3.436
13022W        W13886   1.791  16.981   0.296
13023W        W13887   0.188  15.865   1.971
13024W        W13888   1.147  15.827   3.176
13025W        W13889   3.448  15.488   1.814
13026W        W13890   3.300  16.643   2.532
13027W        W13891   1.729  16.026   1.612
13028W        W13892   2.231  17.395   2.063
13029W        W13893   0.554  16.732   2.148
13030W        W13894  28.975  16.313   1.904
13031W        W13895   1.160  16.300   2.913
13032W        W13896   3.287  16.041   3.145
13033W        W13897   0.956  17.404   1.651
13034W        W13898   1.960  17.233   2.756
13035W        W13899   1.354  15.761   1.877
13036W        W13900   1.607  16.592   1.656
13037W        W13901   2.465  17.495   3.407
13038W        W13902   1.614  16.666   3.537
13039W        W13903   1.646  16.485   3.023
13040W        W13904   0.303  15.678   3.557
13041W        W13905   2.805  17.314   3.067
13042W        W13906   0.462  14.834   1.147
13043W        W13907   0.959  17.103   2.116
13044W        W13908   3.436  16.947   1.539
13045W        W13909   2.611  15.254   2.202
13046W        W13910   3.125  15.293   0.077
13047W        W13911   3.550  16.171   2.436
13048W        W13912   1.617  17.753   2.147
13049W        W13913   3.279  17.266   0.855
13050W        W13914   0.582  18.297   0.658
13051W        W13915   0.909  18.152   1.033
13052W        W13916   0.670  15.140   2.371
13053W        W13917   3.168  15.876   2.642
13054W        W13918   2.715  16.136   1.137
13055W        W13919   2.665  15.988   0.252
13056W        W13920   1.777  17.266   2.272
13057W        W13921   1.675  15.408   1.447
13058W        W13922   2.066  17.691   2.474
13059W        W13923   3.162  16.355   1.022
13060W        W13924   2.244  14.976   1.017
13061W        W13925   0.722  17.805   0.706
13062W        W13926   0.186  15.266   1.219
13063W        W13927   2.763  15.725   1.899
13064W        W13928   0.420  17.432   1.558
13065W        W13929   1.727  17.633   0.717
13066W        W13930   2.930  15.748  28.894
13067W        W13931   0.222  17.598   2.316
13068W        W13932   0.938  17.307   2.736
13069W        W13933   1.309  16.678   1.241
13070W        W13934   1.112  14.931   2.206
13071W        W13935   3.649  14.598   1.702
13072W        W13936   0.706  16.457   0.249
13073W        W13937   0.530  15.564   0.404
13074W        W13938   0.539  17.446   1.042
13075W        W13939   1.585  17.104   1.420
13076W        W13940   2.977  17.783   2.858
13077W        W13941   2.026  15.399   0.793
13078W        W13942   3.342  18.071   1.536
13079W        W13943   2.818  15.826   3.035
13080W        W13944   3.618  17.353   1.243
13081W        W13945   2.093  16.727   2.857
13082W        W13946   0.279  15.972   0.601
13083W        W13947   0.884  16.834   2.545
13084W        W13948   2.327  15.848   0.993
13085W        W13949   2.222  16.322   1.161
13086W        W13950   0.597  15.882   2.287
13087W        W13951   0.591  15.822   3.156
13088W        W13952   0.578  14.647   1.605
13089W        W13953   2.176  14.995   2.218
13090W        W13954   1.908  15.210   3.282
13091W        W13955   2.377  15.048   0.525
13092W        W13956   3.429  17.635   3.102
13093W        W13957   2.173  14.762   3.235
13094W        W13958   3.261  17.111   3.222
13095W        W13959   2.817  15.333   2.777
13096W        W13960   2.620  15.147   1.328
13097W        W13961   2.847  16.258   3.326
13098W        W13962   0.718  17.872   1.579
13099W        W13963   1.492  15.487   0.849
13100W        W13964   1.001  14.955   3.167
13101W        W13965   2.999  15.441   1.105
13102W        W13966   3.311  15.767   0.840
13103W        W13967   1.319  18.184   3.031
13104W        W13968   1.101  14.561   0.597
13105W        W13969   3.429  15.038   1.561
13106W        W13970   3.525  17.405   0.284
13107W        W13971   0.226  16.724   1.710
13108W        W13972   2.442  15.106   0.023
13109W        W13973   3.525  17.593   1.707
13110W        W13974   3.403  14.663   2.413
13111W        W13975   1.838  16.085   3.364
13112W        W13976   1.756  17.057   0.831
13113W        W13977   2.500  16.536   3.652
13114W        W13978   2.215  14.662   1.809
13115W        W13979   0.968  15.614   1.562
13116W        W13980   0.349  16.715   2.632
13117W        W13981   2.096  17.896   1.457
13118W        W13982   3.098  15.372   2.190
13119W        W13983   2.095  17.990   2.908
13120W        W13984   3.205  16.664   0.242
13121W        W13985   1.655  16.293   1.167
13122W        W13986   3.503  14.754   2.908
13123W        W13987   1.696  16.800   2.565
13124W        W13988   1.835  15.585   1.908
13125W        W13989   2.799  15.814   0.739
13126W        W13990   3.149  15.763   0.348
13127W        W13991   2.857  17.580   0.977
13128W        W13992   2.887  16.964   1.679
13129W        W13993   2.478  16.240   0.662
13130W        W13994   2.097  16.415   1.667
13131W        W13995   3.060  16.165   1.778
13132W        W13996   0.362  15.403   2.066
13133W        W13997   2.998  16.331   2.823
13134W        W13998   3.399  17.940   2.085
13135W        W13999   1.404  17.588   1.482
13136W        W14000   2.529  17.930   2.623
13137W        W14001   2.321  15.411   2.592
13138W        W14002   1.667  18.096   2.641
13139W        W14003   3.338  15.052   1.056
13140W        W14004   3.025  16.272   2.300
13141W        W14005   0.110  15.763   2.464
13142W        W14006   2.987  15.326   1.640
13143W        W14007   3.242  15.525   3.012
13144W        W14008   2.173  17.188   1.494
13145W        W14009   1.624  17.938   1.168
13146W        W14010   0.643  15.045   0.474
13147W        W14011   1.812  14.623   2.160
13148W        W14012   0.926  17.771   0.244
13149W        W14013   1.086  16.428   0.620
13150W        W14014   1.743  16.975   3.148
13151W        W14015   1.727  15.051   1.058
13152W        W14016   3.007  14.764   1.396
13153W        W14017   2.509  18.122   1.736
13154W        W14018   2.096  17.909   1.997
13155W        W14019   1.441  16.831   2.098
13156W        W14020   3.159  17.543   2.300
13157W        W14021   0.909  14.956   0.923
13158W        W14022   1.395  17.328   1.932
13159W        W14023   0.927  15.380   0.108
13160W        W14024   1.633  15.813   2.345
13161W        W14025   2.530  14.617   2.220
13162W        W14026   0.035  16.734   2.195
13163W        W14027   1.615  16.164   0.289
13164W        W14028   1.094  14.932   0.250
13165W        W14029   1.832  15.803   1.092
13166W        W14030   2.524  14.921   2.644
13167W        W14031   1.268  16.835   2.915
13168W        W14032   2.080  16.555   3.349
13169W        W14033   2.534  16.532   3.013
13170W        W14034   1.925  14.952   3.728
13171W        W14035   1.264  15.234   1.758
13172W        W14036   0.712  15.228   1.352
13173W        W14037   0.433  17.972   1.098
13174W        W14038   1.971  17.432   3.245
13175W        W14039   0.794  16.897   0.529
13176W        W14040   2.563  16.181   1.629
13177W        W14041   2.528  16.121   2.162
13178W        W14042   1.885  16.580   2.116
13179W        W14043   2.314  16.909   0.271
13180W        W14044   2.044  15.027   1.508
13181W        W14045   3.676  15.366   0.811
13182W        W14046   0.371  17.974   2.941
13183W        W14047   0.535  17.199   2.437
13184W        W14048   0.094  18.148   0.750
13185W        W14049   1.864  15.357   2.376
13186W        W14050   1.422  17.308   0.470
13187W        W14051   3.203  17.720   0.589
13188W        W14052   1.964  16.158   0.714
13189W        W14053   0.914  15.711   1.033
13190W        W14054   2.045  15.357   0.244
13191W        W14055   2.291  17.024   3.239
13192W        W14056   2.845  14.962   0.894
13193W        W14057   0.258  14.707   0.321
13194W        W14058   1.332  17.135   2.490
13195W        W14059   1.177  16.924   1.672
13196W        W14060   1.009  17.228   0.184
13197W        W14061   0.214  17.655   0.697
13198W        W14062   0.842  16.237   3.326
13199W        W14063   1.465  14.966   3.450
13200W        W14064   1.978  15.029   2.782
13201W        W14065   1.313  14.680   1.081
13202W        W14066   2.174  14.580   0.672
13203W        W14067   0.412  14.767   2.119
13204W        W14068   0.443  15.598   1.588
13205W        W14069   3.168  14.688   1.902
13206W        W14070   0.564  15.339   0.875
13207W        W14071   2.951  14.896   2.317
13208W        W14072   3.433  16.181   0.207
13209W        W14073   0.770  15.081   1.861
13210W        W14074   1.849  15.535   2.854
13211W        W14075   0.164  15.221   0.264
13212W        W14076   0.779  16.639   3.002
13213W        W14077   1.996  16.078   2.068
13214W        W14078   1.952  17.928   0.362
13215W        W14079   0.214  16.542   0.114
13216W        W14080   0.945  17.152   3.226
13217W        W14081   0.501  16.232   2.849
13218W        W14082   1.276  16.509   2.463
13219W        W14083   2.980  14.676   2.781
13220W        W14084   3.585  16.401   2.899
13221W        W14085   3.518  16.430   0.645
13222W        W14086   2.160  16.666   0.756
13223W        W14087   3.010  18.082   0.253
13224W        W14088   2.117  16.188   3.771
13225W        W14089   0.390  17.035   3.719
13226W        W14090   3.621  15.110   3.283
13227W        W14091   3.240  15.850   2.128
13228W        W14092   1.662  18.174   3.418
13229W        W14093   1.541  14.695   0.287
13230W        W14094   3.048  17.149   0.378
13231W        W14095   0.875  15.426   3.015
13232W        W14096   1.386  17.338   3.027
13233W        W14097   3.285  15.137   2.634
13234W        W14098   2.730  18.170   0.681
13235W        W14099   2.743  16.552   1.959
13236W        W14100   1.079  15.108   2.675
13237W        W14101   1.359  16.232   3.389
13238W        W14102   0.959  17.357   0.720
13239W        W14103   2.681  16.617   0.973
13240W        W14104   0.526  15.537   2.659
13241W        W14105   1.864  17.485   1.202
13242W        W14106   3.601  15.935   1.569
13243W        W14107   1.689  14.687   3.083
13244W        W14108   2.742  17.316   2.020
13245W        W14109   3.011  17.719   1.821
13246W        W14110   2.109  17.399   0.418
13247W        W14111   0.284  17.343   3.319
13248W        W14112   0.910  15.524   2.084
13249W        W14113   1.033  14.852   1.485
13250W        W14114   2.292  15.655   2.134
13251W        W14115   1.292  16.802   0.319
13252W        W14116   3.248  16.699   1.983
13253W        W14117   0.712  17.485   3.576
13254W        W14118   3.140  18.227   0.993
13255W        W14119   1.228  15.252   1.220
13256W        W14120   0.866  16.542   1.507
13257W        W14121   1.257  18.072   2.354
13258W        W14122   3.279  18.120   3.207
13259W        W14123   2.218  16.413   2.460
13260W        W14124   0.399  16.015   0.108
13261W        W14125   3.319  17.759   1.103
13262W        W14126   3.157  15.311   0.619
13263W        W14127   1.232  14.631   2.834
13264W        W14128   3.123  17.392   1.428
13265W        W14129   3.139  15.915   1.325
13266W        W14130   1.362  15.802   1.288
13267W        W14131   1.586  15.981   2.917
13268W        W14132   2.491  17.034   2.760
13269W        W14133   1.306  15.592   2.720
13270W        W14134   1.201  18.067   1.437
13271W        W14135   0.811  18.096   3.190
13272W        W14136   0.553  17.397   0.383
13273W        W14137   3.057  16.932   1.193
13274W        W14138   0.878  15.899   2.742
13275W        W14139   3.666  15.725   0.430
13276W        W14140   1.239  16.924   0.806
13277W        W14141   2.083  16.218   2.929
13278W        W14142   2.101  15.887   2.544
13279W        W14143   0.783  16.342   2.433
13280W        W14144   2.988  18.029   2.385
13281W        W14145   2.686  14.849   3.272
13282W        W14146   0.567  15.009   2.873
13283W        W14147   0.902  16.017   1.893
13284W        W14148   1.279  15.754   0.270
13285W        W14149   0.247  17.483   2.817
13286W        W14150   1.491  16.253   2.049
13287W        W14151   1.518  15.281   0.276
13288W        W14152   0.636  16.183   0.910
13289W        W14153   0.350  18.153   2.472
13290W        W14154   3.020  16.252   0.533
13291W        W14155   3.129  15.041   3.124
13292W        W14156   2.644  17.220   1.300
13293W        W14157   0.342  16.207   3.415
13294W        W14158   3.276  14.799   0.606
13295W        W14159   2.738  17.101   0.789
13296W        W14160   1.433  16.015   0.764
13297W        W14161   2.851  14.957   0.360
13298W        W14162   2.736  15.711   2.421
13299W        W14163   0.175  16.036   1.491
13300W        W14164   0.958  17.118   1.220
13301W        W14165   2.644  15.681   1.389
13302W        W14166   1.721  15.078   1.946
13303W        W14167   3.511  17.105   2.364
13304W        W14168   3.501  15.057   2.096
13305W        W14169   0.177  17.924   1.529
13306W        W14170   0.318  17.090   0.728
13307W        W14171   0.508  14.815   3.373
13308W        W14172   1.619  17.585   3.594
13309W        W14173   3.425  16.427   1.462
13310W        W14174   2.719  16.667   0.454
13311W        W14175   2.120  18.234   2.439
13312W        W14176   2.779  16.844   3.344
13313W        W14177   1.660  14.529   0.746
13314W        W14178   2.392  15.346   1.742
13315W        W14179   0.271  17.160   2.000
13316W        W14180   1.369  15.003   0.687
13317W        W14181   1.110  16.679   3.396
13318W        W14182   2.184  15.448   1.273
13319W        W14183   2.170  16.938   2.367
13320W        W14184   0.695  17.596   3.077
13321W        W14185   1.158  17.728   3.355
13322W        W14186   1.026  15.397   0.614
13323W        W14187   2.540  15.392   0.871
13324W        W14188   2.357  17.534   2.907
13325W        W14189   1.255  16.220   1.588
13326W        W14190   0.663  17.723   2.557
13327W        W14191   3.494  17.908   0.177
13328W        W14192   0.377  16.727   3.313
13329W        W14193   2.386  16.923   1.897
13330W        W14194   0.807  16.671   1.005
13331W        W14195   1.119  17.570   2.326
13332W        W14196   1.555  14.855   1.499
13333W        W14197   0.064  17.004   0.278
13334W        W14198   1.777  15.726   0.498
13335W        W14199   0.412  16.472   1.302
13336W        W14200   1.548  14.918   2.502
13337W        W14201   3.330  14.825   0.087
13338W        W14202   3.216  16.587   3.208
13339W        W14203   2.108  17.905   3.417
13340W        W14204   3.636  16.919   2.844
13341W        W14205   2.988  17.694   3.373
13342W        W14206   0.811  18.194   2.149
13343W        W14207   3.543  16.782   1.051
13344W        W14208   2.201  15.827   1.629
13345W        W14209   1.954  14.594   1.232
13346W        W14210   0.976  17.654   1.188
13347W        W14211   1.373  15.371   2.251
13348W        W14212   1.369  14.625   1.914
13349W        W14213   0.427  17.907   0.274
13350W        W14214   1.929  16.748   1.260
13351W        W14215   1.133  17.766   2.823
13352W        W14216   0.404  16.574   0.670
13353W        W14217   0.309  15.077   1.670
13354W        W14218   1.862  17.007   1.846
13355W        W14219   0.176  14.981   0.745
13356W        W14220   2.552  16.109   2.699
13357W        W14221   2.714  15.454   0.358
13358W        W14222   3.254  17.223   1.927
13359W        W14223   1.847  17.518   1.737
13360W        W14224   1.258  17.839   0.808
13361W        W14225   2.448  14.613   0.187
13362W        W14226   0.392  17.970   1.982
13363W        W14227   2.118  15.666   3.509
13364W        W14228   0.654  15.299   3.475
13365W        W14229   0.389  15.768   1.093
13366W        W14230   0.839  15.982   0.469
13367W        W14231   2.372  16.110   3.338
13368W        W14232   1.022  16.528   2.000
13369W        W14233   2.484  14.649   1.368
13370W        W14234   1.636  17.999   1.694
13371W        W14235   2.718  17.445   2.538
13372W        W14236   2.499  17.601   1.649
13373W        W14237   2.448  16.729   1.424
13374W        W14238   1.868  14.978   0.553
13375W        W14239   3.518  14.589   1.206
13376W        W14240   1.160  16.273   0.087
13377W        W14241   3.483  15.517   1.288
13378W        W14242   1.991  16.501   0.285
13379W        W14243   2.966  16.863   2.856
13380W        W14244   2.468  17.796   0.419
13381W        W14245   1.481  15.174   2.982
13382W        W14246   1.155  15.980   2.332
13383W        W14247   3.221  17.311   2.747
13384W        W14248   2.377  15.212   3.054
13385W        W14249   0.116  15.902   2.969
13386W        W14250   1.733  16.282   2.528
13387W        W14251   0.427  16.989   1.255
13388W        W14252   0.492  16.305   1.839
13389W        W14253   2.687  16.612   2.495
13390W        W14254   2.574  17.972   3.168
13391W        W14255   2.306  15.729   3.005
13392W        W14256   2.859  17.947   1.372
13393W        W14257   1.572  17.583   2.621
13394W        W14258   1.153  17.830   1.890
13395W        W14259   2.993  17.020   2.351
13396W        W14260   1.880  17.109   3.645
13397W        W14261   0.668  16.983   1.706
13398W        W14262   2.913  16.512   1.443
13399W        W14263   2.590  17.793   2.135
13400W        W14264   0.664  17.537   2.046
13401W        W14265   1.606  15.621   3.305
13402W        W14266   2.108  17.897   0.934
13403W        W14267   1.379  17.130   3.504
13404W        W14268   1.385  17.376   1.015
13405W        W14269   0.861  15.860  28.957
13406W        W14270   0.158  18.318   7.108
13407W        W14271   0.536  17.082   6.598
13408W        W14272   3.193  16.582   4.568
13409W        W14273   3.352  17.941   6.423
13410W        W14274   1.326  17.952   3.819
13411W        W14275   1.116  16.065   4.729
13412W        W14276   0.673  15.898   4.987
13413W        W14277   1.784  16.775   4.358
13414W        W14278   1.594  17.833   6.768
13415W        W14279   0.179  15.273   6.617
13416W        W14280   0.802  14.457   6.492
13417W        W14281   2.649  15.013   5.455
13418W        W14282   2.276  15.870   4.138
13419W        W14283   2.736  15.438   7.028
13420W        W14284   0.230  15.028   6.147
13421W        W14285   0.245  17.800   7.125
13422W        W14286   1.482  17.109   4.017
13423W        W14287   0.188  15.769   5.686
13424W        W14288   1.085  15.919   7.009
13425W        W14289   3.253  15.415   5.607
13426W        W14290   3.296  16.624   6.207
13427W        W14291   1.588  15.942   5.296
13428W        W14292   2.159  17.446   5.620
13429W        W14293   0.599  16.689   5.948
13430W        W14294  28.988  16.252   5.580
13431W        W14295   1.146  16.174   6.576
13432W        W14296   3.307  16.018   6.845
13433W        W14297   0.940  17.298   5.241
13434W        W14298   1.974  17.221   6.371
13435W        W14299   1.228  15.726   5.617
13436W        W14300   1.552  16.466   5.224
13437W        W14301   2.272  17.482   7.188
13438W        W14302   1.641  16.640   7.157
13439W        W14303   1.616  16.422   6.682
13440W        W14304   0.149  15.644   7.159
13441W        W14305   2.721  17.300   7.009
13442W        W14306   0.516  14.716   4.362
13443W        W14307   1.165  17.181   5.732
13444W        W14308   3.408  17.130   5.265
13445W        W14309   2.766  15.277   5.881
13446W        W14310   3.242  15.355   3.527
13447W        W14311   3.711  16.246   6.134
13448W        W14312   1.468  17.996   5.809
13449W        W14313   3.420  17.529   4.295
13450W        W14314   0.605  18.185   4.242
13451W        W14315   0.826  18.068   4.754
13452W        W14316   0.765  14.877   6.192
13453W        W14317   3.274  15.979   6.243
13454W        W14318   2.484  16.245   4.936
13455W        W14319   2.640  16.061   3.806
13456W        W14320   1.922  17.036   5.889
13457W        W14321   1.563  15.428   5.202
13458W        W14322   2.231  17.607   6.142
13459W        W14323   2.969  16.407   5.008
13460W        W14324   2.191  15.262   4.792
13461W        W14325   0.723  17.702   4.397
13462W        W14326   0.237  15.123   4.821
13463W        W14327   2.400  15.909   5.326
13464W        W14328   0.438  17.431   5.348
13465W        W14329   1.541  17.615   4.142
13466W        W14330   3.018  15.813   3.549
13467W        W14331   0.297  17.546   5.903
13468W        W14332   0.998  17.268   6.458
13469W        W14333   1.208  16.549   4.846
13470W        W14334   1.260  14.956   6.005
13471W        W14335   3.529  14.784   5.501
13472W        W14336   0.684  16.569   3.727
13473W        W14337   0.582  15.545   3.963
13474W        W14338   0.497  17.546   4.847
13475W        W14339   1.603  16.871   4.869
13476W        W14340   2.929  17.722   6.709
13477W        W14341   1.944  15.574   4.439
13478W        W14342   3.220  18.038   5.289
13479W        W14343   2.820  15.848   6.689
13480W        W14344   3.659  17.576   5.073
13481W        W14345   2.223  16.769   6.458
13482W        W14346   0.235  16.128   4.719
13483W        W14347   1.044  16.863   6.127
13484W        W14348   2.107  16.018   4.639
13485W        W14349   2.157  16.537   4.652
13486W        W14350   0.631  15.778   6.010
13487W        W14351   0.597  15.792   6.958
13488W        W14352   0.457  14.675   4.944
13489W        W14353   2.249  15.132   5.764
13490W        W14354   1.886  15.247   6.958
13491W        W14355   2.420  15.036   4.080
13492W        W14356   3.410  17.676   6.874
13493W        W14357   2.168  14.820   6.840
13494W        W14358   3.220  17.187   6.992
13495W        W14359   2.821  15.335   6.504
13496W        W14360   2.718  15.256   4.992
13497W        W14361   2.870  16.254   7.010
13498W        W14362   0.799  17.801   5.230
13499W        W14363   1.456  15.545   4.235
13500W        W14364   0.962  14.900   6.905
13501W        W14365   2.910  15.588   4.640
13502W        W14366   3.092  16.074   4.629
13503W        W14367   1.068  17.963   6.999
13504W        W14368   0.981  14.744   4.187
13505W        W14369   3.130  15.035   5.281
13506W        W14370   3.414  17.445   3.589
13507W        W14371   0.369  16.630   5.473
13508W        W14372   2.357  15.181   3.561
13509W        W14373   3.471  17.615   5.536
13510W        W14374   3.407  14.665   6.367
13511W        W14375   1.897  15.972   6.820
13512W        W14376   1.952  17.245   4.176
13513W        W14377   2.486  16.495   7.279
13514W        W14378   2.192  14.662   5.573
13515W        W14379   0.726  15.664   5.480
13516W        W14380   0.347  16.617   6.381
13517W        W14381   2.180  17.853   5.268
13518W        W14382   3.176  15.485   6.113
13519W        W14383   2.067  17.907   6.584
13520W        W14384   3.044  16.513   3.712
13521W        W14385   1.667  16.337   4.711
13522W        W14386   3.691  14.835   6.766
13523W        W14387   1.746  16.737   6.278
13524W        W14388   1.924  15.581   5.535
13525W        W14389   2.612  16.017   4.487
13526W        W14390   2.952  15.778   4.147
13527W        W14391   2.960  17.613   4.509
13528W        W14392   2.773  17.085   5.367
13529W        W14393   2.409  16.382   4.158
13530W        W14394   2.041  16.749   5.116
13531W        W14395   2.882  16.308   5.503
13532W        W14396   0.476  15.322   5.781
13533W        W14397   3.019  16.322   6.533
13534W        W14398   3.421  18.033   5.808
13535W        W14399   1.434  17.376   5.048
13536W        W14400   2.573  17.989   6.459
13537W        W14401   2.376  15.375   6.214
13538W        W14402   1.691  18.174   6.323
13539W        W14403   3.135  15.112   4.705
13540W        W14404   2.923  16.301   6.025
13541W        W14405   0.136  15.551   6.150
13542W        W14406   2.783  15.540   5.428
13543W        W14407   3.207  15.509   6.812
13544W        W14408   2.275  17.246   5.137
13545W        W14409   1.486  17.777   4.643
13546W        W14410   0.577  15.028   3.919
13547W        W14411   1.690  14.743   5.742
13548W        W14412   0.818  17.998   3.721
13549W        W14413   1.025  16.370   4.308
13550W        W14414   1.784  16.934   6.752
13551W        W14415   1.677  15.213   4.726
13552W        W14416   2.835  14.743   5.004
13553W        W14417   2.687  18.119   5.377
13554W        W14418   1.962  17.891   5.769
13555W        W14419   1.484  16.770   5.817
13556W        W14420   3.256  17.586   6.061
13557W        W14421   0.809  15.017   4.658
13558W        W14422   1.641  17.461   5.785
13559W        W14423   1.167  15.378   3.448
13560W        W14424   1.642  15.833   5.881
13561W        W14425   2.587  14.756   5.914
13562W        W14426   0.090  16.643   5.927
13563W        W14427   1.582  16.269   3.852
13564W        W14428   0.991  14.868   3.665
13565W        W14429   1.539  15.741   4.751
13566W        W14430   2.494  14.912   6.413
13567W        W14431   1.316  16.836   6.566
13568W        W14432   2.091  16.562   6.932
13569W        W14433   2.595  16.630   6.783
13570W        W14434   1.904  14.865   7.325
13571W        W14435   1.079  15.274   5.421
13572W        W14436   0.719  15.362   5.041
13573W        W14437   0.317  18.006   4.631
13574W        W14438   1.929  17.453   6.825
13575W        W14439   0.821  16.855   4.174
13576W        W14440   2.379  16.445   5.418
13577W        W14441   2.494  16.126   5.821
13578W        W14442   1.905  16.600   5.581
13579W        W14443   2.391  17.051   3.755
13580W        W14444   1.914  15.067   5.361
13581W        W14445   3.350  15.514   4.375
13582W        W14446   0.284  18.024   6.644
13583W        W14447   0.630  17.195   6.091
13584W        W14448   0.067  18.043   4.187
13585W        W14449   1.909  15.412   6.023
13586W        W14450   1.146  17.478   3.837
13587W        W14451   3.116  17.904   4.063
13588W        W14452   1.914  16.277   4.244
13589W        W14453   1.066  15.577   4.588
13590W        W14454   2.104  15.412   3.956
13591W        W14455   2.280  17.064   6.860
13592W        W14456   2.624  14.972   4.570
13593W        W14457   0.128  14.786   3.844
13594W        W14458   1.470  17.165   6.173
13595W        W14459   1.336  16.930   5.316
13596W        W14460   0.917  17.035   3.719
13597W        W14461   0.241  17.560   4.362
13598W        W14462   0.747  16.310   7.122
13599W        W14463   1.437  14.999   7.104
13600W        W14464   1.971  15.068   6.428
13601W        W14465   1.303  14.748   4.779
13602W        W14466   2.115  14.854   4.490
13603W        W14467   0.330  14.727   5.737
13604W        W14468   0.274  15.494   5.251
13605W        W14469   3.050  14.764   5.710
13606W        W14470   0.438  15.242   4.360
13607W        W14471   2.983  14.940   6.206
13608W        W14472   3.431  16.140   3.625
13609W        W14473   0.807  14.926   5.683
13610W        W14474   1.855  15.562   6.516
13611W        W14475   0.105  15.340   3.959
13612W        W14476   0.839  16.627   6.561
13613W        W14477   2.013  16.085   5.607
13614W        W14478   1.833  17.979   3.862
13615W        W14479   0.172  16.529   3.813
13616W        W14480   0.958  16.968   6.916
13617W        W14481   0.559  16.190   6.638
13618W        W14482   1.323  16.429   6.177
13619W        W14483   2.939  14.600   6.597
13620W        W14484   3.546  16.416   6.593
13621W        W14485   3.395  16.063   4.211
13622W        W14486   2.306  16.874   4.283
13623W        W14487   2.937  18.138   3.607
13624W        W14488   2.040  16.160   7.299
13625W        W14489   0.190  16.992   7.210
13626W        W14490   3.661  15.126   7.191
13627W        W14491   3.024  15.866   5.758
13628W        W14492   1.510  18.099   7.192
13629W        W14493   1.426  14.866   3.953
13630W        W14494   2.881  17.260   3.626
13631W        W14495   0.638  15.304   6.832
13632W        W14496   1.468  17.337   6.656
13633W        W14497   3.374  15.166   6.460
13634W        W14498   2.717  18.226   4.084
13635W        W14499   2.705  16.727   5.769
13636W        W14500   1.033  15.251   6.478
13637W        W14501   1.536  16.143   7.130
13638W        W14502   1.105  17.330   4.334
13639W        W14503   2.679  16.563   4.562
13640W        W14504   0.580  15.356   6.304
13641W        W14505   1.903  17.546   4.881
13642W        W14506   3.277  16.025   5.322
13643W        W14507   1.688  14.727   6.727
13644W        W14508   2.645  17.375   5.779
13645W        W14509   2.978  17.778   5.660
13646W        W14510   2.119  17.547   3.790
13647W        W14511   0.160  17.389   6.862
13648W        W14512   0.970  15.386   5.936
13649W        W14513   0.906  14.856   5.154
13650W        W14514   2.390  15.627   5.762
13651W        W14515   1.238  16.671   3.907
13652W        W14516   3.213  16.798   5.740
13653W        W14517   0.603  17.280   7.083
13654W        W14518   3.022  18.160   4.525
13655W        W14519   1.200  15.223   4.920
13656W        W14520   0.881  16.749   5.189
13657W        W14521   1.168  18.136   6.194
13658W        W14522   3.223  18.140   6.923
13659W        W14523   2.253  16.566   5.980
13660W        W14524   0.539  16.068   3.895
13661W        W14525   3.327  17.838   4.804
13662W        W14526   2.909  15.242   4.227
13663W        W14527   1.231  14.768   6.490
13664W        W14528   3.105  17.534   5.196
13665W        W14529   2.858  15.908   5.066
13666W        W14530   1.135  15.707   5.110
13667W        W14531   1.623  16.010   6.364
13668W        W14532   2.676  17.115   6.531
13669W        W14533   1.344  15.685   6.632
13670W        W14534   1.302  17.982   5.092
13671W        W14535   0.610  18.146   7.033
13672W        W14536   0.639  17.327   4.060
13673W        W14537   3.315  17.314   4.778
13674W        W14538   0.843  15.754   6.504
13675W        W14539   3.447  15.671   3.866
13676W        W14540   1.279  16.823   4.410
13677W        W14541   2.054  16.293   6.451
13678W        W14542   2.107  15.901   6.104
13679W        W14543   0.814  16.277   6.190
13680W        W14544   2.941  18.073   6.084
13681W        W14545   2.677  14.941   6.893
13682W        W14546   0.493  14.842   6.647
13683W        W14547   0.886  16.114   5.711
13684W        W14548   1.348  15.804   3.715
13685W        W14549   0.296  17.538   6.406
13686W        W14550   1.392  16.247   5.678
13687W        W14551   1.603  15.355   3.767
13688W        W14552   0.664  15.984   4.458
13689W        W14553   0.384  18.060   6.123
13690W        W14554   2.928  16.302   4.181
13691W        W14555   3.188  14.989   6.902
13692W        W14556   2.746  17.315   4.896
13693W        W14557   0.250  16.155   7.097
13694W        W14558   3.169  14.686   4.054
13695W        W14559   2.937  17.042   4.486
13696W        W14560   1.444  16.052   4.313
13697W        W14561   2.838  15.051   3.746
13698W        W14562   2.723  15.761   6.168
13699W        W14563   0.465  16.109   5.411
13700W        W14564   1.096  17.062   4.816
13701W        W14565   2.452  15.693   4.857
13702W        W14566   1.527  15.271   5.691
13703W        W14567   3.477  17.101   6.131
13704W        W14568   3.444  15.022   5.966
13705W        W14569   0.267  17.898   5.123
13706W        W14570   0.659  17.179   4.548
13707W        W14571   0.535  14.936   7.195
13708W        W14572   1.596  17.556   7.215
13709W        W14573   3.380  16.579   5.320
13710W        W14574   2.753  16.779   4.052
13711W        W14575   2.200  18.152   6.145
13712W        W14576   2.895  16.802   7.174
13713W        W14577   1.628  14.660   4.394
13714W        W14578   2.318  15.381   5.285
13715W        W14579   0.161  17.106   5.671
13716W        W14580   1.274  15.103   4.407
13717W        W14581   1.186  16.505   6.964
13718W        W14582   1.975  15.695   5.031
13719W        W14583   2.402  17.068   6.086
13720W        W14584   0.664  17.677   6.760
13721W        W14585   1.091  17.465   6.983
13722W        W14586   1.067  15.302   3.955
13723W        W14587   2.465  15.462   4.385
13724W        W14588   2.405  17.524   6.637
13725W        W14589   1.050  16.227   5.236
13726W        W14590   0.744  17.711   6.217
13727W        W14591   3.442  17.949   3.668
13728W        W14592   0.419  16.631   6.903
13729W        W14593   2.299  16.947   5.553
13730W        W14594   0.758  16.690   4.651
13731W        W14595   1.208  17.606   6.037
13732W        W14596   1.430  14.910   5.269
13733W        W14597   0.288  16.935   4.212
13734W        W14598   1.798  15.819   3.962
13735W        W14599   0.548  16.409   5.013
13736W        W14600   1.504  15.196   6.631
13737W        W14601   3.294  14.858   3.588
13738W        W14602   3.309  16.523   7.036
13739W        W14603   1.996  17.923   7.115
13740W        W14604   3.552  16.964   6.635
13741W        W14605   3.014  17.667   7.219
13742W        W14606   0.900  18.036   5.765
13743W        W14607   3.573  16.820   4.899
13744W        W14608   2.001  16.225   5.110
13745W        W14609   1.809  14.750   4.935
13746W        W14610   1.026  17.584   4.801
13747W        W14611   1.424  15.451   6.179
13748W        W14612   1.194  14.602   5.602
13749W        W14613   0.421  17.779   3.939
13750W        W14614   2.053  17.070   4.696
13751W        W14615   1.154  17.750   6.536
13752W        W14616   0.515  16.451   4.241
13753W        W14617   0.423  15.016   5.323
13754W        W14618   1.807  17.145   5.372
13755W        W14619   0.048  14.884   4.369
13756W        W14620   2.542  16.203   6.365
13757W        W14621   2.609  15.525   3.855
13758W        W14622   3.133  17.283   5.670
13759W        W14623   1.709  17.691   5.339
13760W        W14624   1.140  17.977   4.297
13761W        W14625   2.395  14.688   3.694
13762W        W14626   0.430  17.914   5.601
13763W        W14627   2.235  15.670   7.082
13764W        W14628   0.610  15.430   7.355
13765W        W14629   0.333  15.622   4.724
13766W        W14630   1.010  15.807   4.119
13767W        W14631   2.388  16.152   6.877
13768W        W14632   1.022  16.618   5.659
13769W        W14633   2.326  14.861   5.085
13770W        W14634   1.727  18.195   5.403
13771W        W14635   2.763  17.560   6.238
13772W        W14636   2.612  17.595   5.330
13773W        W14637   2.545  16.775   5.018
13774W        W14638   1.775  15.128   4.217
13775W        W14639   3.406  14.734   4.941
13776W        W14640   1.046  16.212   3.806
13777W        W14641   3.179  15.504   5.093
13778W        W14642   2.020  16.675   3.890
13779W        W14643   3.069  16.813   6.657
13780W        W14644   2.633  17.772   3.803
13781W        W14645   1.114  15.394   6.998
13782W        W14646   1.168  15.902   6.111
13783W        W14647   3.175  17.321   6.502
13784W        W14648   2.337  15.302   6.716
13785W        W14649   0.165  15.795   6.642
13786W        W14650   1.795  16.322   5.998
13787W        W14651   0.483  17.011   5.032
13788W        W14652   0.390  16.221   5.906
13789W        W14653   2.706  16.676   6.282
13790W        W14654   2.521  17.893   6.975
13791W        W14655   2.324  15.775   6.547
13792W        W14656   2.816  17.874   4.937
13793W        W14657   1.688  17.655   6.276
13794W        W14658   1.226  17.656   5.499
13795W        W14659   2.954  17.080   6.099
13796W        W14660   1.915  17.094   7.221
13797W        W14661   0.679  17.034   5.585
13798W        W14662   3.060  16.902   4.970
13799W        W14663   2.482  17.878   5.782
13800W        W14664   0.781  17.533   5.718
13801W        W14665   1.573  15.627   7.102
13802W        W14666   1.962  17.761   4.388
13803W        W14667   1.411  17.082   7.117
13804W        W14668   1.574  17.264   4.540
13805W        W14669   0.849  15.773   3.596
13806W        W14670   0.133  18.346  10.710
13807W        W14671   0.535  17.210  10.244
13808W        W14672   3.259  16.659   8.118
13809W        W14673   3.416  17.960  10.025
13810W        W14674   1.198  17.765   7.478
13811W        W14675   1.148  16.018   8.340
13812W        W14676   0.704  15.968   8.696
13813W        W14677   1.699  16.616   8.064
13814W        W14678   1.593  17.840  10.459
13815W        W14679   0.279  15.451  10.306
13816W        W14680   0.729  14.479  10.074
13817W        W14681   2.523  15.007   9.011
13818W        W14682   2.181  15.830   7.689
13819W        W14683   2.773  15.357  10.649
13820W        W14684   0.264  15.001   9.811
13821W        W14685   0.313  17.821  10.868
13822W        W14686   1.608  16.916   7.606
13823W        W14687   0.249  15.818   9.283
13824W        W14688   1.046  15.801  10.677
13825W        W14689   3.188  15.651   9.059
13826W        W14690   3.272  16.719   9.853
13827W        W14691   1.576  15.998   8.943
13828W        W14692   2.357  17.416   9.320
13829W        W14693   0.609  16.712   9.487
13830W        W14694   0.042  16.293   9.242
13831W        W14695   1.182  16.146  10.297
13832W        W14696   3.295  16.020  10.453
13833W        W14697   0.969  17.392   8.881
13834W        W14698   1.954  17.237  10.042
13835W        W14699   1.365  15.631   9.272
13836W        W14700   1.555  16.557   8.901
13837W        W14701   2.385  17.472  10.763
13838W        W14702   1.653  16.625  10.841
13839W        W14703   1.630  16.438  10.331
13840W        W14704   0.106  15.730  10.770
13841W        W14705   2.765  17.188  10.578
13842W        W14706   0.514  14.812   8.563
13843W        W14707   1.079  17.154   9.404
13844W        W14708   3.354  17.022   8.930
13845W        W14709   2.832  15.317   9.347
13846W        W14710   3.194  15.318   7.314
13847W        W14711   3.561  15.975   9.743
13848W        W14712   1.569  17.917   9.486
13849W        W14713   3.308  17.498   7.830
13850W        W14714   0.568  18.347   7.969
13851W        W14715   0.895  18.136   8.368
13852W        W14716   0.791  14.904   9.797
13853W        W14717   3.124  15.881  10.005
13854W        W14718   2.580  16.294   8.662
13855W        W14719   2.552  15.995   7.346
13856W        W14720   1.911  17.137   9.490
13857W        W14721   1.626  15.410   8.800
13858W        W14722   2.107  17.624   9.742
13859W        W14723   3.058  16.342   8.468
13860W        W14724   2.148  15.004   8.191
13861W        W14725   0.793  17.881   7.852
13862W        W14726   0.146  15.192   8.563
13863W        W14727   2.512  15.919   9.004
13864W        W14728   0.442  17.404   8.900
13865W        W14729   1.443  17.386   7.734
13866W        W14730   3.026  15.805   7.245
13867W        W14731   0.307  17.603   9.611
13868W        W14732   1.020  17.265  10.077
13869W        W14733   1.321  16.497   8.398
13870W        W14734   1.306  14.963   9.675
13871W        W14735   3.412  14.698   9.184
13872W        W14736   0.733  16.403   7.636
13873W        W14737   0.454  15.640   7.836
13874W        W14738   0.601  17.497   8.408
13875W        W14739   1.520  16.951   8.513
13876W        W14740   2.880  17.588  10.231
13877W        W14741   1.821  15.524   7.965
13878W        W14742   3.120  18.091   8.802
13879W        W14743   2.744  15.785  10.353
13880W        W14744   3.662  17.410   8.698
13881W        W14745   2.197  16.758  10.070
13882W        W14746   0.181  16.332   8.315
13883W        W14747   1.034  16.817   9.772
13884W        W14748   2.056  15.917   8.203
13885W        W14749   2.250  16.380   8.289
13886W        W14750   0.680  15.826   9.608
13887W        W14751   0.550  15.836  10.526
13888W        W14752   0.747  14.632   9.018
13889W        W14753   2.127  15.155   9.319
13890W        W14754   1.849  15.225  10.570
13891W        W14755   2.315  15.085   7.696
13892W        W14756   3.384  17.677  10.476
13893W        W14757   2.071  14.784  10.358
13894W        W14758   3.258  17.050  10.674
13895W        W14759   2.772  15.259  10.141
13896W        W14760   2.482  15.194   8.519
13897W        W14761   2.854  16.230  10.603
13898W        W14762   0.711  17.842   8.770
13899W        W14763   1.318  15.640   7.983
13900W        W14764   0.951  14.893  10.510
13901W        W14765   2.831  15.509   8.262
13902W        W14766   3.185  15.874   8.215
13903W        W14767   1.142  17.988  10.677
13904W        W14768   1.006  14.640   7.852
13905W        W14769   3.188  15.124   8.945
13906W        W14770   3.479  17.431   7.353
13907W        W14771   0.306  16.703   9.058
13908W        W14772   2.327  15.158   7.199
13909W        W14773   3.495  17.444   9.217
13910W        W14774   3.353  14.687   9.727
13911W        W14775   1.894  15.940  10.490
13912W        W14776   1.811  17.123   8.039
13913W        W14777   2.479  16.446  10.908
13914W        W14778   2.102  14.693   9.090
13915W        W14779   0.765  15.563   9.128
13916W        W14780   0.427  16.750   9.974
13917W        W14781   2.220  17.831   8.791
13918W        W14782   3.094  15.755   9.528
13919W        W14783   2.026  17.925  10.171
13920W        W14784   3.253  16.767   7.588
13921W        W14785   1.771  16.273   8.485
13922W        W14786   3.486  14.617  10.252
13923W        W14787   1.725  16.788   9.906
13924W        W14788   1.892  15.617   9.188
13925W        W14789   2.691  16.068   8.203
13926W        W14790   2.869  15.886   7.752
13927W        W14791   3.009  17.722   8.181
13928W        W14792   2.827  17.127   8.978
13929W        W14793   2.512  16.302   7.777
13930W        W14794   2.109  16.480   8.819
13931W        W14795   2.917  16.614   8.906
13932W        W14796   0.407  15.352   9.456
13933W        W14797   3.038  16.358  10.153
13934W        W14798   3.550  17.895   9.473
13935W        W14799   1.451  17.538   8.802
13936W        W14800   2.531  17.959  10.017
13937W        W14801   2.454  15.227   9.726
13938W        W14802   1.685  18.228   9.908
13939W        W14803   3.059  15.060   8.424
13940W        W14804   3.131  16.267   9.640
13941W        W14805   0.225  15.731   9.822
13942W        W14806   2.782  15.437   8.838
13943W        W14807   3.184  15.502  10.340
13944W        W14808   2.336  17.293   8.790
13945W        W14809   1.540  17.891   8.438
13946W        W14810   0.562  15.035   7.700
13947W        W14811   1.728  14.669   9.468
13948W        W14812   0.722  17.711   7.322
13949W        W14813   1.161  16.432   7.917
13950W        W14814   1.774  16.926  10.417
13951W        W14815   1.663  15.133   8.335
13952W        W14816   2.893  14.710   8.756
13953W        W14817   2.606  18.137   9.000
13954W        W14818   2.067  17.875   9.293
13955W        W14819   1.472  16.799   9.453
13956W        W14820   3.342  17.494   9.729
13957W        W14821   0.883  15.003   8.206
13958W        W14822   1.502  17.434   9.332
13959W        W14823   1.012  15.089   7.423
13960W        W14824   1.697  15.882   9.561
13961W        W14825   2.464  14.766   9.489
13962W        W14826   0.103  16.718   9.540
13963W        W14827   1.579  16.391   7.596
13964W        W14828   1.036  14.575   7.333
13965W        W14829   1.594  15.763   8.431
13966W        W14830   2.478  14.807  10.031
13967W        W14831   1.317  16.846  10.203
13968W        W14832   2.087  16.544  10.581
13969W        W14833   2.567  16.595  10.379
13970W        W14834   1.880  14.898  10.955
13971W        W14835   1.175  15.252   8.989
13972W        W14836   0.733  15.312   8.645
13973W        W14837   0.423  17.964   8.302
13974W        W14838   1.917  17.445  10.533
13975W        W14839   0.844  16.897   7.797
13976W        W14840   2.504  16.423   9.157
13977W        W14841   2.661  16.076   9.505
13978W        W14842   1.943  16.639   9.291
13979W        W14843   2.426  17.008   7.350
13980W        W14844   2.015  15.049   8.740
13981W        W14845   3.335  15.356   8.109
13982W        W14846   0.304  18.048  10.345
13983W        W14847   0.642  17.181   9.733
13984W        W14848   0.090  18.084   7.930
13985W        W14849   2.007  15.489   9.705
13986W        W14850   1.030  17.231   7.439
13987W        W14851   3.009  17.905   7.699
13988W        W14852   2.009  16.282   7.835
13989W        W14853   0.797  15.654   8.272
13990W        W14854   1.970  15.415   7.462
13991W        W14855   2.257  17.040  10.505
13992W        W14856   2.667  15.048   8.072
13993W        W14857   0.129  14.798   7.503
13994W        W14858   1.451  17.200   9.795
13995W        W14859   1.381  17.054   9.000
13996W        W14860   0.674  16.821   7.320
13997W        W14861   0.346  17.629   7.917
13998W        W14862   0.772  16.287  10.632
13999W        W14863   1.270  14.840  10.908
14000W        W14864   2.007  14.976   9.824
14001W        W14865   1.330  14.728   8.316
14002W        W14866   2.110  14.626   7.775
14003W        W14867   0.427  14.751   9.401
14004W        W14868   0.354  15.612   8.797
14005W        W14869   2.928  14.804   9.258
14006W        W14870   0.457  15.258   8.172
14007W        W14871   2.892  14.952   9.736
14008W        W14872   3.411  16.121   7.360
14009W        W14873   0.837  15.047   9.305
14010W        W14874   1.819  15.535  10.175
14011W        W14875   0.137  15.303   7.585
14012W        W14876   0.880  16.555  10.185
14013W        W14877   2.048  16.129   9.227
14014W        W14878   1.682  17.895   7.618
14015W        W14879   0.267  16.529   7.446
14016W        W14880   0.926  16.969  10.499
14017W        W14881   0.544  16.169  10.117
14018W        W14882   1.350  16.419   9.876
14019W        W14883   2.964  14.611  10.116
14020W        W14884   3.543  16.341  10.111
14021W        W14885   3.284  16.218   7.857
14022W        W14886   2.240  16.757   7.937
14023W        W14887   2.862  18.155   7.279
14024W        W14888   2.024  16.144  10.960
14025W        W14889   0.222  16.993  10.892
14026W        W14890   3.650  15.115  10.842
14027W        W14891   2.991  16.145   9.108
14028W        W14892   1.647  18.068  10.935
14029W        W14893   1.431  14.786   7.568
14030W        W14894   2.993  17.216   7.479
14031W        W14895   0.781  15.375  10.473
14032W        W14896   1.479  17.338  10.299
14033W        W14897   3.253  15.049  10.082
14034W        W14898   2.627  18.246   7.753
14035W        W14899   2.821  16.800   9.393
14036W        W14900   1.093  15.219  10.087
14037W        W14901   1.497  16.137  10.744
14038W        W14902   0.954  17.392   7.958
14039W        W14903   2.714  16.610   8.189
14040W        W14904   0.610  15.367   9.933
14041W        W14905   1.871  17.353   8.525
14042W        W14906   3.394  16.002   8.742
14043W        W14907   1.578  14.734  10.512
14044W        W14908   2.939  17.438   9.390
14045W        W14909   3.058  17.932   9.275
14046W        W14910   1.943  17.432   7.603
14047W        W14911   0.183  17.415  10.584
14048W        W14912   1.006  15.425   9.601
14049W        W14913   1.015  14.897   8.680
14050W        W14914   2.397  15.614   9.389
14051W        W14915   1.169  16.701   7.441
14052W        W14916   3.285  16.578   9.256
14053W        W14917   0.626  17.271  10.764
14054W        W14918   3.124  18.214   8.300
14055W        W14919   1.211  15.350   8.431
14056W        W14920   1.044  16.761   8.746
14057W        W14921   1.191  18.116   9.796
14058W        W14922   3.067  18.065  10.480
14059W        W14923   2.320  16.479   9.637
14060W        W14924   0.322  16.137   7.843
14061W        W14925   3.428  17.828   8.472
14062W        W14926   2.948  15.375   7.771
14063W        W14927   1.212  14.685  10.132
14064W        W14928   3.169  17.557   8.841
14065W        W14929   2.904  15.897   8.659
14066W        W14930   1.157  15.727   8.785
14067W        W14931   1.633  16.006  10.047
14068W        W14932   2.578  17.090  10.124
14069W        W14933   1.337  15.645  10.272
14070W        W14934   1.200  18.070   8.778
14071W        W14935   0.646  18.165  10.701
14072W        W14936   0.538  17.279   7.589
14073W        W14937   3.288  17.334   8.361
14074W        W14938   0.867  15.764  10.113
14075W        W14939   3.358  15.683   7.668
14076W        W14940   1.293  16.939   8.034
14077W        W14941   2.081  16.266  10.126
14078W        W14942   2.193  15.976   9.700
14079W        W14943   0.881  16.311   9.687
14080W        W14944   2.976  17.855   9.780
14081W        W14945   2.725  14.869  10.499
14082W        W14946   0.484  14.930  10.275
14083W        W14947   1.017  16.009   9.255
14084W        W14948   1.086  15.656   7.451
14085W        W14949   0.217  17.602  10.111
14086W        W14950   1.443  16.284   9.356
14087W        W14951   1.472  15.328   7.525
14088W        W14952   0.677  16.205   8.222
14089W        W14953   0.376  18.090   9.850
14090W        W14954   2.949  16.342   7.493
14091W        W14955   3.208  15.041  10.592
14092W        W14956   2.790  17.381   8.525
14093W        W14957   0.260  16.231  10.709
14094W        W14958   3.100  14.897   7.851
14095W        W14959   3.005  17.092   8.002
14096W        W14960   1.563  16.103   8.034
14097W        W14961   2.782  15.026   7.407
14098W        W14962   2.670  15.680   9.836
14099W        W14963   0.575  16.256   9.153
14100W        W14964   0.994  17.156   8.421
14101W        W14965   2.450  15.736   8.508
14102W        W14966   1.605  15.157   9.280
14103W        W14967   3.643  17.080   9.838
14104W        W14968   3.319  15.142   9.473
14105W        W14969   0.189  17.821   8.736
14106W        W14970   0.484  17.134   8.085
14107W        W14971   0.531  15.001  10.791
14108W        W14972   1.451  17.576  10.910
14109W        W14973   3.430  16.520   8.767
14110W        W14974   2.733  16.770   7.686
14111W        W14975   2.148  18.142   9.713
14112W        W14976   2.870  16.732  10.780
14113W        W14977   1.618  14.512   7.949
14114W        W14978   2.276  15.459   8.909
14115W        W14979   0.314  17.151   9.339
14116W        W14980   1.311  15.104   7.956
14117W        W14981   1.198  16.558  10.630
14118W        W14982   2.025  15.467   8.448
14119W        W14983   2.400  17.011   9.653
14120W        W14984   0.642  17.690  10.462
14121W        W14985   1.074  17.456  10.591
14122W        W14986   0.896  15.386   7.844
14123W        W14987   2.358  15.483   8.040
14124W        W14988   2.345  17.526  10.249
14125W        W14989   1.123  16.256   8.819
14126W        W14990   0.701  17.664   9.950
14127W        W14991   3.410  17.950   7.385
14128W        W14992   0.477  16.707  10.513
14129W        W14993   2.359  16.916   9.144
14130W        W14994   0.856  16.690   8.271
14131W        W14995   1.141  17.604   9.679
14132W        W14996   1.523  14.880   8.806
14133W        W14997   0.152  16.960   7.719
14134W        W14998   1.642  15.853   7.576
14135W        W14999   0.572  16.473   8.666
14136W        W15000   1.591  15.072  10.125
14137W        W15001   3.282  14.796   7.370
14138W        W15002   3.302  16.516  10.594
14139W        W15003   2.077  17.924  10.680
14140W        W15004   3.570  16.837  10.288
14141W        W15005   2.933  17.630  10.757
14142W        W15006   0.777  17.975   9.545
14143W        W15007   3.562  16.913   8.470
14144W        W15008   2.039  15.912   8.747
14145W        W15009   1.845  14.652   8.435
14146W        W15010   1.073  17.673   8.450
14147W        W15011   1.488  15.454   9.777
14148W        W15012   1.236  14.687   9.225
14149W        W15013   0.415  18.069   7.534
14150W        W15014   2.019  16.824   8.425
14151W        W15015   1.163  17.758  10.184
14152W        W15016   0.447  16.625   7.982
14153W        W15017   0.412  15.109   9.000
14154W        W15018   1.893  16.973   8.903
14155W        W15019   0.071  14.947   7.991
14156W        W15020   2.580  16.172  10.023
14157W        W15021   2.539  15.511   7.507
14158W        W15022   3.286  17.046   9.445
14159W        W15023   1.914  17.469   9.036
14160W        W15024   1.292  17.814   7.990
14161W        W15025   2.381  14.655   7.290
14162W        W15026   0.415  17.890   9.191
14163W        W15027   2.292  15.613  10.650
14164W        W15028   0.520  15.488  10.922
14165W        W15029   0.309  15.825   8.313
14166W        W15030   0.911  15.941   7.854
14167W        W15031   2.371  16.116  10.522
14168W        W15032   1.040  16.586   9.239
14169W        W15033   2.369  14.674   8.627
14170W        W15034   1.677  17.993   8.966
14171W        W15035   2.599  17.488   9.789
14172W        W15036   2.682  17.638   8.989
14173W        W15037   2.506  16.810   8.647
14174W        W15038   1.802  15.035   7.815
14175W        W15039   3.417  14.666   8.668
14176W        W15040   1.141  16.171   7.451
14177W        W15041   3.230  15.519   8.584
14178W        W15042   2.041  16.654   7.473
14179W        W15043   3.013  16.844  10.280
14180W        W15044   2.551  17.790   7.486
14181W        W15045   1.329  15.227  10.569
14182W        W15046   1.210  15.907   9.744
14183W        W15047   3.291  17.261  10.194
14184W        W15048   2.259  15.252  10.225
14185W        W15049   0.099  15.929  10.282
14186W        W15050   1.828  16.348   9.691
14187W        W15051   0.495  16.984   8.591
14188W        W15052   0.369  16.258   9.638
14189W        W15053   2.733  16.658   9.878
14190W        W15054   2.566  17.912  10.531
14191W        W15055   2.268  15.765  10.152
14192W        W15056   2.710  17.921   8.546
14193W        W15057   1.620  17.684   9.941
14194W        W15058   1.134  17.785   9.191
14195W        W15059   2.965  17.132   9.816
14196W        W15060   1.906  17.079  10.905
14197W        W15061   0.725  16.992   9.070
14198W        W15062   3.031  16.907   8.511
14199W        W15063   2.558  17.894   9.465
14200W        W15064   0.721  17.501   9.327
14201W        W15065   1.578  15.630  10.770
14202W        W15066   1.807  17.665   8.058
14203W        W15067   1.387  17.057  10.742
14204W        W15068   1.428  17.386   8.258
14205W        W15069   0.595  15.940   7.444
14206W        W15070   0.091  18.213  14.344
14207W        W15071   0.522  17.161  13.896
14208W        W15072   3.133  16.792  11.720
14209W        W15073   3.419  17.852  13.667
14210W        W15074   1.201  17.939  11.221
14211W        W15075   1.184  16.071  12.012
14212W        W15076   0.746  16.031  12.291
14213W        W15077   1.669  16.604  11.815
14214W        W15078   1.579  17.831  14.077
14215W        W15079   0.144  15.408  13.893
14216W        W15080   0.800  14.612  13.734
14217W        W15081   2.651  14.938  12.859
14218W        W15082   2.209  15.810  11.343
14219W        W15083   2.741  15.369  14.319
14220W        W15084   0.243  15.077  13.494
14221W        W15085   0.267  17.726  14.434
14222W        W15086   1.646  16.845  11.333
14223W        W15087   0.432  15.845  12.840
14224W        W15088   1.012  15.757  14.257
14225W        W15089   3.513  15.500  12.965
14226W        W15090   3.233  16.656  13.594
14227W        W15091   1.618  15.924  12.615
14228W        W15092   2.233  17.457  12.985
14229W        W15093   0.664  16.840  13.060
14230W        W15094   0.120  16.316  12.854
14231W        W15095   1.234  16.210  13.887
14232W        W15096   3.273  15.981  14.101
14233W        W15097   0.999  17.616  12.670
14234W        W15098   2.028  17.187  13.723
14235W        W15099   1.319  15.586  12.912
14236W        W15100   1.488  16.626  12.597
14237W        W15101   2.482  17.432  14.500
14238W        W15102   1.597  16.559  14.394
14239W        W15103   1.726  16.393  13.863
14240W        W15104   0.076  15.744  14.332
14241W        W15105   2.816  17.369  14.116
14242W        W15106   0.515  14.847  12.076
14243W        W15107   1.014  17.223  13.132
14244W        W15108   3.237  17.141  12.506
14245W        W15109   3.039  15.258  12.953
14246W        W15110   3.165  15.323  11.025
14247W        W15111   3.568  15.890  13.322
14248W        W15112   1.780  17.758  13.181
14249W        W15113   3.253  17.408  11.491
14250W        W15114   0.540  18.387  11.683
14251W        W15115   0.894  18.176  12.012
14252W        W15116   0.782  15.017  13.422
14253W        W15117   3.196  15.779  13.653
14254W        W15118   2.553  16.260  12.367
14255W        W15119   2.565  15.947  10.975
14256W        W15120   1.866  17.172  13.190
14257W        W15121   1.627  15.418  12.502
14258W        W15122   2.194  17.603  13.479
14259W        W15123   2.949  16.455  12.116
14260W        W15124   2.423  15.223  12.149
14261W        W15125   0.779  17.857  11.616
14262W        W15126   0.186  15.222  12.159
14263W        W15127   2.472  15.937  12.768
14264W        W15128   0.396  17.507  12.530
14265W        W15129   1.421  17.343  11.392
14266W        W15130   3.016  15.776  10.800
14267W        W15131   0.187  17.636  13.220
14268W        W15132   0.972  17.272  13.679
14269W        W15133   1.234  16.570  12.120
14270W        W15134   1.273  15.082  13.159
14271W        W15135   3.594  14.634  12.845
14272W        W15136   0.746  16.415  11.332
14273W        W15137   0.482  15.628  11.414
14274W        W15138   0.607  17.533  12.055
14275W        W15139   1.488  17.009  12.199
14276W        W15140   2.986  17.817  13.931
14277W        W15141   1.804  15.567  11.708
14278W        W15142   3.116  18.100  12.540
14279W        W15143   2.785  15.784  14.022
14280W        W15144   3.540  17.535  12.353
14281W        W15145   2.184  16.697  13.772
14282W        W15146   0.144  16.297  11.948
14283W        W15147   1.008  16.801  13.434
14284W        W15148   2.146  15.919  11.865
14285W        W15149   2.158  16.415  12.023
14286W        W15150   0.579  15.861  13.337
14287W        W15151   0.505  15.775  14.054
14288W        W15152   0.325  14.669  12.533
14289W        W15153   2.227  15.158  13.039
14290W        W15154   1.891  15.125  14.272
14291W        W15155   2.316  15.022  11.245
14292W        W15156   3.457  17.679  14.169
14293W        W15157   2.245  14.733  14.154
14294W        W15158   3.263  17.184  14.292
14295W        W15159   2.844  15.155  13.862
14296W        W15160   2.876  15.174  12.431
14297W        W15161   2.888  16.247  14.326
14298W        W15162   0.672  17.940  12.415
14299W        W15163   1.318  15.685  11.677
14300W        W15164   1.001  14.914  14.139
14301W        W15165   2.866  15.429  11.972
14302W        W15166   3.120  15.855  11.811
14303W        W15167   1.108  17.977  14.314
14304W        W15168   1.046  14.907  11.365
14305W        W15169   3.361  15.050  12.619
14306W        W15170   3.378  17.443  10.968
14307W        W15171   0.341  16.758  12.667
14308W        W15172   2.323  15.104  10.733
14309W        W15173   3.391  17.516  12.851
14310W        W15174   3.368  14.636  13.404
14311W        W15175   1.926  15.969  14.097
14312W        W15176   1.758  17.122  11.748
14313W        W15177   2.480  16.479  14.573
14314W        W15178   2.122  14.696  12.801
14315W        W15179   0.820  15.508  12.749
14316W        W15180   0.467  16.728  13.575
14317W        W15181   2.190  17.962  12.393
14318W        W15182   3.089  15.781  13.104
14319W        W15183   2.041  17.903  13.864
14320W        W15184   3.258  16.747  11.113
14321W        W15185   1.651  16.277  12.227
14322W        W15186   3.527  14.618  13.900
14323W        W15187   1.768  16.782  13.503
14324W        W15188   2.042  15.634  12.750
14325W        W15189   2.632  16.099  11.890
14326W        W15190   2.687  15.723  11.538
14327W        W15191   2.884  17.689  11.767
14328W        W15192   2.729  17.156  12.621
14329W        W15193   2.525  16.249  11.397
14330W        W15194   2.007  16.542  12.516
14331W        W15195   2.931  16.674  12.593
14332W        W15196   0.502  15.362  13.125
14333W        W15197   2.905  16.247  13.818
14334W        W15198   3.434  17.961  13.137
14335W        W15199   1.422  17.480  12.435
14336W        W15200   2.532  17.965  13.738
14337W        W15201   2.476  15.246  13.499
14338W        W15202   1.656  18.089  13.587
14339W        W15203   3.241  15.012  12.098
14340W        W15204   3.145  16.196  13.382
14341W        W15205   0.138  15.588  13.401
14342W        W15206   2.898  15.649  12.649
14343W        W15207   3.193  15.467  14.064
14344W        W15208   2.241  17.275  12.465
14345W        W15209   1.590  17.895  12.165
14346W        W15210   0.574  15.107  11.309
14347W        W15211   1.700  14.742  13.130
14348W        W15212   0.807  17.710  10.979
14349W        W15213   1.194  16.422  11.606
14350W        W15214   1.769  16.890  14.039
14351W        W15215   1.776  15.152  12.053
14352W        W15216   3.009  14.687  12.432
14353W        W15217   2.616  18.144  12.682
14354W        W15218   2.162  17.963  12.907
14355W        W15219   1.399  16.854  13.086
14356W        W15220   3.183  17.531  13.324
14357W        W15221   0.966  14.987  11.865
14358W        W15222   1.469  17.402  12.955
14359W        W15223   0.975  15.256  10.967
14360W        W15224   1.738  15.803  13.121
14361W        W15225   2.461  14.623  13.234
14362W        W15226   0.175  16.746  13.157
14363W        W15227   1.573  16.325  11.250
14364W        W15228   0.720  14.631  11.078
14365W        W15229   1.587  15.766  12.126
14366W        W15230   2.527  14.788  13.738
14367W        W15231   1.324  16.762  13.848
14368W        W15232   2.084  16.504  14.238
14369W        W15233   2.586  16.585  14.062
14370W        W15234   1.925  14.755  14.615
14371W        W15235   1.198  15.161  12.604
14372W        W15236   0.796  15.238  12.288
14373W        W15237   0.407  17.994  11.965
14374W        W15238   1.883  17.424  14.168
14375W        W15239   0.816  16.911  11.443
14376W        W15240   2.443  16.479  12.802
14377W        W15241   2.658  16.254  13.199
14378W        W15242   1.843  16.651  12.990
14379W        W15243   2.448  16.977  10.973
14380W        W15244   2.064  15.134  12.522
14381W        W15245   3.156  15.418  11.532
14382W        W15246   0.318  18.082  13.878
14383W        W15247   0.525  17.220  13.386
14384W        W15248   0.129  18.102  11.536
14385W        W15249   2.018  15.459  13.406
14386W        W15250   1.028  17.223  11.078
14387W        W15251   2.931  17.754  11.256
14388W        W15252   2.028  16.282  11.503
14389W        W15253   0.894  15.645  11.971
14390W        W15254   2.004  15.415  11.050
14391W        W15255   2.227  17.031  14.211
14392W        W15256   2.764  14.887  11.962
14393W        W15257   0.214  14.757  11.179
14394W        W15258   1.427  17.159  13.486
14395W        W15259   1.227  17.066  12.657
14396W        W15260   0.728  16.783  10.948
14397W        W15261   0.297  17.619  11.617
14398W        W15262   0.764  16.194  14.190
14399W        W15263   1.468  14.832  14.338
14400W        W15264   2.020  14.989  13.695
14401W        W15265   1.343  14.798  12.191
14402W        W15266   2.259  14.901  11.768
14403W        W15267   0.388  14.819  13.064
14404W        W15268   0.462  15.611  12.362
14405W        W15269   3.112  14.725  12.946
14406W        W15270   0.549  15.304  11.813
14407W        W15271   2.880  14.907  13.363
14408W        W15272   3.422  16.115  10.930
14409W        W15273   0.829  15.011  12.914
14410W        W15274   1.873  15.468  13.909
14411W        W15275   0.102  15.267  11.199
14412W        W15276   0.854  16.558  13.851
14413W        W15277   2.015  16.170  12.877
14414W        W15278   2.042  18.193  11.308
14415W        W15279   0.289  16.554  11.134
14416W        W15280   0.935  16.989  14.118
14417W        W15281   0.504  16.195  13.727
14418W        W15282   1.397  16.447  13.441
14419W        W15283   3.006  14.621  13.782
14420W        W15284   3.563  16.256  13.689
14421W        W15285   2.996  16.314  11.597
14422W        W15286   2.128  16.775  11.632
14423W        W15287   2.820  18.127  10.918
14424W        W15288   2.041  16.080  14.586
14425W        W15289   0.178  17.014  14.576
14426W        W15290   3.639  15.088  14.458
14427W        W15291   2.941  16.175  12.771
14428W        W15292   1.587  18.081  14.508
14429W        W15293   1.541  14.776  11.328
14430W        W15294   2.931  17.189  11.087
14431W        W15295   0.730  15.338  14.150
14432W        W15296   1.414  17.274  13.995
14433W        W15297   3.299  15.073  13.645
14434W        W15298   2.580  18.260  11.378
14435W        W15299   2.687  16.864  13.052
14436W        W15300   1.084  15.311  13.771
14437W        W15301   1.464  16.052  14.325
14438W        W15302   0.935  17.357  11.680
14439W        W15303   2.597  16.632  11.802
14440W        W15304   0.589  15.439  13.649
14441W        W15305   1.848  17.415  12.171
14442W        W15306   3.365  15.861  12.648
14443W        W15307   1.786  14.592  14.020
14444W        W15308   2.742  17.382  13.084
14445W        W15309   2.974  17.817  12.935
14446W        W15310   1.951  17.590  11.044
14447W        W15311   0.114  17.323  14.170
14448W        W15312   0.977  15.514  13.292
14449W        W15313   0.852  14.758  12.476
14450W        W15314   2.603  15.551  13.096
14451W        W15315   1.197  16.701  11.140
14452W        W15316   3.087  16.584  13.083
14453W        W15317   0.582  17.274  14.407
14454W        W15318   2.969  18.211  11.797
14455W        W15319   1.286  15.330  12.111
14456W        W15320   0.895  16.711  12.490
14457W        W15321   1.172  18.145  13.427
14458W        W15322   3.206  18.122  14.270
14459W        W15323   2.272  16.620  13.269
14460W        W15324   0.322  16.141  11.470
14461W        W15325   3.244  17.876  12.084
14462W        W15326   2.708  15.187  11.529
14463W        W15327   1.293  14.606  13.861
14464W        W15328   3.033  17.596  12.470
14465W        W15329   2.993  15.976  12.282
14466W        W15330   1.160  15.716  12.426
14467W        W15331   1.791  15.880  13.620
14468W        W15332   2.547  17.060  13.818
14469W        W15333   1.411  15.706  13.925
14470W        W15334   1.212  18.080  12.471
14471W        W15335   0.600  18.100  14.299
14472W        W15336   0.528  17.313  11.262
14473W        W15337   3.183  17.347  12.017
14474W        W15338   0.922  15.823  13.741
14475W        W15339   3.113  15.871  11.290
14476W        W15340   1.267  16.940  11.717
14477W        W15341   2.374  16.235  13.652
14478W        W15342   2.244  15.906  13.262
14479W        W15343   0.933  16.253  13.443
14480W        W15344   2.973  18.002  13.432
14481W        W15345   2.757  14.835  14.262
14482W        W15346   0.465  14.948  13.953
14483W        W15347   0.959  15.975  12.976
14484W        W15348   1.202  15.694  11.156
14485W        W15349   0.245  17.553  13.715
14486W        W15350   1.491  16.250  12.983
14487W        W15351   1.497  15.259  11.132
14488W        W15352   0.729  16.287  11.843
14489W        W15353   0.405  18.070  13.375
14490W        W15354   2.955  16.310  11.084
14491W        W15355   3.239  14.958  14.150
14492W        W15356   2.655  17.415  12.163
14493W        W15357   0.259  16.210  14.205
14494W        W15358   3.147  14.903  11.587
14495W        W15359   2.799  17.175  11.661
14496W        W15360   1.622  16.091  11.726
14497W        W15361   2.772  14.977  11.012
14498W        W15362   2.967  15.401  13.432
14499W        W15363   0.633  16.314  12.698
14500W        W15364   0.995  17.206  12.212
14501W        W15365   2.527  15.740  12.256
14502W        W15366   1.729  15.275  12.993
14503W        W15367   3.474  17.116  13.449
14504W        W15368   3.495  15.037  13.147
14505W        W15369   0.136  17.915  12.381
14506W        W15370   0.455  17.144  11.757
14507W        W15371   0.600  14.966  14.495
14508W        W15372   1.497  17.534  14.510
14509W        W15373   3.441  16.736  12.734
14510W        W15374   2.762  16.730  11.315
14511W        W15375   2.143  18.131  13.406
14512W        W15376   2.693  16.955  14.399
14513W        W15377   1.735  14.712  11.794
14514W        W15378   2.471  15.390  12.637
14515W        W15379   0.262  17.203  12.926
14516W        W15380   1.409  15.157  11.651
14517W        W15381   1.110  16.543  14.299
14518W        W15382   2.045  15.554  12.216
14519W        W15383   2.373  17.124  13.350
14520W        W15384   0.640  17.659  14.037
14521W        W15385   1.046  17.460  14.289
14522W        W15386   0.950  15.394  11.499
14523W        W15387   2.287  15.423  11.692
14524W        W15388   2.353  17.521  13.984
14525W        W15389   1.166  16.227  12.538
14526W        W15390   0.733  17.703  13.511
14527W        W15391   3.304  17.946  10.941
14528W        W15392   0.459  16.705  14.148
14529W        W15393   2.231  16.950  12.851
14530W        W15394   0.812  16.804  11.948
14531W        W15395   1.244  17.632  13.362
14532W        W15396   1.635  14.900  12.627
14533W        W15397   0.109  17.005  11.406
14534W        W15398   1.696  15.816  11.258
14535W        W15399   0.487  16.521  12.236
14536W        W15400   1.535  15.072  13.877
14537W        W15401   3.254  14.789  11.063
14538W        W15402   3.314  16.491  14.087
14539W        W15403   2.066  17.905  14.369
14540W        W15404   3.539  16.950  13.924
14541W        W15405   3.044  17.653  14.470
14542W        W15406   0.831  18.033  13.062
14543W        W15407   3.350  16.769  12.193
14544W        W15408   2.089  16.032  12.385
14545W        W15409   1.954  14.694  12.270
14546W        W15410   1.061  17.718  12.152
14547W        W15411   1.502  15.444  13.467
14548W        W15412   1.249  14.654  12.843
14549W        W15413   0.576  18.134  11.223
14550W        W15414   1.992  16.903  12.154
14551W        W15415   1.142  17.733  13.849
14552W        W15416   0.411  16.643  11.655
14553W        W15417   0.403  15.170  12.643
14554W        W15418   1.766  17.080  12.645
14555W        W15419   0.180  14.977  11.657
14556W        W15420   2.715  15.853  13.505
14557W        W15421   2.547  15.455  11.104
14558W        W15422   3.168  17.084  13.011
14559W        W15423   1.865  17.606  12.663
14560W        W15424   1.285  17.939  11.745
14561W        W15425   2.353  14.620  10.909
14562W        W15426   0.371  17.955  12.842
14563W        W15427   2.260  15.624  14.342
14564W        W15428   0.551  15.515  14.594
14565W        W15429   0.427  15.849  11.888
14566W        W15430   0.893  15.939  11.506
14567W        W15431   2.412  16.109  14.158
14568W        W15432   1.038  16.499  12.980
14569W        W15433   2.478  14.776  12.407
14570W        W15434   1.716  18.104  12.643
14571W        W15435   2.717  17.512  13.594
14572W        W15436   2.554  17.648  12.648
14573W        W15437   2.450  16.776  12.371
14574W        W15438   1.886  15.121  11.478
14575W        W15439   3.533  14.615  12.314
14576W        W15440   1.096  16.192  11.047
14577W        W15441   3.284  15.485  12.302
14578W        W15442   2.073  16.637  11.132
14579W        W15443   2.999  16.889  13.976
14580W        W15444   2.422  17.845  11.102
14581W        W15445   1.299  15.323  14.276
14582W        W15446   1.314  15.921  13.392
14583W        W15447   3.217  17.367  13.811
14584W        W15448   2.347  15.236  14.002
14585W        W15449   0.071  15.910  13.813
14586W        W15450   1.891  16.294  13.363
14587W        W15451   0.463  17.049  12.259
14588W        W15452   0.521  16.362  13.189
14589W        W15453   2.704  16.638  13.548
14590W        W15454   2.607  17.899  14.273
14591W        W15455   2.301  15.726  13.788
14592W        W15456   2.722  17.925  12.216
14593W        W15457   1.688  17.568  13.654
14594W        W15458   1.335  17.917  12.947
14595W        W15459   2.946  17.075  13.471
14596W        W15460   1.810  17.032  14.533
14597W        W15461   0.731  17.164  12.680
14598W        W15462   2.873  16.958  12.148
14599W        W15463   2.547  17.847  13.207
14600W        W15464   0.640  17.554  13.015
14601W        W15465   1.725  15.606  14.406
14602W        W15466   1.665  17.828  11.407
14603W        W15467   1.303  17.023  14.465
14604W        W15468   1.396  17.438  11.907
14605W        W15469   0.599  15.992  11.041
14606W        W15470   0.605  17.095  17.677
14607W        W15471   2.890  16.999  15.697
14608W        W15472   3.432  17.846  17.276
14609W        W15473   1.207  17.881  14.814
14610W        W15474   1.168  16.048  15.641
14611W        W15475   0.738  15.948  15.907
14612W        W15476   1.624  16.585  15.196
14613W        W15477   1.627  17.831  17.663
14614W        W15478   0.324  15.388  17.617
14615W        W15479   0.851  14.597  17.394
14616W        W15480   2.624  15.001  16.383
14617W        W15481   2.247  15.808  14.983
14618W        W15482   2.630  15.556  17.920
14619W        W15483   0.347  15.049  17.185
14620W        W15484   0.322  17.859  17.995
14621W        W15485   1.492  17.043  14.965
14622W        W15486   0.264  15.765  16.613
14623W        W15487   1.168  15.839  17.862
14624W        W15488   3.395  15.499  16.377
14625W        W15489   3.317  16.658  17.088
14626W        W15490   1.672  16.140  16.246
14627W        W15491   2.338  17.386  16.629
14628W        W15492   0.628  16.889  16.815
14629W        W15493   0.091  16.275  16.529
14630W        W15494   1.209  16.275  17.572
14631W        W15495   3.376  15.989  17.800
14632W        W15496   0.822  17.568  16.216
14633W        W15497   2.150  17.187  17.274
14634W        W15498   1.365  15.725  16.467
14635W        W15499   1.430  16.602  16.278
14636W        W15500   2.492  17.463  18.036
14637W        W15501   1.711  16.681  18.051
14638W        W15502   1.764  16.451  17.542
14639W        W15503   0.209  15.630  18.076
14640W        W15504   2.848  17.262  17.714
14641W        W15505   0.495  14.732  15.685
14642W        W15506   1.046  17.219  16.880
14643W        W15507   3.595  17.001  16.197
14644W        W15508   2.987  15.314  16.630
14645W        W15509   3.173  15.269  14.567
14646W        W15510   3.580  16.087  17.041
14647W        W15511   1.555  17.892  16.663
14648W        W15512   3.263  17.536  15.072
14649W        W15513   0.522  18.286  15.222
14650W        W15514   1.078  18.173  15.734
14651W        W15515   0.834  14.952  17.008
14652W        W15516   3.232  15.841  17.335
14653W        W15517   2.527  16.296  15.966
14654W        W15518   2.568  15.957  14.621
14655W        W15519   1.913  17.165  16.810
14656W        W15520   1.587  15.379  16.056
14657W        W15521   2.251  17.659  17.056
14658W        W15522   3.000  16.401  15.785
14659W        W15523   2.180  15.035  15.491
14660W        W15524   0.810  17.792  15.124
14661W        W15525   0.247  15.148  15.858
14662W        W15526   2.480  15.872  16.265
14663W        W15527   0.328  17.400  16.198
14664W        W15528   1.556  17.559  15.031
14665W        W15529   3.037  15.768  14.512
14666W        W15530   0.153  17.536  16.752
14667W        W15531   1.034  17.293  17.402
14668W        W15532   1.243  16.551  15.778
14669W        W15533   1.387  14.893  16.975
14670W        W15534   3.508  14.821  16.408
14671W        W15535   0.751  16.384  14.949
14672W        W15536   0.550  15.639  15.100
14673W        W15537   0.587  17.458  15.760
14674W        W15538   1.457  17.013  15.898
14675W        W15539   2.980  17.738  17.526
14676W        W15540   1.893  15.412  15.253
14677W        W15541   3.184  18.186  16.165
14678W        W15542   2.849  15.958  17.671
14679W        W15543   3.732  17.505  16.017
14680W        W15544   2.294  16.689  17.366
14681W        W15545   0.155  16.281  15.605
14682W        W15546   1.018  16.801  17.158
14683W        W15547   2.058  15.859  15.460
14684W        W15548   2.173  16.355  15.580
14685W        W15549   0.688  15.823  16.941
14686W        W15550   0.641  15.796  17.826
14687W        W15551   0.473  14.775  16.191
14688W        W15552   2.123  14.861  16.519
14689W        W15553   1.848  15.301  17.923
14690W        W15554   2.329  15.022  14.996
14691W        W15555   3.435  17.647  17.772
14692W        W15556   2.209  14.766  17.808
14693W        W15557   3.311  17.136  17.866
14694W        W15558   2.745  15.255  17.510
14695W        W15559   2.537  15.111  15.846
14696W        W15560   3.029  16.318  17.990
14697W        W15561   0.698  18.075  16.081
14698W        W15562   1.404  15.554  15.393
14699W        W15563   1.038  14.842  17.832
14700W        W15564   2.864  15.497  15.537
14701W        W15565   3.138  15.937  15.492
14702W        W15566   1.282  18.104  17.930
14703W        W15567   1.123  14.535  15.171
14704W        W15568   3.132  15.079  16.196
14705W        W15569   3.512  17.443  14.649
14706W        W15570   0.428  16.632  16.386
14707W        W15571   2.356  15.084  14.494
14708W        W15572   3.603  17.456  16.510
14709W        W15573   3.300  14.809  17.108
14710W        W15574   1.917  15.860  17.705
14711W        W15575   1.761  17.018  15.450
14712W        W15576   2.575  16.465  18.173
14713W        W15577   2.318  14.656  16.070
14714W        W15578   0.783  15.612  16.413
14715W        W15579   0.474  16.726  17.294
14716W        W15580   2.045  17.862  16.029
14717W        W15581   3.265  15.702  16.845
14718W        W15582   2.109  17.924  17.494
14719W        W15583   3.098  16.685  14.527
14720W        W15584   1.698  16.332  15.757
14721W        W15585   3.574  14.705  17.539
14722W        W15586   1.860  16.767  17.118
14723W        W15587   1.894  15.690  16.319
14724W        W15588   2.590  16.042  15.513
14725W        W15589   2.779  15.819  15.088
14726W        W15590   3.053  17.588  15.537
14727W        W15591   2.691  17.015  16.508
14728W        W15592   2.478  16.285  15.065
14729W        W15593   2.072  16.473  16.143
14730W        W15594   2.950  16.279  16.286
14731W        W15595   0.514  15.348  16.802
14732W        W15596   3.138  16.335  17.461
14733W        W15597   3.592  17.923  16.769
14734W        W15598   1.367  17.495  16.171
14735W        W15599   2.593  17.985  17.285
14736W        W15600   2.374  15.331  17.106
14737W        W15601   1.671  18.057  17.178
14738W        W15602   3.108  15.047  15.672
14739W        W15603   3.080  16.195  16.965
14740W        W15604   0.266  15.608  17.154
14741W        W15605   2.777  15.443  16.154
14742W        W15606   3.124  15.535  17.736
14743W        W15607   2.275  17.317  16.099
14744W        W15608   1.524  17.901  15.840
14745W        W15609   0.672  15.012  15.013
14746W        W15610   1.671  14.586  16.630
14747W        W15611   0.753  17.716  14.614
14748W        W15612   1.138  16.433  15.283
14749W        W15613   1.871  16.946  17.625
14750W        W15614   1.671  15.081  15.597
14751W        W15615   2.849  14.722  15.982
14752W        W15616   2.689  18.212  16.335
14753W        W15617   2.080  17.912  16.621
14754W        W15618   1.449  16.844  16.768
14755W        W15619   3.248  17.553  16.876
14756W        W15620   0.918  14.904  15.462
14757W        W15621   1.477  17.372  16.672
14758W        W15622   1.085  15.017  14.674
14759W        W15623   1.750  15.826  16.803
14760W        W15624   2.547  14.714  16.833
14761W        W15625   0.167  16.648  16.875
14762W        W15626   1.542  16.234  14.809
14763W        W15627   0.817  14.555  14.748
14764W        W15628   1.619  15.823  15.800
14765W        W15629   2.368  14.849  17.305
14766W        W15630   1.377  16.805  17.561
14767W        W15631   2.173  16.557  17.854
14768W        W15632   2.670  16.481  17.642
14769W        W15633   1.930  14.916  18.252
14770W        W15634   1.174  15.250  16.309
14771W        W15635   0.740  15.276  15.990
14772W        W15636   0.645  17.937  15.579
14773W        W15637   2.013  17.437  17.723
14774W        W15638   0.841  16.893  15.094
14775W        W15639   2.512  16.515  16.452
14776W        W15640   2.652  16.072  16.707
14777W        W15641   1.861  16.586  16.605
14778W        W15642   2.298  16.979  14.732
14779W        W15643   1.956  15.006  16.028
14780W        W15644   3.377  15.381  15.394
14781W        W15645   0.310  18.073  17.507
14782W        W15646   0.557  17.252  17.182
14783W        W15647   0.053  18.072  15.283
14784W        W15648   2.035  15.397  16.719
14785W        W15649   1.083  17.360  14.835
14786W        W15650   3.091  18.007  15.152
14787W        W15651   1.977  16.222  15.104
14788W        W15652   0.894  15.620  15.533
14789W        W15653   2.042  15.382  14.756
14790W        W15654   2.383  17.033  17.744
14791W        W15655   2.698  15.028  15.353
14792W        W15656   0.294  14.700  14.828
14793W        W15657   1.496  17.135  17.181
14794W        W15658   1.184  17.054  16.375
14795W        W15659   0.747  16.801  14.586
14796W        W15660   0.308  17.607  15.331
14797W        W15661   0.805  16.273  17.964
14798W        W15662   1.560  14.865  17.876
14799W        W15663   1.911  14.985  17.004
14800W        W15664   1.374  14.659  15.604
14801W        W15665   2.186  14.571  15.190
14802W        W15666   0.324  14.840  16.704
14803W        W15667   0.375  15.632  16.086
14804W        W15668   3.041  14.786  16.642
14805W        W15669   0.544  15.257  15.460
14806W        W15670   2.834  15.071  17.045
14807W        W15671   3.368  16.212  14.544
14808W        W15672   0.763  15.045  16.492
14809W        W15673   1.923  15.572  17.263
14810W        W15674   0.216  15.214  14.864
14811W        W15675   0.876  16.664  17.627
14812W        W15676   2.118  16.125  16.540
14813W        W15677   1.632  18.104  15.015
14814W        W15678   0.305  16.524  14.723
14815W        W15679   1.077  17.088  17.875
14816W        W15680   0.591  16.240  17.483
14817W        W15681   1.428  16.491  17.150
14818W        W15682   2.879  14.723  17.428
14819W        W15683   3.654  16.440  17.403
14820W        W15684   3.102  16.668  15.333
14821W        W15685   2.179  16.710  15.194
14822W        W15686   2.891  18.100  14.681
14823W        W15687   2.027  16.150  18.239
14824W        W15688   0.329  17.066  18.135
14825W        W15689   3.635  15.107  18.033
14826W        W15690   2.986  15.801  16.436
14827W        W15691   1.761  18.145  18.113
14828W        W15692   1.458  14.678  14.818
14829W        W15693   3.002  17.201  14.731
14830W        W15694   0.809  15.312  17.835
14831W        W15695   1.498  17.327  17.672
14832W        W15696   3.227  15.322  17.266
14833W        W15697   2.630  18.249  15.117
14834W        W15698   3.010  16.624  16.659
14835W        W15699   1.134  15.105  17.405
14836W        W15700   1.574  16.192  17.947
14837W        W15701   0.928  17.349  15.366
14838W        W15702   2.615  16.593  15.490
14839W        W15703   0.731  15.398  17.284
14840W        W15704   1.798  17.417  15.882
14841W        W15705   3.366  15.962  16.093
14842W        W15706   1.874  14.676  17.437
14843W        W15707   2.832  17.518  16.583
14844W        W15708   3.094  17.992  16.629
14845W        W15709   1.989  17.492  14.686
14846W        W15710   0.222  17.415  17.773
14847W        W15711   1.040  15.390  16.816
14848W        W15712   0.954  14.798  15.991
14849W        W15713   2.536  15.545  16.652
14850W        W15714   1.209  16.631  14.806
14851W        W15715   3.519  16.735  16.634
14852W        W15716   0.671  17.474  18.056
14853W        W15717   3.088  18.227  15.631
14854W        W15718   1.197  15.216  15.745
14855W        W15719   0.909  16.655  16.146
14856W        W15720   1.179  18.093  16.974
14857W        W15721   3.149  18.070  17.883
14858W        W15722   2.339  16.404  16.932
14859W        W15723   0.327  16.111  15.110
14860W        W15724   3.383  17.851  15.835
14861W        W15725   2.994  15.345  15.051
14862W        W15726   1.357  14.643  17.456
14863W        W15727   3.211  17.654  16.267
14864W        W15728   2.877  15.903  15.931
14865W        W15729   1.149  15.663  15.999
14866W        W15730   1.591  16.010  17.333
14867W        W15731   2.643  17.077  17.294
14868W        W15732   1.363  15.568  17.422
14869W        W15733   1.199  17.996  16.219
14870W        W15734   0.760  18.088  17.831
14871W        W15735   0.568  17.334  14.946
14872W        W15736   3.283  17.294  15.903
14873W        W15737   0.935  15.858  17.400
14874W        W15738   3.402  15.631  14.872
14875W        W15739   1.244  16.929  15.420
14876W        W15740   2.177  16.184  17.394
14877W        W15741   2.256  15.859  16.978
14878W        W15742   0.970  16.276  17.097
14879W        W15743   2.878  18.290  16.964
14880W        W15744   2.764  14.914  17.920
14881W        W15745   0.538  14.909  17.636
14882W        W15746   0.976  16.066  16.603
14883W        W15747   1.283  15.663  14.694
14884W        W15748   0.162  17.593  17.293
14885W        W15749   1.443  16.258  16.691
14886W        W15750   1.569  15.195  14.723
14887W        W15751   0.697  16.209  15.459
14888W        W15752   0.400  17.936  16.998
14889W        W15753   2.937  16.269  14.838
14890W        W15754   3.222  15.037  17.705
14891W        W15755   2.807  17.325  16.105
14892W        W15756   0.310  16.150  18.042
14893W        W15757   3.130  14.858  15.141
14894W        W15758   2.846  17.199  15.219
14895W        W15759   1.549  16.058  15.314
14896W        W15760   2.787  14.956  14.763
14897W        W15761   2.809  15.627  17.100
14898W        W15762   0.538  16.104  16.340
14899W        W15763   0.963  17.136  15.883
14900W        W15764   2.451  15.642  15.803
14901W        W15765   1.641  15.099  16.513
14902W        W15766   3.547  17.146  16.951
14903W        W15767   3.462  15.213  16.812
14904W        W15768   0.269  17.838  15.915
14905W        W15769   0.468  17.102  15.419
14906W        W15770   0.615  14.908  18.129
14907W        W15771   1.703  17.601  18.111
14908W        W15772   3.434  16.483  16.189
14909W        W15773   2.735  16.754  14.939
14910W        W15774   2.182  18.194  17.055
14911W        W15775   2.911  16.817  17.981
14912W        W15776   1.664  14.438  15.231
14913W        W15777   2.272  15.359  16.230
14914W        W15778   0.210  17.066  16.561
14915W        W15779   1.338  15.029  15.195
14916W        W15780   1.219  16.573  17.996
14917W        W15781   1.995  15.451  15.768
14918W        W15782   2.368  16.910  16.893
14919W        W15783   0.626  17.646  17.558
14920W        W15784   1.189  17.590  18.025
14921W        W15785   1.010  15.403  15.062
14922W        W15786   2.410  15.461  15.310
14923W        W15787   2.467  17.531  17.513
14924W        W15788   1.159  16.174  16.143
14925W        W15789   0.835  17.685  17.089
14926W        W15790   3.401  17.939  14.724
14927W        W15791   0.408  16.619  17.829
14928W        W15792   2.190  16.924  16.412
14929W        W15793   0.789  16.725  15.601
14930W        W15794   1.336  17.623  17.097
14931W        W15795   1.454  14.883  16.060
14932W        W15796   0.092  16.998  15.085
14933W        W15797   1.736  15.770  14.917
14934W        W15798   0.513  16.419  15.923
14935W        W15799   1.658  15.144  17.441
14936W        W15800   3.257  14.758  14.633
14937W        W15801   3.399  16.622  17.811
14938W        W15802   2.148  17.846  18.005
14939W        W15803   3.574  16.962  17.440
14940W        W15804   3.008  17.588  18.059
14941W        W15805   0.865  18.165  16.570
14942W        W15806   3.349  16.791  15.791
14943W        W15807   2.089  15.993  15.953
14944W        W15808   1.951  14.617  15.653
14945W        W15809   1.057  17.666  15.779
14946W        W15810   1.544  15.382  16.957
14947W        W15811   1.190  14.738  16.484
14948W        W15812   0.368  17.909  14.900
14949W        W15813   1.978  16.918  15.917
14950W        W15814   1.118  17.809  17.528
14951W        W15815   0.411  16.611  15.260
14952W        W15816   0.260  15.230  16.373
14953W        W15817   1.701  17.038  16.345
14954W        W15818   0.184  14.911  15.294
14955W        W15819   2.657  16.118  17.234
14956W        W15820   2.564  15.450  14.791
14957W        W15821   3.192  17.155  16.472
14958W        W15822   1.878  17.515  16.386
14959W        W15823   1.276  17.866  15.350
14960W        W15824   2.398  14.586  14.651
14961W        W15825   0.436  17.851  16.459
14962W        W15826   2.170  15.670  18.104
14963W        W15827   0.607  15.385  18.337
14964W        W15828   0.378  15.794  15.567
14965W        W15829   1.046  15.935  15.127
14966W        W15830   2.384  16.079  17.848
14967W        W15831   1.018  16.587  16.652
14968W        W15832   2.505  14.612  15.597
14969W        W15833   1.707  18.172  16.253
14970W        W15834   2.772  17.533  17.090
14971W        W15835   2.472  17.751  16.291
14972W        W15836   2.502  16.819  16.011
14973W        W15837   1.829  14.925  15.103
14974W        W15838   3.411  14.689  15.902
14975W        W15839   1.052  16.133  14.628
14976W        W15840   3.222  15.507  15.895
14977W        W15841   1.967  16.578  14.743
14978W        W15842   3.062  16.850  17.488
14979W        W15843   2.774  17.646  14.913
14980W        W15844   1.325  15.326  17.878
14981W        W15845   1.251  15.840  16.978
14982W        W15846   3.231  17.332  17.353
14983W        W15847   2.231  15.256  17.602
14984W        W15848   0.203  15.891  17.575
14985W        W15849   1.866  16.269  17.002
14986W        W15850   0.410  16.943  15.924
14987W        W15851   0.562  16.336  16.802
14988W        W15852   2.780  16.608  17.125
14989W        W15853   2.604  17.941  17.802
14990W        W15854   2.415  15.717  17.466
14991W        W15855   2.852  17.860  15.949
14992W        W15856   1.800  17.550  17.265
14993W        W15857   1.079  17.693  16.634
14994W        W15858   3.016  17.070  16.946
14995W        W15859   2.013  17.092  18.112
14996W        W15860   0.687  17.072  16.333
14997W        W15861   3.001  16.787  16.162
14998W        W15862   2.575  17.935  16.765
14999W        W15863   0.630  17.426  16.686
15000W        W15864   1.616  15.714  18.111
15001W        W15865   1.799  17.826  15.427
15002W        W15866   1.485  17.140  18.179
15003W        W15867   1.425  17.408  15.532
15004W        W15868   0.497  16.028  14.625
15005W        W15869   0.219  18.313  21.650
15006W        W15870   0.581  17.058  21.206
15007W        W15871   3.148  16.629  18.999
15008W        W15872   3.323  17.853  21.023
15009W        W15873   1.425  17.901  18.431
15010W        W15874   1.138  16.121  19.293
15011W        W15875   0.675  16.047  19.526
15012W        W15876   1.669  16.637  19.016
15013W        W15877   1.608  17.769  21.335
15014W        W15878   0.246  15.332  21.190
15015W        W15879   0.844  14.505  21.087
15016W        W15880   2.437  15.021  19.901
15017W        W15881   2.244  15.855  18.716
15018W        W15882   2.775  15.425  21.693
15019W        W15883   0.226  15.140  20.680
15020W        W15884   0.410  17.765  21.724
15021W        W15885   1.712  16.875  18.557
15022W        W15886   0.237  15.820  20.243
15023W        W15887   1.088  15.895  21.625
15024W        W15888   3.234  15.508  20.051
15025W        W15889   3.264  16.603  20.761
15026W        W15890   1.529  15.934  19.720
15027W        W15891   2.192  17.389  20.246
15028W        W15892   0.585  16.741  20.412
15029W        W15893   0.029  16.277  20.134
15030W        W15894   1.180  16.185  21.176
15031W        W15895   3.365  16.024  21.457
15032W        W15896   0.877  17.415  19.774
15033W        W15897   2.019  17.177  20.965
15034W        W15898   1.259  15.746  20.120
15035W        W15899   1.475  16.584  19.812
15036W        W15900   2.390  17.470  21.702
15037W        W15901   1.673  16.622  21.787
15038W        W15902   1.663  16.361  21.322
15039W        W15903   0.136  15.704  21.759
15040W        W15904   2.795  17.224  21.456
15041W        W15905   0.520  14.722  19.496
15042W        W15906   1.000  17.073  20.367
15043W        W15907   3.334  17.025  19.803
15044W        W15908   2.745  15.518  20.284
15045W        W15909   3.016  15.324  18.194
15046W        W15910   3.521  16.083  20.681
15047W        W15911   1.527  17.823  20.344
15048W        W15912   3.286  17.508  18.709
15049W        W15913   0.587  18.309  18.663
15050W        W15914   0.846  18.198  19.340
15051W        W15915   0.667  14.881  20.792
15052W        W15916   3.213  15.827  21.016
15053W        W15917   2.492  16.267  19.621
15054W        W15918   2.541  15.970  18.316
15055W        W15919   1.842  17.099  20.464
15056W        W15920   1.452  15.375  19.710
15057W        W15921   2.122  17.643  20.742
15058W        W15922   2.970  16.332  19.403
15059W        W15923   2.113  15.072  19.120
15060W        W15924   0.720  17.878  18.940
15061W        W15925   0.236  15.135  19.364
15062W        W15926   2.493  15.894  19.979
15063W        W15927   0.371  17.423  19.827
15064W        W15928   1.378  17.402  18.645
15065W        W15929   3.005  15.835  18.153
15066W        W15930   0.248  17.595  20.540
15067W        W15931   0.991  17.305  21.007
15068W        W15932   1.266  16.611  19.334
15069W        W15933   1.262  14.967  20.623
15070W        W15934   3.388  14.785  20.193
15071W        W15935   0.769  16.401  18.500
15072W        W15936   0.476  15.709  18.775
15073W        W15937   0.576  17.497  19.341
15074W        W15938   1.506  17.030  19.472
15075W        W15939   2.882  17.703  21.246
15076W        W15940   1.905  15.520  18.970
15077W        W15941   3.178  17.965  19.870
15078W        W15942   2.822  15.822  21.356
15079W        W15943   3.611  17.435  19.606
15080W        W15944   2.221  16.697  21.043
15081W        W15945   0.202  16.194  19.199
15082W        W15946   0.915  16.815  20.809
15083W        W15947   1.984  15.977  19.172
15084W        W15948   2.172  16.445  19.257
15085W        W15949   0.672  15.825  20.562
15086W        W15950   0.581  15.814  21.539
15087W        W15951   0.761  14.610  19.970
15088W        W15952   1.973  15.132  20.136
15089W        W15953   1.879  15.215  21.602
15090W        W15954   2.301  14.994  18.649
15091W        W15955   3.359  17.628  21.509
15092W        W15956   2.196  14.793  21.529
15093W        W15957   3.295  17.091  21.569
15094W        W15958   2.809  15.290  21.186
15095W        W15959   2.456  15.238  19.436
15096W        W15960   2.926  16.247  21.615
15097W        W15961   0.676  17.875  19.715
15098W        W15962   1.419  15.497  18.796
15099W        W15963   1.054  14.917  21.503
15100W        W15964   2.847  15.483  19.226
15101W        W15965   3.133  15.908  19.154
15102W        W15966   1.181  18.047  21.428
15103W        W15967   1.016  14.529  18.793
15104W        W15968   3.300  15.076  19.771
15105W        W15969   3.533  17.355  18.275
15106W        W15970   0.251  16.717  19.956
15107W        W15971   2.349  15.161  18.113
15108W        W15972   3.467  17.517  20.083
15109W        W15973   3.396  14.767  20.744
15110W        W15974   1.925  15.910  21.451
15111W        W15975   1.757  17.147  18.992
15112W        W15976   2.537  16.468  21.862
15113W        W15977   2.049  14.673  19.901
15114W        W15978   0.720  15.804  20.013
15115W        W15979   0.397  16.647  20.900
15116W        W15980   2.207  17.870  19.788
15117W        W15981   3.172  15.687  20.527
15118W        W15982   2.072  17.949  21.174
15119W        W15983   3.272  16.639  18.334
15120W        W15984   1.692  16.318  19.424
15121W        W15985   3.615  14.769  21.283
15122W        W15986   1.764  16.727  20.811
15123W        W15987   1.802  15.621  20.021
15124W        W15988   2.571  16.122  19.131
15125W        W15989   2.767  15.815  18.776
15126W        W15990   2.927  17.636  19.059
15127W        W15991   2.798  17.036  19.908
15128W        W15992   2.479  16.346  18.675
15129W        W15993   2.035  16.539  19.777
15130W        W15994   2.884  16.506  19.887
15131W        W15995   0.520  15.391  20.310
15132W        W15996   3.071  16.314  21.135
15133W        W15997   3.452  17.958  20.330
15134W        W15998   1.369  17.500  19.699
15135W        W15999   2.531  17.921  20.911
15136W        W16000   2.360  15.333  20.847
15137W        W16001   1.663  17.994  20.835
15138W        W16002   3.194  15.057  19.253
15139W        W16003   2.994  16.167  20.638
15140W        W16004   0.209  15.671  20.744
15141W        W16005   2.798  15.398  19.780
15142W        W16006   3.223  15.517  21.436
15143W        W16007   2.218  17.256  19.718
15144W        W16008   1.544  17.876  19.377
15145W        W16009   0.744  14.933  18.619
15146W        W16010   1.727  14.722  20.415
15147W        W16011   0.936  17.710  18.489
15148W        W16012   1.139  16.449  18.858
15149W        W16013   1.801  16.870  21.335
15150W        W16014   1.628  15.178  19.238
15151W        W16015   2.831  14.911  19.586
15152W        W16016   2.656  18.045  20.000
15153W        W16017   2.035  17.890  20.294
15154W        W16018   1.470  16.792  20.287
15155W        W16019   3.297  17.532  20.620
15156W        W16020   0.830  14.954  19.135
15157W        W16021   1.446  17.319  20.212
15158W        W16022   1.071  15.108  18.278
15159W        W16023   1.645  15.771  20.482
15160W        W16024   2.436  15.058  20.414
15161W        W16025   0.072  16.688  20.451
15162W        W16026   1.588  16.378  18.466
15163W        W16027   0.976  14.589  18.294
15164W        W16028   1.465  15.720  19.253
15165W        W16029   2.481  14.862  21.091
15166W        W16030   1.337  16.706  21.110
15167W        W16031   2.125  16.536  21.552
15168W        W16032   2.615  16.574  21.342
15169W        W16033   1.954  14.887  21.998
15170W        W16034   0.966  15.337  19.971
15171W        W16035   0.696  15.337  19.498
15172W        W16036   0.372  17.980  19.303
15173W        W16037   1.928  17.389  21.447
15174W        W16038   0.775  16.895  18.688
15175W        W16039   2.423  16.393  20.126
15176W        W16040   2.537  15.972  20.479
15177W        W16041   1.947  16.599  20.293
15178W        W16042   2.510  16.988  18.256
15179W        W16043   1.978  15.096  19.620
15180W        W16044   3.385  15.462  19.016
15181W        W16045   0.340  17.998  21.230
15182W        W16046   0.581  17.197  20.692
15183W        W16047   0.121  18.131  18.868
15184W        W16048   1.893  15.292  20.618
15185W        W16049   0.997  17.217  18.363
15186W        W16050   3.096  17.982  18.680
15187W        W16051   1.986  16.305  18.771
15188W        W16052   0.839  15.712  19.157
15189W        W16053   2.027  15.393  18.494
15190W        W16054   2.306  17.028  21.416
15191W        W16055   2.690  14.979  19.055
15192W        W16056   0.263  14.763  18.475
15193W        W16057   1.369  17.053  20.717
15194W        W16058   1.196  17.019  19.878
15195W        W16059   0.767  16.787  18.158
15196W        W16060   0.268  17.615  18.930
15197W        W16061   0.752  16.301  21.678
15198W        W16062   1.480  14.925  21.789
15199W        W16063   1.983  14.982  21.042
15200W        W16064   1.300  14.772  19.262
15201W        W16065   2.199  14.595  18.971
15202W        W16066   0.378  14.747  20.345
15203W        W16067   0.321  15.506  19.814
15204W        W16068   2.917  15.024  20.137
15205W        W16069   0.458  15.226  18.917
15206W        W16070   2.898  15.187  20.667
15207W        W16071   3.438  16.127  18.280
15208W        W16072   0.838  14.983  20.321
15209W        W16073   1.894  15.487  21.120
15210W        W16074   0.120  15.259  18.506
15211W        W16075   0.837  16.600  21.259
15212W        W16076   2.046  16.048  20.246
15213W        W16077   1.917  18.131  18.610
15214W        W16078   0.279  16.599  18.346
15215W        W16079   1.082  17.014  21.427
15216W        W16080   0.518  16.217  21.216
15217W        W16081   1.291  16.456  20.645
15218W        W16082   2.984  14.792  21.054
15219W        W16083   3.617  16.398  21.090
15220W        W16084   3.376  16.206  18.798
15221W        W16085   2.154  16.795  18.873
15222W        W16086   2.807  18.031  18.264
15223W        W16087   2.087  16.111  21.935
15224W        W16088   0.363  17.056  21.925
15225W        W16089   3.688  15.095  21.709
15226W        W16090   2.980  15.988  20.126
15227W        W16091   1.551  18.124  21.779
15228W        W16092   1.457  14.753  18.380
15229W        W16093   3.063  17.142  18.363
15230W        W16094   0.869  15.394  21.495
15231W        W16095   1.499  17.249  21.174
15232W        W16096   3.290  15.215  21.014
15233W        W16097   2.644  18.231  18.736
15234W        W16098   2.767  16.739  20.339
15235W        W16099   1.035  15.168  21.047
15236W        W16100   1.561  16.105  21.773
15237W        W16101   0.907  17.381  18.917
15238W        W16102   2.635  16.648  19.096
15239W        W16103   0.636  15.395  20.839
15240W        W16104   1.825  17.437  19.429
15241W        W16105   3.303  16.004  19.708
15242W        W16106   1.721  14.715  21.384
15243W        W16107   2.660  17.243  20.370
15244W        W16108   2.986  17.665  20.236
15245W        W16109   1.882  17.365  18.531
15246W        W16110   0.224  17.323  21.510
15247W        W16111   1.024  15.445  20.488
15248W        W16112   0.999  14.935  19.645
15249W        W16113   2.236  15.555  20.336
15250W        W16114   1.220  16.760  18.459
15251W        W16115   3.284  16.684  20.229
15252W        W16116   0.715  17.321  21.646
15253W        W16117   3.026  18.148  19.164
15254W        W16118   1.151  15.316  19.258
15255W        W16119   0.887  16.657  19.668
15256W        W16120   1.088  18.037  20.559
15257W        W16121   3.148  18.109  21.578
15258W        W16122   2.282  16.386  20.631
15259W        W16123   0.324  16.159  18.609
15260W        W16124   3.283  17.758  19.411
15261W        W16125   2.953  15.325  18.751
15262W        W16126   1.309  14.711  21.081
15263W        W16127   3.072  17.458  19.769
15264W        W16128   2.833  15.870  19.587
15265W        W16129   1.066  15.708  19.620
15266W        W16130   1.636  15.924  21.010
15267W        W16131   2.588  17.074  20.997
15268W        W16132   1.260  15.637  21.217
15269W        W16133   1.192  18.041  19.700
15270W        W16134   0.699  18.162  21.544
15271W        W16135   0.529  17.345  18.551
15272W        W16136   3.213  17.264  19.303
15273W        W16137   0.806  15.819  21.073
15274W        W16138   3.244  15.735  18.596
15275W        W16139   1.251  16.965  18.939
15276W        W16140   2.093  16.210  21.083
15277W        W16141   2.094  15.825  20.742
15278W        W16142   0.821  16.295  20.804
15279W        W16143   2.963  17.978  20.635
15280W        W16144   2.707  14.922  21.559
15281W        W16145   0.558  14.908  21.320
15282W        W16146   0.982  16.141  20.325
15283W        W16147   1.146  15.611  18.333
15284W        W16148   0.308  17.507  21.042
15285W        W16149   1.500  16.223  20.196
15286W        W16150   1.550  15.262  18.354
15287W        W16151   0.690  16.194  19.000
15288W        W16152   0.345  18.099  20.723
15289W        W16153   2.958  16.225  18.498
15290W        W16154   3.204  15.010  21.491
15291W        W16155   2.699  17.282  19.450
15292W        W16156   0.246  16.202  21.678
15293W        W16157   3.149  14.841  18.771
15294W        W16158   2.920  17.121  18.901
15295W        W16159   1.531  16.134  18.953
15296W        W16160   2.758  14.972  18.436
15297W        W16161   2.752  15.672  20.835
15298W        W16162   0.591  16.318  19.987
15299W        W16163   0.992  17.121  19.378
15300W        W16164   2.378  15.737  19.399
15301W        W16165   1.467  15.269  20.246
15302W        W16166   3.524  17.062  20.658
15303W        W16167   3.409  15.219  20.482
15304W        W16168   0.083  17.835  19.698
15305W        W16169   0.438  17.117  19.022
15306W        W16170   0.631  14.918  21.849
15307W        W16171   1.474  17.621  21.863
15308W        W16172   3.388  16.517  19.749
15309W        W16173   2.821  16.722  18.579
15310W        W16174   2.121  18.205  20.725
15311W        W16175   2.930  16.757  21.708
15312W        W16176   1.530  14.544  18.859
15313W        W16177   2.255  15.483  19.833
15314W        W16178   0.268  17.145  20.261
15315W        W16179   1.248  15.003  18.792
15316W        W16180   1.219  16.506  21.593
15317W        W16181   1.887  15.576  19.490
15318W        W16182   2.313  16.911  20.585
15319W        W16183   0.743  17.692  21.291
15320W        W16184   1.179  17.511  21.468
15321W        W16185   0.917  15.402  18.756
15322W        W16186   2.428  15.430  18.938
15323W        W16187   2.386  17.509  21.186
15324W        W16188   1.093  16.197  19.821
15325W        W16189   0.707  17.711  20.763
15326W        W16190   3.380  17.844  18.288
15327W        W16191   0.387  16.669  21.522
15328W        W16192   2.317  16.902  20.075
15329W        W16193   0.786  16.701  19.167
15330W        W16194   1.136  17.520  20.560
15331W        W16195   1.530  14.853  19.737
15332W        W16196   0.114  17.033  18.625
15333W        W16197   1.745  15.853  18.582
15334W        W16198   0.431  16.505  19.513
15335W        W16199   1.505  15.160  21.249
15336W        W16200   3.227  14.852  18.204
15337W        W16201   3.369  16.553  21.519
15338W        W16202   2.001  17.871  21.691
15339W        W16203   3.554  16.925  21.142
15340W        W16204   2.893  17.673  21.749
15341W        W16205   0.783  18.198  20.118
15342W        W16206   3.487  16.836  19.349
15343W        W16207   2.048  16.013  19.716
15344W        W16208   1.815  14.693  19.320
15345W        W16209   1.022  17.713  19.357
15346W        W16210   1.439  15.424  20.798
15347W        W16211   1.248  14.721  20.158
15348W        W16212   0.431  17.851  18.498
15349W        W16213   1.991  16.903  19.398
15350W        W16214   1.208  17.774  20.997
15351W        W16215   0.388  16.614  18.871
15352W        W16216   0.511  15.046  19.903
15353W        W16217   1.796  17.010  19.927
15354W        W16218   0.047  14.919  18.913
15355W        W16219   2.597  16.143  20.997
15356W        W16220   2.561  15.474  18.443
15357W        W16221   3.155  17.173  20.258
15358W        W16222   1.818  17.552  19.943
15359W        W16223   1.234  17.852  18.910
15360W        W16224   2.379  14.646  18.272
15361W        W16225   0.377  17.882  20.126
15362W        W16226   2.292  15.655  21.719
15363W        W16227   0.605  15.456  21.955
15364W        W16228   0.346  15.688  19.296
15365W        W16229   1.081  15.925  18.758
15366W        W16230   2.416  16.119  21.501
15367W        W16231   1.019  16.607  20.155
15368W        W16232   2.339  14.736  19.463
15369W        W16233   1.701  18.058  19.898
15370W        W16234   2.803  17.504  20.785
15371W        W16235   2.589  17.529  19.936
15372W        W16236   2.471  16.784  19.586
15373W        W16237   1.771  14.998  18.749
15374W        W16238   3.579  14.749  19.477
15375W        W16239   1.178  16.136  18.294
15376W        W16240   3.246  15.525  19.528
15377W        W16241   2.129  16.635  18.376
15378W        W16242   3.039  16.832  21.193
15379W        W16243   2.798  17.566  18.533
15380W        W16244   1.376  15.427  21.670
15381W        W16245   1.194  15.897  20.726
15382W        W16246   3.201  17.322  21.101
15383W        W16247   2.329  15.266  21.365
15384W        W16248   0.152  15.853  21.236
15385W        W16249   1.778  16.247  20.645
15386W        W16250   0.476  17.014  19.522
15387W        W16251   0.416  16.264  20.480
15388W        W16252   2.727  16.605  20.830
15389W        W16253   2.495  17.953  21.475
15390W        W16254   2.345  15.734  21.178
15391W        W16255   2.776  17.822  19.537
15392W        W16256   1.626  17.494  20.738
15393W        W16257   1.080  17.755  20.100
15394W        W16258   3.007  17.037  20.714
15395W        W16259   1.990  17.033  21.820
15396W        W16260   0.678  17.002  19.985
15397W        W16261   2.980  16.835  19.465
15398W        W16262   2.519  17.757  20.418
15399W        W16263   0.679  17.474  20.262
15400W        W16264   1.794  15.650  21.867
15401W        W16265   1.728  17.705  18.904
15402W        W16266   1.502  17.120  21.703
15403W        W16267   1.371  17.419  19.166
15404W        W16268   0.702  15.903  18.339
15405W        W16269   0.213  18.414  25.189
15406W        W16270   0.604  17.116  24.875
15407W        W16271   2.962  16.387  22.649
15408W        W16272   3.411  17.870  24.641
15409W        W16273   1.236  17.958  22.195
15410W        W16274   1.154  16.023  22.971
15411W        W16275   0.719  15.961  23.285
15412W        W16276   1.589  16.654  22.727
15413W        W16277   1.646  17.867  24.980
15414W        W16278   0.272  15.406  24.816
15415W        W16279   0.853  14.524  24.789
15416W        W16280   2.558  14.992  23.643
15417W        W16281   2.306  15.853  22.358
15418W        W16282   2.780  15.450  25.313
15419W        W16283   0.271  15.062  24.362
15420W        W16284   0.386  17.862  25.294
15421W        W16285   1.678  16.882  22.241
15422W        W16286   0.263  15.865  23.801
15423W        W16287   1.037  15.798  25.232
15424W        W16288   3.303  15.508  23.712
15425W        W16289   3.265  16.630  24.454
15426W        W16290   1.581  16.072  23.660
15427W        W16291   2.142  17.572  23.998
15428W        W16292   0.628  16.733  24.100
15429W        W16293   0.041  16.321  23.915
15430W        W16294   1.142  16.173  24.866
15431W        W16295   3.322  16.062  25.120
15432W        W16296   0.884  17.515  23.641
15433W        W16297   2.104  17.264  24.676
15434W        W16298   1.436  15.630  23.874
15435W        W16299   1.474  16.599  23.588
15436W        W16300   2.449  17.494  25.420
15437W        W16301   1.671  16.699  25.438
15438W        W16302   1.658  16.477  24.953
15439W        W16303   0.122  15.751  25.453
15440W        W16304   2.831  17.289  25.137
15441W        W16305   0.466  14.873  23.105
15442W        W16306   0.955  17.201  24.078
15443W        W16307   3.488  16.998  23.574
15444W        W16308   2.776  15.292  24.012
15445W        W16309   3.242  15.318  21.931
15446W        W16310   3.600  16.103  24.356
15447W        W16311   1.655  17.848  24.045
15448W        W16312   3.496  17.628  22.431
15449W        W16313   0.550  18.421  22.560
15450W        W16314   0.831  18.183  22.945
15451W        W16315   0.861  14.763  24.323
15452W        W16316   3.232  15.862  24.654
15453W        W16317   2.439  16.244  23.236
15454W        W16318   2.621  15.969  21.955
15455W        W16319   1.860  17.147  24.091
15456W        W16320   1.613  15.409  23.440
15457W        W16321   2.208  17.747  24.496
15458W        W16322   2.944  16.334  23.172
15459W        W16323   2.148  14.965  22.881
15460W        W16324   0.708  17.890  22.505
15461W        W16325   0.053  15.197  23.151
15462W        W16326   2.433  15.954  23.645
15463W        W16327   0.400  17.438  23.462
15464W        W16328   1.343  17.474  22.371
15465W        W16329   3.095  15.813  21.856
15466W        W16330   0.070  17.658  24.147
15467W        W16331   0.819  17.460  24.513
15468W        W16332   1.171  16.526  22.994
15469W        W16333   1.293  15.049  24.155
15470W        W16334   3.507  14.731  23.795
15471W        W16335   0.713  16.459  22.188
15472W        W16336   0.483  15.641  22.440
15473W        W16337   0.555  17.597  22.975
15474W        W16338   1.376  16.950  23.176
15475W        W16339   2.977  17.784  24.933
15476W        W16340   1.770  15.447  22.662
15477W        W16341   3.289  18.088  23.622
15478W        W16342   2.830  15.870  24.990
15479W        W16343   3.737  17.403  23.324
15480W        W16344   2.201  16.759  24.696
15481W        W16345   0.164  16.353  22.911
15482W        W16346   0.939  16.916  24.495
15483W        W16347   2.045  15.876  22.810
15484W        W16348   2.021  16.375  22.967
15485W        W16349   0.666  15.890  24.157
15486W        W16350   0.526  15.803  25.128
15487W        W16351   0.762  14.781  23.544
15488W        W16352   2.238  15.149  24.006
15489W        W16353   1.927  15.282  25.257
15490W        W16354   2.387  15.025  22.364
15491W        W16355   3.427  17.670  25.148
15492W        W16356   2.195  14.822  25.122
15493W        W16357   3.283  17.114  25.274
15494W        W16358   2.840  15.314  24.812
15495W        W16359   2.483  15.210  23.163
15496W        W16360   2.909  16.294  25.315
15497W        W16361   0.656  17.962  23.383
15498W        W16362   1.341  15.716  22.606
15499W        W16363   1.041  14.971  25.034
15500W        W16364   2.828  15.511  22.928
15501W        W16365   3.120  15.931  22.875
15502W        W16366   1.223  18.139  25.145
15503W        W16367   1.031  14.636  22.497
15504W        W16368   3.310  15.064  23.458
15505W        W16369   3.461  17.362  21.983
15506W        W16370   0.280  16.723  23.688
15507W        W16371   2.356  15.171  21.864
15508W        W16372   3.528  17.470  23.803
15509W        W16373   3.404  14.788  24.527
15510W        W16374   1.937  15.942  25.126
15511W        W16375   1.709  17.159  22.671
15512W        W16376   2.509  16.506  25.560
15513W        W16377   2.159  14.668  23.771
15514W        W16378   0.747  15.603  23.709
15515W        W16379   0.467  16.701  24.598
15516W        W16380   2.149  17.958  23.625
15517W        W16381   3.220  15.630  24.204
15518W        W16382   2.150  17.981  24.952
15519W        W16383   3.309  16.831  22.051
15520W        W16384   1.580  16.289  23.195
15521W        W16385   3.738  14.727  24.920
15522W        W16386   1.710  16.917  24.532
15523W        W16387   1.949  15.679  23.790
15524W        W16388   2.597  16.015  22.781
15525W        W16389   2.914  15.905  22.379
15526W        W16390   3.147  17.695  22.806
15527W        W16391   2.662  17.161  23.587
15528W        W16392   2.548  16.314  22.345
15529W        W16393   1.988  16.485  23.487
15530W        W16394   2.958  16.252  23.706
15531W        W16395   0.345  15.404  23.989
15532W        W16396   3.041  16.341  24.807
15533W        W16397   3.506  17.909  24.087
15534W        W16398   1.338  17.406  23.411
15535W        W16399   2.620  18.041  24.662
15536W        W16400   2.460  15.315  24.454
15537W        W16401   1.766  18.044  24.516
15538W        W16402   3.230  15.094  22.939
15539W        W16403   3.091  16.171  24.248
15540W        W16404   0.198  15.770  24.327
15541W        W16405   2.871  15.361  23.473
15542W        W16406   3.227  15.550  25.069
15543W        W16407   2.172  17.335  23.515
15544W        W16408   1.521  17.826  23.167
15545W        W16409   0.583  15.123  22.362
15546W        W16410   1.687  14.688  24.044
15547W        W16411   0.926  17.779  21.825
15548W        W16412   1.140  16.450  22.499
15549W        W16413   1.847  16.970  25.028
15550W        W16414   1.647  15.071  23.022
15551W        W16415   2.868  14.877  23.238
15552W        W16416   2.778  18.137  23.776
15553W        W16417   2.113  18.096  24.121
15554W        W16418   1.373  16.867  24.120
15555W        W16419   3.301  17.492  24.288
15556W        W16420   0.879  15.060  22.802
15557W        W16421   1.430  17.371  23.934
15558W        W16422   1.060  15.177  21.985
15559W        W16423   1.700  15.926  24.193
15560W        W16424   2.583  14.766  24.125
15561W        W16425   0.127  16.763  24.182
15562W        W16426   1.595  16.366  22.232
15563W        W16427   1.078  14.653  21.979
15564W        W16428   1.601  15.774  23.070
15565W        W16429   2.501  14.866  24.700
15566W        W16430   1.343  16.894  24.915
15567W        W16431   2.128  16.582  25.217
15568W        W16432   2.599  16.593  24.985
15569W        W16433   1.959  14.909  25.605
15570W        W16434   1.169  15.240  23.664
15571W        W16435   0.793  15.311  23.271
15572W        W16436   0.344  18.044  22.841
15573W        W16437   2.027  17.501  25.116
15574W        W16438   0.755  16.980  22.297
15575W        W16439   2.472  16.460  23.715
15576W        W16440   2.602  16.141  24.105
15577W        W16441   1.826  16.651  23.962
15578W        W16442   2.498  16.980  21.888
15579W        W16443   2.055  15.070  23.464
15580W        W16444   3.506  15.448  22.696
15581W        W16445   0.368  18.139  24.744
15582W        W16446   0.461  17.145  24.357
15583W        W16447   0.158  18.131  22.374
15584W        W16448   1.992  15.500  24.301
15585W        W16449   1.085  17.251  21.985
15586W        W16450   3.204  18.076  22.446
15587W        W16451   2.045  16.275  22.469
15588W        W16452   0.825  15.658  22.862
15589W        W16453   2.070  15.407  22.228
15590W        W16454   2.352  17.058  25.131
15591W        W16455   2.756  15.032  22.731
15592W        W16456   0.237  14.789  22.173
15593W        W16457   1.309  17.268  24.456
15594W        W16458   1.174  17.010  23.660
15595W        W16459   0.797  16.808  21.794
15596W        W16460   0.226  17.624  22.527
15597W        W16461   0.789  16.244  25.254
15598W        W16462   1.494  14.979  25.310
15599W        W16463   2.012  15.063  24.644
15600W        W16464   1.367  14.638  22.900
15601W        W16465   2.169  14.559  22.352
15602W        W16466   0.442  14.729  23.985
15603W        W16467   0.366  15.597  23.342
15604W        W16468   3.017  14.856  23.854
15605W        W16469   0.446  15.327  22.857
15606W        W16470   2.942  14.999  24.405
15607W        W16471   3.497  16.139  21.941
15608W        W16472   0.773  15.120  23.962
15609W        W16473   1.865  15.551  24.799
15610W        W16474   0.134  15.315  22.192
15611W        W16475   0.889  16.629  24.901
15612W        W16476   2.047  16.182  23.901
15613W        W16477   1.750  17.909  22.204
15614W        W16478   0.226  16.575  22.040
15615W        W16479   1.065  17.313  24.922
15616W        W16480   0.551  16.246  24.812
15617W        W16481   1.326  16.540  24.544
15618W        W16482   2.969  14.680  24.817
15619W        W16483   3.591  16.414  24.794
15620W        W16484   3.381  16.159  22.467
15621W        W16485   2.071  16.774  22.602
15622W        W16486   2.874  18.113  22.015
15623W        W16487   2.100  16.200  25.575
15624W        W16488   0.451  17.081  25.509
15625W        W16489   3.719  15.066  25.333
15626W        W16490   2.874  15.768  23.849
15627W        W16491   1.682  18.152  25.390
15628W        W16492   1.513  14.654  22.278
15629W        W16493   2.960  17.208  21.959
15630W        W16494   0.798  15.411  24.964
15631W        W16495   1.573  17.375  24.890
15632W        W16496   3.312  15.307  24.619
15633W        W16497   2.738  18.365  22.453
15634W        W16498   2.721  16.821  23.996
15635W        W16499   1.057  15.214  24.569
15636W        W16500   1.470  16.089  25.275
15637W        W16501   0.882  17.399  22.608
15638W        W16502   2.494  16.537  22.816
15639W        W16503   0.612  15.427  24.427
15640W        W16504   1.771  17.357  23.148
15641W        W16505   3.324  15.992  23.415
15642W        W16506   1.731  14.725  24.938
15643W        W16507   2.665  17.348  24.067
15644W        W16508   3.046  17.693  23.875
15645W        W16509   1.813  17.380  22.176
15646W        W16510   0.249  17.409  25.102
15647W        W16511   1.030  15.525  24.149
15648W        W16512   1.153  14.944  23.241
15649W        W16513   2.411  15.659  24.064
15650W        W16514   1.220  16.737  22.066
15651W        W16515   3.230  16.667  23.936
15652W        W16516   0.734  17.454  25.307
15653W        W16517   3.179  18.201  22.987
15654W        W16518   1.248  15.399  23.010
15655W        W16519   0.881  16.723  23.359
15656W        W16520   1.121  18.220  24.261
15657W        W16521   3.232  18.142  25.201
15658W        W16522   2.282  16.524  24.222
15659W        W16523   0.360  16.161  22.464
15660W        W16524   3.438  17.795  23.221
15661W        W16525   3.035  15.409  22.458
15662W        W16526   1.298  14.753  24.633
15663W        W16527   3.172  17.395  23.417
15664W        W16528   2.849  15.859  23.335
15665W        W16529   1.182  15.727  23.417
15666W        W16530   1.626  16.013  24.709
15667W        W16531   2.615  17.115  24.696
15668W        W16532   1.252  15.650  24.791
15669W        W16533   1.167  18.160  23.337
15670W        W16534   0.706  18.241  25.193
15671W        W16535   0.600  17.483  22.151
15672W        W16536   3.415  17.258  22.937
15673W        W16537   0.794  15.837  24.661
15674W        W16538   3.423  15.693  22.240
15675W        W16539   1.228  16.984  22.537
15676W        W16540   2.111  16.273  24.793
15677W        W16541   2.174  15.999  24.369
15678W        W16542   0.870  16.360  24.395
15679W        W16543   3.031  18.023  24.295
15680W        W16544   2.741  14.939  25.189
15681W        W16545   0.614  14.981  24.732
15682W        W16546   1.073  16.003  23.870
15683W        W16547   1.299  15.731  22.089
15684W        W16548   0.309  17.601  24.613
15685W        W16549   1.423  16.342  24.072
15686W        W16550   1.566  15.283  22.160
15687W        W16551   0.709  16.299  22.842
15688W        W16552   0.238  18.173  24.159
15689W        W16553   3.031  16.329  22.104
15690W        W16554   3.274  15.026  25.061
15691W        W16555   3.159  16.801  23.057
15692W        W16556   0.282  16.233  25.290
15693W        W16557   3.241  14.951  22.438
15694W        W16558   3.185  17.187  22.436
15695W        W16559   1.591  16.150  22.706
15696W        W16560   2.840  15.030  22.064
15697W        W16561   2.767  15.738  24.443
15698W        W16562   0.582  16.280  23.806
15699W        W16563   0.877  17.218  23.208
15700W        W16564   2.406  15.727  23.154
15701W        W16565   1.732  15.211  23.921
15702W        W16566   3.561  17.057  24.387
15703W        W16567   3.379  15.139  24.123
15704W        W16568   0.159  17.855  23.271
15705W        W16569   0.425  17.173  22.684
15706W        W16570   0.553  14.863  25.240
15707W        W16571   1.690  17.632  25.464
15708W        W16572   3.370  16.508  23.450
15709W        W16573   2.826  16.772  22.253
15710W        W16574   2.193  18.323  24.575
15711W        W16575   2.862  16.818  25.364
15712W        W16576   1.805  14.495  22.700
15713W        W16577   2.370  15.458  23.594
15714W        W16578   0.203  17.205  23.905
15715W        W16579   1.346  15.085  22.586
15716W        W16580   1.218  16.534  25.274
15717W        W16581   2.006  15.437  23.114
15718W        W16582   2.328  17.033  24.276
15719W        W16583   0.730  17.777  24.910
15720W        W16584   1.227  17.652  25.246
15721W        W16585   0.969  15.444  22.411
15722W        W16586   2.344  15.441  22.695
15723W        W16587   2.487  17.582  24.899
15724W        W16588   1.115  16.257  23.433
15725W        W16589   0.666  17.932  24.373
15726W        W16590   3.369  17.876  21.983
15727W        W16591   0.441  16.696  25.141
15728W        W16592   2.231  16.906  23.785
15729W        W16593   0.813  16.859  22.834
15730W        W16594   1.137  17.700  24.190
15731W        W16595   1.576  14.899  23.534
15732W        W16596   0.056  17.014  22.338
15733W        W16597   1.774  15.853  22.328
15734W        W16598   0.475  16.426  23.308
15735W        W16599   1.503  15.189  24.841
15736W        W16600   3.337  14.811  21.950
15737W        W16601   3.330  16.590  25.209
15738W        W16602   2.140  17.927  25.462
15739W        W16603   3.581  16.932  24.883
15740W        W16604   2.995  17.674  25.451
15741W        W16605   0.835  17.981  23.885
15742W        W16606   3.677  16.820  23.132
15743W        W16607   1.994  15.974  23.347
15744W        W16608   1.866  14.642  23.198
15745W        W16609   1.018  17.707  23.159
15746W        W16610   1.493  15.476  24.380
15747W        W16611   1.201  14.703  23.805
15748W        W16612   0.606  18.143  22.061
15749W        W16613   1.881  16.847  23.125
15750W        W16614   1.215  17.789  24.701
15751W        W16615   0.421  16.667  22.554
15752W        W16616   0.391  15.135  23.563
15753W        W16617   1.714  17.062  23.595
15754W        W16618   0.098  15.001  22.633
15755W        W16619   2.588  16.187  24.632
15756W        W16620   2.608  15.487  22.185
15757W        W16621   3.110  17.168  23.881
15758W        W16622   1.758  17.615  23.607
15759W        W16623   1.190  17.860  22.709
15760W        W16624   2.447  14.682  21.951
15761W        W16625   0.341  17.869  23.762
15762W        W16626   2.292  15.661  25.368
15763W        W16627   0.615  15.371  25.452
15764W        W16628   0.343  15.867  22.899
15765W        W16629   0.895  15.983  22.452
15766W        W16630   2.428  16.141  25.167
15767W        W16631   1.022  16.555  23.847
15768W        W16632   2.382  14.694  23.265
15769W        W16633   1.653  18.143  23.591
15770W        W16634   2.828  17.564  24.501
15771W        W16635   2.569  17.664  23.663
15772W        W16636   2.394  16.769  23.300
15773W        W16637   1.850  14.979  22.484
15774W        W16638   3.557  14.720  23.148
15775W        W16639   1.130  16.217  22.032
15776W        W16640   3.278  15.533  23.193
15777W        W16641   2.104  16.612  22.091
15778W        W16642   3.041  16.862  24.869
15779W        W16643   3.002  17.639  22.258
15780W        W16644   1.522  15.576  25.213
15781W        W16645   1.215  15.964  24.374
15782W        W16646   3.218  17.338  24.785
15783W        W16647   2.359  15.292  24.978
15784W        W16648   0.141  15.922  24.816
15785W        W16649   1.811  16.405  24.411
15786W        W16650   0.407  16.958  23.212
15787W        W16651   0.369  16.286  24.310
15788W        W16652   2.728  16.651  24.481
15789W        W16653   2.607  17.980  25.233
15790W        W16654   2.343  15.767  24.802
15791W        W16655   2.930  17.872  23.335
15792W        W16656   1.742  17.528  24.425
15793W        W16657   1.281  17.823  23.698
15794W        W16658   3.013  17.073  24.374
15795W        W16659   1.969  17.148  25.493
15796W        W16660   0.659  17.056  23.686
15797W        W16661   2.907  16.727  23.517
15798W        W16662   2.571  17.846  24.148
15799W        W16663   0.577  17.539  24.054
15800W        W16664   1.821  15.776  25.587
15801W        W16665   1.687  17.690  22.689
15802W        W16666   1.447  17.170  25.355
15803W        W16667   1.306  17.380  22.895
15804W        W16668   0.562  15.970  22.033
15805W        W16669   0.269  18.231  28.881
15806W        W16670   0.561  17.151  28.454
15807W        W16671   3.162  16.739  26.266
15808W        W16672   3.428  17.845  28.196
15809W        W16673   1.316  17.940  25.688
15810W        W16674   1.334  16.097  26.597
15811W        W16675   0.720  15.834  26.741
15812W        W16676   1.765  16.769  26.268
15813W        W16677   1.560  17.899  28.438
15814W        W16678   0.233  15.459  28.379
15815W        W16679   0.728  14.692  28.175
15816W        W16680   2.569  15.066  27.228
15817W        W16681   2.209  15.859  25.951
15818W        W16682   2.768  15.306  28.683
15819W        W16683   0.335  15.068  28.023
15820W        W16684   0.249  17.747  28.764
15821W        W16685   1.617  17.025  25.846
15822W        W16686   0.369  15.875  27.458
15823W        W16687   1.320  15.917  28.730
15824W        W16688   3.493  15.554  27.316
15825W        W16689   3.329  16.644  28.062
15826W        W16690   1.624  16.111  27.053
15827W        W16691   2.283  17.463  27.545
15828W        W16692   0.638  16.846  27.686
15829W        W16693   0.085  16.288  27.297
15830W        W16694   1.250  16.396  28.557
15831W        W16695   3.362  16.042  28.727
15832W        W16696   0.912  17.518  27.069
15833W        W16697   2.153  17.253  28.190
15834W        W16698   1.400  15.770  27.409
15835W        W16699   1.477  16.616  27.121
15836W        W16700   2.569  17.356   0.130
15837W        W16701   1.577  16.614  28.939
15838W        W16702   1.733  16.543  28.441
15839W        W16703   0.060  15.747  28.810
15840W        W16704   2.857  17.347  28.707
15841W        W16705   0.475  14.864  26.584
15842W        W16706   0.976  17.264  27.668
15843W        W16707   3.446  17.039  27.080
15844W        W16708   2.805  15.450  27.534
15845W        W16709   3.260  15.331  25.540
15846W        W16710   3.746  16.093  27.955
15847W        W16711   1.534  17.895  27.588
15848W        W16712   3.309  17.199  26.087
15849W        W16713   0.535  18.326  26.134
15850W        W16714   0.885  18.171  26.549
15851W        W16715   0.834  15.041  27.805
15852W        W16716   3.480  15.810  28.292
15853W        W16717   2.704  16.328  26.848
15854W        W16718   2.589  15.994  25.627
15855W        W16719   1.863  17.206  27.675
15856W        W16720   1.635  15.491  26.962
15857W        W16721   2.379  17.679  28.015
15858W        W16722   3.173  16.526  26.741
15859W        W16723   2.210  15.110  26.506
15860W        W16724   0.756  17.856  26.158
15861W        W16725   0.199  15.284  26.636
15862W        W16726   2.690  15.933  27.193
15863W        W16727   0.387  17.468  27.059
15864W        W16728   1.554  17.523  25.939
15865W        W16729   3.070  15.829  25.520
15866W        W16730   0.227  17.666  27.872
15867W        W16731   0.979  17.329  28.187
15868W        W16732   1.233  16.609  26.644
15869W        W16733   1.357  14.981  27.871
15870W        W16734   3.544  14.786  27.409
15871W        W16735   0.734  16.615  25.594
15872W        W16736   0.675  15.890  26.147
15873W        W16737   0.616  17.548  26.599
15874W        W16738   1.526  17.011  26.722
15875W        W16739   2.980  17.799  28.511
15876W        W16740   1.982  15.525  26.292
15877W        W16741   3.256  18.200  27.140
15878W        W16742   2.985  15.896  28.413
15879W        W16743   3.639  17.460  26.837
15880W        W16744   2.229  16.735  28.249
15881W        W16745   0.366  16.255  26.317
15882W        W16746   1.066  16.856  27.967
15883W        W16747   2.322  15.965  26.435
15884W        W16748   2.252  16.452  26.606
15885W        W16749   0.636  15.921  27.905
15886W        W16750   0.524  15.855  28.559
15887W        W16751   0.435  14.729  27.065
15888W        W16752   2.194  15.079  27.575
15889W        W16753   1.897  15.283  28.747
15890W        W16754   2.389  15.044  25.995
15891W        W16755   3.464  17.547  28.740
15892W        W16756   2.390  14.773  28.628
15893W        W16757   3.251  17.081  28.908
15894W        W16758   3.008  15.417  28.245
15895W        W16759   2.567  15.349  26.804
15896W        W16760   2.962  16.306  28.951
15897W        W16761   0.661  17.960  26.976
15898W        W16762   1.487  15.611  26.473
15899W        W16763   1.020  15.003  28.752
15900W        W16764   3.020  15.428  26.531
15901W        W16765   3.202  15.896  26.398
15902W        W16766   1.184  18.116  28.950
15903W        W16767   1.076  14.701  26.043
15904W        W16768   3.405  15.147  27.021
15905W        W16769   3.449  17.445  25.634
15906W        W16770   0.372  16.709  27.207
15907W        W16771   2.388  15.164  25.475
15908W        W16772   3.507  17.520  27.355
15909W        W16773   3.516  14.799  27.927
15910W        W16774   2.082  15.786  28.620
15911W        W16775   1.919  17.246  26.234
15912W        W16776   2.464  16.434   0.074
15913W        W16777   2.169  14.641  27.277
15914W        W16778   0.766  15.602  27.222
15915W        W16779   0.383  16.790  28.126
15916W        W16780   2.238  17.906  27.167
15917W        W16781   3.353  15.630  27.838
15918W        W16782   2.075  17.952  28.318
15919W        W16783   3.224  16.735  25.732
15920W        W16784   1.722  16.464  26.669
15921W        W16785   3.620  14.734  28.417
15922W        W16786   1.770  16.853  28.034
15923W        W16787   1.911  15.759  27.294
15924W        W16788   2.879  16.310  26.360
15925W        W16789   2.745  15.887  26.115
15926W        W16790   3.025  17.580  26.494
15927W        W16791   2.627  17.126  27.335
15928W        W16792   2.448  16.322  26.045
15929W        W16793   2.006  16.534  27.091
15930W        W16794   3.052  16.383  27.264
15931W        W16795   0.497  15.396  27.628
15932W        W16796   3.075  16.392  28.433
15933W        W16797   3.507  17.959  27.657
15934W        W16798   1.415  17.493  26.963
15935W        W16799   2.585  18.114  28.312
15936W        W16800   2.490  15.387  27.946
15937W        W16801   1.678  18.150  28.006
15938W        W16802   3.390  15.071  26.518
15939W        W16803   3.222  16.140  27.983
15940W        W16804   0.105  15.648  27.863
15941W        W16805   3.000  15.507  27.059
15942W        W16806   3.309  15.507  28.652
15943W        W16807   2.226  17.269  27.062
15944W        W16808   1.566  17.915  26.682
15945W        W16809   0.686  15.058  25.872
15946W        W16810   1.745  14.794  27.572
15947W        W16811   0.833  17.892  25.565
15948W        W16812   0.878  16.409  26.074
15949W        W16813   1.823  17.037  28.524
15950W        W16814   1.710  15.155  26.582
15951W        W16815   2.939  15.001  26.832
15952W        W16816   2.780  18.238  27.304
15953W        W16817   2.037  17.907  27.657
15954W        W16818   1.401  16.896  27.582
15955W        W16819   3.278  17.512  27.823
15956W        W16820   0.897  15.044  26.375
15957W        W16821   1.419  17.405  27.473
15958W        W16822   1.123  15.324  25.426
15959W        W16823   1.728  15.946  27.784
15960W        W16824   2.677  14.962  27.726
15961W        W16825   0.146  16.678  27.678
15962W        W16826   1.612  16.275  25.741
15963W        W16827   1.010  14.828  25.531
15964W        W16828   1.838  15.969  26.589
15965W        W16829   2.718  14.984  28.258
15966W        W16830   1.342  16.885  28.401
15967W        W16831   2.106  16.688  28.795
15968W        W16832   2.602  16.555  28.583
15969W        W16833   1.994  14.826   0.043
15970W        W16834   1.232  15.307  27.267
15971W        W16835   0.692  15.311  26.794
15972W        W16836   0.384  17.997  26.526
15973W        W16837   1.910  17.545  28.580
15974W        W16838   0.851  17.011  25.897
15975W        W16839   2.501  16.415  27.307
15976W        W16840   2.794  16.236  27.700
15977W        W16841   1.803  16.607  27.573
15978W        W16842   2.447  17.018  25.647
15979W        W16843   2.062  15.122  27.034
15980W        W16844   3.539  15.506  26.291
15981W        W16845   0.297  18.108  28.386
15982W        W16846   0.521  17.268  27.955
15983W        W16847   0.054  18.118  26.160
15984W        W16848   2.038  15.542  27.747
15985W        W16849   1.112  17.415  25.685
15986W        W16850   3.113  17.925  26.083
15987W        W16851   1.952  16.297  26.182
15988W        W16852   0.986  15.556  26.415
15989W        W16853   2.075  15.393  25.795
15990W        W16854   2.452  17.058  28.585
15991W        W16855   2.887  15.023  26.239
15992W        W16856   0.328  14.728  25.713
15993W        W16857   1.434  17.226  27.968
15994W        W16858   1.199  17.053  27.141
15995W        W16859   0.951  16.983  25.311
15996W        W16860   0.242  17.627  26.171
15997W        W16861   0.733  16.315  28.742
15998W        W16862   1.519  14.944  28.858
15999W        W16863   1.864  15.116  27.974
16000W        W16864   1.344  14.785  26.521
16001W        W16865   2.167  14.642  26.283
16002W        W16866   0.395  14.864  27.564
16003W        W16867   0.303  15.687  26.986
16004W        W16868   3.059  15.021  27.358
16005W        W16869   0.523  15.391  26.234
16006W        W16870   3.145  15.141  27.849
16007W        W16871   3.404  16.247  25.594
16008W        W16872   0.781  15.080  27.302
16009W        W16873   1.821  15.558  28.244
16010W        W16874   0.212  15.351  25.790
16011W        W16875   0.838  16.699  28.398
16012W        W16876   2.079  16.193  27.493
16013W        W16877   1.799  17.986  25.853
16014W        W16878   0.204  16.648  25.602
16015W        W16879   1.019  17.190  28.669
16016W        W16880   0.507  16.297  28.260
16017W        W16881   1.417  16.461  28.021
16018W        W16882   3.113  14.622  28.221
16019W        W16883   3.634  16.357  28.383
16020W        W16884   3.387  16.302  26.126
16021W        W16885   2.299  16.816  26.234
16022W        W16886   2.947  18.154  25.626
16023W        W16887   2.134  16.023   0.123
16024W        W16888   0.576  16.957   0.060
16025W        W16889   3.623  15.119  28.793
16026W        W16890   3.118  15.889  27.461
16027W        W16891   1.744  18.031  28.896
16028W        W16892   1.490  14.814  25.787
16029W        W16893   2.950  17.203  25.694
16030W        W16894   0.885  15.490  28.592
16031W        W16895   1.439  17.398  28.446
16032W        W16896   3.512  15.260  28.226
16033W        W16897   2.716  18.290  26.064
16034W        W16898   2.826  16.734  27.575
16035W        W16899   1.045  15.114  28.261
16036W        W16900   1.771  16.173  28.788
16037W        W16901   0.993  17.406  26.201
16038W        W16902   2.731  16.763  26.554
16039W        W16903   0.682  15.457  28.119
16040W        W16904   1.868  17.435  26.737
16041W        W16905   3.667  16.005  27.089
16042W        W16906   1.893  14.792  28.513
16043W        W16907   2.766  17.452  27.707
16044W        W16908   3.063  17.797  27.432
16045W        W16909   2.079  17.543  25.817
16046W        W16910   0.212  17.221  28.810
16047W        W16911   0.998  15.535  27.693
16048W        W16912   0.922  14.848  26.879
16049W        W16913   2.436  15.857  27.645
16050W        W16914   1.237  16.688  25.769
16051W        W16915   3.347  16.754  27.528
16052W        W16916   0.668  17.485  28.881
16053W        W16917   3.077  18.251  26.505
16054W        W16918   1.222  15.243  26.744
16055W        W16919   0.843  16.697  26.955
16056W        W16920   1.110  18.160  27.861
16057W        W16921   3.371  18.068  28.688
16058W        W16922   2.362  16.524  27.788
16059W        W16923   0.443  16.249  25.804
16060W        W16924   3.361  17.888  26.734
16061W        W16925   3.058  15.483  26.011
16062W        W16926   1.330  14.686  28.459
16063W        W16927   3.130  17.485  26.999
16064W        W16928   3.158  16.024  26.921
16065W        W16929   1.185  15.732  26.931
16066W        W16930   1.614  16.043  28.298
16067W        W16931   2.709  17.326  28.210
16068W        W16932   1.290  15.606  28.296
16069W        W16933   1.188  18.006  27.029
16070W        W16934   0.711  17.993  28.763
16071W        W16935   0.610  17.477  25.824
16072W        W16936   3.183  17.095  26.636
16073W        W16937   0.959  16.017  28.345
16074W        W16938   3.436  15.821  25.889
16075W        W16939   1.269  16.953  26.242
16076W        W16940   2.169  16.273  28.470
16077W        W16941   2.170  15.904  28.095
16078W        W16942   0.909  16.370  27.927
16079W        W16943   3.079  18.224  27.731
16080W        W16944   2.848  14.824  28.863
16081W        W16945   0.564  15.073  28.489
16082W        W16946   0.933  16.027  27.476
16083W        W16947   1.322  15.756  25.668
16084W        W16948   0.131  17.444  28.329
16085W        W16949   1.406  16.278  27.520
16086W        W16950   1.583  15.313  25.697
16087W        W16951   0.837  16.292  26.574
16088W        W16952   0.463  18.120  27.899
16089W        W16953   2.951  16.285  25.838
16090W        W16954   3.186  15.013  28.544
16091W        W16955   2.706  17.234  26.811
16092W        W16956   0.211  16.236  28.690
16093W        W16957   3.377  15.079  26.005
16094W        W16958   2.815  17.166  26.246
16095W        W16959   1.402  16.414  26.192
16096W        W16960   2.855  15.033  25.711
16097W        W16961   2.850  15.779  27.931
16098W        W16962   0.578  16.206  27.069
16099W        W16963   1.025  17.185  26.674
16100W        W16964   2.744  15.832  26.677
16101W        W16965   1.729  15.282  27.423
16102W        W16966   3.559  17.086  27.941
16103W        W16967   3.651  15.234  27.704
16104W        W16968   0.123  17.885  26.954
16105W        W16969   0.507  17.189  26.254
16106W        W16970   0.559  14.973  28.987
16107W        W16971   1.730  17.519   0.091
16108W        W16972   3.573  16.530  27.088
16109W        W16973   2.749  16.741  25.961
16110W        W16974   2.210  18.289  27.953
16111W        W16975   2.775  16.871  28.972
16112W        W16976   1.656  14.548  26.185
16113W        W16977   2.357  15.524  27.257
16114W        W16978   0.255  17.161  27.503
16115W        W16979   1.350  15.193  26.169
16116W        W16980   1.025  16.734  28.890
16117W        W16981   2.116  15.584  26.787
16118W        W16982   2.480  17.035  27.844
16119W        W16983   0.580  17.664  28.374
16120W        W16984   1.263  17.599  28.898
16121W        W16985   0.954  15.490  25.907
16122W        W16986   2.517  15.474  26.305
16123W        W16987   2.430  17.613  28.529
16124W        W16988   1.108  16.248  27.040
16125W        W16989   0.801  17.740  27.931
16126W        W16990   3.430  17.969  25.670
16127W        W16991   0.370  16.712  28.645
16128W        W16992   2.199  16.883  27.429
16129W        W16993   0.798  16.793  26.422
16130W        W16994   1.307  17.714  28.010
16131W        W16995   1.548  14.949  27.037
16132W        W16996   0.109  17.080  25.923
16133W        W16997   1.678  15.876  26.071
16134W        W16998   0.414  16.558  26.715
16135W        W16999   1.541  15.147  28.372
16136W        W17000   3.344  14.819  25.553
16137W        W17001   3.406  16.570  28.786
16138W        W17002   2.192  17.719  28.974
16139W        W17003   3.509  16.963  28.467
16140W        W17004   3.082  17.587   0.094
16141W        W17005   0.792  18.239  27.444
16142W        W17006   3.615  16.781  26.616
16143W        W17007   2.227  16.066  26.974
16144W        W17008   1.893  14.689  26.745
16145W        W17009   1.086  17.713  26.621
16146W        W17010   1.500  15.481  27.840
16147W        W17011   1.218  14.781  27.402
16148W        W17012   0.374  17.957  25.796
16149W        W17013   2.027  16.920  26.703
16150W        W17014   1.066  17.775  28.461
16151W        W17015   0.457  16.711  26.049
16152W        W17016   0.311  15.218  27.171
16153W        W17017   1.751  17.058  27.187
16154W        W17018   0.196  14.999  26.160
16155W        W17019   2.605  16.172  28.194
16156W        W17020   2.589  15.504  25.795
16157W        W17021   3.117  17.202  27.436
16158W        W17022   1.851  17.574  27.268
16159W        W17023   1.330  17.898  26.211
16160W        W17024   2.419  14.672  25.549
16161W        W17025   0.358  17.989  27.402
16162W        W17026   2.421  15.613  28.963
16163W        W17027   0.468  15.468  28.895
16164W        W17028   0.284  15.771  26.475
16165W        W17029   1.174  15.952  26.124
16166W        W17030   2.556  16.055  28.723
16167W        W17031   1.007  16.594  27.433
16168W        W17032   2.429  14.776  26.831
16169W        W17033   1.725  18.071  27.152
16170W        W17034   2.910  17.825  28.011
16171W        W17035   2.652  17.608  27.200
16172W        W17036   2.447  16.795  26.974
16173W        W17037   1.857  15.033  26.101
16174W        W17038   3.688  14.772  26.824
16175W        W17039   1.092  16.203  25.659
16176W        W17040   3.434  15.614  26.793
16177W        W17041   2.049  16.673  25.796
16178W        W17042   2.988  16.910  28.468
16179W        W17043   2.560  17.847  25.782
16180W        W17044   1.351  15.414  28.793
16181W        W17045   1.230  15.955  27.905
16182W        W17046   3.215  17.367  28.315
16183W        W17047   2.235  15.214  28.366
16184W        W17048   0.104  15.938  28.282
16185W        W17049   1.934  16.356  28.007
16186W        W17050   0.509  17.058  26.770
16187W        W17051   0.550  16.360  27.557
16188W        W17052   2.766  16.646  28.085
16189W        W17053   2.678  17.845  28.918
16190W        W17054   2.533  15.658  28.385
16191W        W17055   2.869  17.954  26.884
16192W        W17056   1.808  17.610  28.031
16193W        W17057   1.050  17.786  27.486
16194W        W17058   3.039  17.054  27.927
16195W        W17059   2.099  17.207  28.923
16196W        W17060   0.702  17.098  27.252
16197W        W17061   2.961  16.852  27.066
16198W        W17062   2.562  17.930  27.624
16199W        W17063   0.588  17.552  27.509
16200W        W17064   1.727  15.704  28.995
16201W        W17065   1.859  17.756  26.299
16202W        W17066   1.463  17.112  28.908
16203W        W17067   1.458  17.423  26.430
16204W        W17068   0.698  15.851  25.622
16205W        W17069   0.288  21.952   3.377
16206W        W17070   0.549  20.757   3.052
16207W        W17071   3.219  20.440   0.735
16208W        W17072   3.454  21.507   2.638
16209W        W17073   1.466  21.539   0.256
16210W        W17074   1.288  19.706   1.083
16211W        W17075   0.817  19.562   1.419
16212W        W17076   1.751  20.241   0.761
16213W        W17077   1.660  21.465   3.069
16214W        W17078   0.167  18.942   2.996
16215W        W17079   0.870  18.188   2.684
16216W        W17080   2.598  18.651   1.745
16217W        W17081   2.269  19.469   0.351
16218W        W17082   2.804  19.002   3.307
16219W        W17083   0.275  18.711   2.550
16220W        W17084   0.428  21.465   3.463
16221W        W17085   1.878  20.783   0.360
16222W        W17086   0.243  19.443   2.084
16223W        W17087   1.067  19.627   3.331
16224W        W17088   3.422  19.144   1.773
16225W        W17089   3.319  20.306   2.518
16226W        W17090   1.707  19.669   1.654
16227W        W17091   2.250  21.005   1.992
16228W        W17092   0.608  20.371   2.243
16229W        W17093   0.020  19.872   1.898
16230W        W17094   1.144  19.939   2.920
16231W        W17095   3.323  19.668   3.115
16232W        W17096   0.965  21.024   1.632
16233W        W17097   2.081  20.855   2.661
16234W        W17098   1.364  19.253   1.985
16235W        W17099   1.603  20.216   1.624
16236W        W17100   2.396  21.082   3.398
16237W        W17101   1.694  20.240   3.415
16238W        W17102   1.668  19.974   2.958
16239W        W17103   0.125  19.282   3.398
16240W        W17104   2.804  20.968   3.076
16241W        W17105   0.534  18.502   1.129
16242W        W17106   1.026  20.685   2.188
16243W        W17107   3.513  20.583   1.554
16244W        W17108   3.109  18.742   1.888
16245W        W17109   3.325  18.958   0.163
16246W        W17110   3.618  19.775   2.409
16247W        W17111   1.600  21.384   2.132
16248W        W17112   3.446  20.914   0.794
16249W        W17113   0.552  21.944   0.742
16250W        W17114   0.884  21.806   1.115
16251W        W17115   0.779  18.639   2.448
16252W        W17116   3.192  19.511   2.621
16253W        W17117   2.679  19.896   1.228
16254W        W17118   2.757  19.604   0.346
16255W        W17119   1.801  20.899   2.223
16256W        W17120   1.680  19.000   1.475
16257W        W17121   2.123  21.347   2.469
16258W        W17122   3.165  20.005   1.045
16259W        W17123   2.247  18.690   0.911
16260W        W17124   0.729  21.445   0.721
16261W        W17125   0.247  18.909   1.232
16262W        W17126   2.906  19.256   1.863
16263W        W17127   0.443  21.022   1.636
16264W        W17128   1.764  21.279   0.645
16265W        W17129   3.015  19.372  28.962
16266W        W17130   0.269  21.213   2.336
16267W        W17131   0.994  20.920   2.778
16268W        W17132   1.291  20.254   1.208
16269W        W17133   1.227  18.783   2.207
16270W        W17134   3.517  18.387   1.901
16271W        W17135   0.686  20.111   0.173
16272W        W17136   0.437  19.318   0.541
16273W        W17137   0.606  21.080   1.123
16274W        W17138   1.553  20.749   1.359
16275W        W17139   2.999  21.465   2.893
16276W        W17140   1.953  19.165   0.671
16277W        W17141   3.214  21.650   1.472
16278W        W17142   2.830  19.459   3.016
16279W        W17143   3.593  21.014   1.288
16280W        W17144   2.239  20.330   2.727
16281W        W17145   0.309  19.774   0.741
16282W        W17146   0.941  20.435   2.629
16283W        W17147   2.222  19.561   0.873
16284W        W17148   2.204  20.042   1.041
16285W        W17149   0.552  19.564   2.486
16286W        W17150   0.617  19.405   3.243
16287W        W17151   0.505  18.341   1.615
16288W        W17152   2.178  18.652   2.089
16289W        W17153   1.958  18.876   3.299
16290W        W17154   2.424  18.719   0.412
16291W        W17155   3.506  21.402   3.157
16292W        W17156   2.205  18.390   3.210
16293W        W17157   3.242  20.742   3.253
16294W        W17158   2.861  18.841   2.795
16295W        W17159   2.617  18.845   1.216
16296W        W17160   2.913  19.879   3.323
16297W        W17161   0.716  21.454   1.508
16298W        W17162   1.445  19.206   0.786
16299W        W17163   1.048  18.606   3.118
16300W        W17164   2.986  19.124   0.963
16301W        W17165   3.426  19.557   0.901
16302W        W17166   1.289  21.806   3.095
16303W        W17167   1.098  18.233   0.518
16304W        W17168   3.473  18.695   1.513
16305W        W17169   3.574  21.016   0.270
16306W        W17170   0.304  20.306   1.779
16307W        W17171   2.451  18.665  28.878
16308W        W17172   3.507  21.223   1.774
16309W        W17173   3.455  18.342   2.426
16310W        W17174   1.935  19.500   3.172
16311W        W17175   1.841  20.757   0.869
16312W        W17176   2.516  20.071   3.585
16313W        W17177   2.023  18.335   1.718
16314W        W17178   0.844  19.200   1.826
16315W        W17179   0.404  20.351   2.729
16316W        W17180   2.194  21.502   1.470
16317W        W17181   3.126  19.067   2.307
16318W        W17182   2.118  21.683   2.884
16319W        W17183   3.271  20.372   0.234
16320W        W17184   1.728  19.942   1.201
16321W        W17185   3.617  18.411   2.935
16322W        W17186   1.823  20.441   2.471
16323W        W17187   1.996  19.227   1.798
16324W        W17188   2.916  19.600   0.828
16325W        W17189   3.258  19.490   0.403
16326W        W17190   2.970  21.108   0.900
16327W        W17191   2.772  20.725   1.596
16328W        W17192   2.579  19.956   0.692
16329W        W17193   2.099  20.063   1.560
16330W        W17194   3.093  19.834   1.743
16331W        W17195   0.515  19.016   2.197
16332W        W17196   3.065  19.979   2.810
16333W        W17197   3.448  21.605   2.103
16334W        W17198   1.410  21.236   1.485
16335W        W17199   2.562  21.636   2.618
16336W        W17200   2.396  18.855   2.519
16337W        W17201   1.699  21.701   2.593
16338W        W17202   3.280  18.715   1.048
16339W        W17203   3.064  19.946   2.268
16340W        W17204   0.069  19.209   2.514
16341W        W17205   3.040  18.995   1.449
16342W        W17206   3.242  19.154   3.014
16343W        W17207   2.221  20.859   1.473
16344W        W17208   1.547  21.561   1.108
16345W        W17209   0.599  18.768   0.394
16346W        W17210   1.701  18.269   2.127
16347W        W17211   0.953  21.460   0.255
16348W        W17212   1.242  20.092   0.702
16349W        W17213   1.831  20.543   3.001
16350W        W17214   1.742  18.801   1.012
16351W        W17215   2.983  18.472   1.430
16352W        W17216   2.643  21.722   1.684
16353W        W17217   2.077  21.513   1.993
16354W        W17218   1.477  20.456   2.087
16355W        W17219   3.236  21.172   2.287
16356W        W17220   0.944  18.625   0.832
16357W        W17221   1.394  20.944   1.911
16358W        W17222   1.102  18.657   0.189
16359W        W17223   1.756  19.522   2.159
16360W        W17224   2.571  18.317   2.219
16361W        W17225   0.102  20.332   2.256
16362W        W17226   1.598  19.927   0.320
16363W        W17227   0.724  18.311   0.159
16364W        W17228   1.723  19.416   1.184
16365W        W17229   2.511  18.413   2.769
16366W        W17230   1.329  20.438   2.998
16367W        W17231   2.153  20.168   3.226
16368W        W17232   2.618  20.155   3.004
16369W        W17233   1.982  18.490   3.676
16370W        W17234   1.232  18.862   1.682
16371W        W17235   0.754  18.999   1.360
16372W        W17236   0.416  21.586   1.103
16373W        W17237   1.960  21.053   3.113
16374W        W17238   0.944  20.480   0.470
16375W        W17239   2.587  20.015   1.748
16376W        W17240   2.674  19.641   2.123
16377W        W17241   1.935  20.197   2.025
16378W        W17242   2.381  20.555   0.186
16379W        W17243   2.146  18.748   1.471
16380W        W17244   3.851  19.241   0.882
16381W        W17245   0.418  21.642   2.958
16382W        W17246   0.576  20.816   2.514
16383W        W17247   0.079  21.749   0.745
16384W        W17248   1.967  19.083   2.297
16385W        W17249   1.407  20.989   0.415
16386W        W17250   3.250  21.346   0.545
16387W        W17251   2.094  19.918   0.534
16388W        W17252   0.960  19.313   0.987
16389W        W17253   2.075  19.009   0.182
16390W        W17254   2.337  20.658   3.113
16391W        W17255   2.818  18.675   0.764
16392W        W17256   0.220  18.428   0.330
16393W        W17257   1.408  20.718   2.554
16394W        W17258   1.195  20.534   1.651
16395W        W17259   0.948  20.925   0.204
16396W        W17260   0.239  21.249   0.741
16397W        W17261   0.730  19.981   3.480
16398W        W17262   1.514  18.669   3.413
16399W        W17263   1.760  18.642   2.468
16400W        W17264   1.365  18.392   1.043
16401W        W17265   2.227  18.276   0.614
16402W        W17266   0.386  18.496   2.104
16403W        W17267   0.359  19.331   1.588
16404W        W17268   2.994  18.237   1.905
16405W        W17269   0.582  18.965   0.865
16406W        W17270   2.995  18.568   2.357
16407W        W17271   3.502  19.910   0.205
16408W        W17272   0.822  18.667   1.906
16409W        W17273   1.964  18.982   2.798
16410W        W17274   0.070  18.910   0.346
16411W        W17275   0.834  20.326   3.106
16412W        W17276   2.181  19.704   1.916
16413W        W17277   1.966  21.622   0.314
16414W        W17278   0.182  20.252   0.155
16415W        W17279   1.012  20.795   3.270
16416W        W17280   0.608  19.869   2.961
16417W        W17281   1.374  20.178   2.519
16418W        W17282   3.032  18.322   2.807
16419W        W17283   3.619  20.037   2.849
16420W        W17284   3.570  20.026   0.705
16421W        W17285   2.276  20.407   0.677
16422W        W17286   3.030  21.718   0.217
16423W        W17287   2.092  19.733   3.625
16424W        W17288   0.244  20.646   3.613
16425W        W17289   3.640  18.765   3.382
16426W        W17290   3.282  19.514   2.107
16427W        W17291   1.677  21.831   3.452
16428W        W17292   1.545  18.357   0.269
16429W        W17293   3.080  20.842   0.397
16430W        W17294   0.640  18.901   3.170
16431W        W17295   1.452  20.952   3.047
16432W        W17296   3.366  18.787   2.674
16433W        W17297   2.709  21.808   0.618
16434W        W17298   2.804  20.416   2.015
16435W        W17299   1.043  18.965   2.755
16436W        W17300   1.562  19.737   3.445
16437W        W17301   0.977  20.979   0.726
16438W        W17302   2.778  20.348   0.959
16439W        W17303   0.560  19.112   2.709
16440W        W17304   1.874  21.163   1.211
16441W        W17305   3.566  19.581   1.520
16442W        W17306   1.753  18.486   2.977
16443W        W17307   2.747  20.961   2.062
16444W        W17308   3.014  21.401   1.884
16445W        W17309   2.217  21.174   0.371
16446W        W17310   0.168  21.056   3.304
16447W        W17311   0.967  19.249   2.341
16448W        W17312   0.972  18.521   1.405
16449W        W17313   2.444  19.144   2.097
16450W        W17314   1.451  20.438   0.336
16451W        W17315   3.314  20.332   1.979
16452W        W17316   0.625  20.997   3.527
16453W        W17317   3.111  21.839   0.943
16454W        W17318   1.249  18.899   1.160
16455W        W17319   0.812  20.200   1.465
16456W        W17320   1.244  21.677   2.379
16457W        W17321   3.188  21.805   3.250
16458W        W17322   2.337  20.032   2.295
16459W        W17323   0.339  19.725   0.217
16460W        W17324   3.391  21.413   1.038
16461W        W17325   3.402  19.076   0.684
16462W        W17326   1.293  18.520   2.649
16463W        W17327   3.093  21.137   1.436
16464W        W17328   3.089  19.516   1.320
16465W        W17329   1.278  19.341   1.467
16466W        W17330   1.820  19.463   2.672
16467W        W17331   2.585  20.734   2.676
16468W        W17332   1.426  19.469   2.995
16469W        W17333   1.215  21.718   1.490
16470W        W17334   0.804  21.763   3.268
16471W        W17335   0.481  21.150   0.295
16472W        W17336   3.139  20.685   1.187
16473W        W17337   0.936  19.470   2.828
16474W        W17338   3.766  19.525   0.454
16475W        W17339   1.337  20.589   0.813
16476W        W17340   2.156  19.835   2.812
16477W        W17341   2.242  19.522   2.393
16478W        W17342   0.896  19.947   2.457
16479W        W17343   3.002  21.660   2.360
16480W        W17344   2.733  18.466   3.244
16481W        W17345   0.522  18.472   2.934
16482W        W17346   1.014  19.659   2.024
16483W        W17347   1.292  19.294   0.165
16484W        W17348   0.295  21.156   2.831
16485W        W17349   1.466  19.935   2.053
16486W        W17350   1.582  18.869   0.162
16487W        W17351   0.805  19.829   0.938
16488W        W17352   0.377  21.720   2.464
16489W        W17353   3.085  19.974   0.521
16490W        W17354   3.198  18.657   3.163
16491W        W17355   2.605  20.819   1.117
16492W        W17356   0.275  19.778   3.393
16493W        W17357   3.309  18.573   0.557
16494W        W17358   2.586  20.845   0.581
16495W        W17359   1.699  19.664   0.742
16496W        W17360   2.899  18.609   0.239
16497W        W17361   2.716  19.278   2.524
16498W        W17362   0.420  19.855   1.559
16499W        W17363   1.045  20.774   1.203
16500W        W17364   2.605  19.386   1.174
16501W        W17365   1.687  18.777   1.948
16502W        W17366   3.536  20.763   2.406
16503W        W17367   3.557  18.808   2.169
16504W        W17368   0.161  21.421   1.506
16505W        W17369   0.498  20.786   0.696
16506W        W17370   0.676  18.497   3.508
16507W        W17371   1.620  21.150   3.501
16508W        W17372   3.490  20.085   1.436
16509W        W17373   2.787  20.384   0.448
16510W        W17374   2.145  21.897   2.397
16511W        W17375   2.848  20.417   3.374
16512W        W17376   1.703  18.188   0.723
16513W        W17377   2.463  19.152   1.594
16514W        W17378   0.308  20.765   2.069
16515W        W17379   1.394  18.710   0.625
16516W        W17380   1.206  20.135   3.404
16517W        W17381   2.150  19.133   1.152
16518W        W17382   2.301  20.571   2.286
16519W        W17383   0.746  21.256   3.086
16520W        W17384   1.171  21.371   3.371
16521W        W17385   0.994  19.073   0.529
16522W        W17386   2.489  19.130   0.731
16523W        W17387   2.398  21.221   2.893
16524W        W17388   1.217  19.872   1.581
16525W        W17389   0.731  21.334   2.558
16526W        W17390   3.528  21.542   0.173
16527W        W17391   0.360  20.278   3.268
16528W        W17392   2.331  20.476   1.805
16529W        W17393   0.836  20.376   0.960
16530W        W17394   1.187  21.153   2.352
16531W        W17395   1.565  18.492   1.503
16532W        W17396   0.044  20.662   0.421
16533W        W17397   1.771  19.431   0.247
16534W        W17398   0.409  20.127   1.112
16535W        W17399   1.494  18.939   2.983
16536W        W17400   3.356  18.414   0.072
16537W        W17401   3.299  20.212   3.206
16538W        W17402   2.080  21.509   3.368
16539W        W17403   3.587  20.566   2.890
16540W        W17404   2.944  21.369   3.398
16541W        W17405   0.797  21.782   2.180
16542W        W17406   3.618  20.480   1.053
16543W        W17407   2.176  19.586   1.400
16544W        W17408   1.945  18.345   1.175
16545W        W17409   1.046  21.325   1.146
16546W        W17410   1.480  19.125   2.494
16547W        W17411   1.244  18.355   1.884
16548W        W17412   0.463  21.677   0.284
16549W        W17413   1.944  20.439   1.260
16550W        W17414   1.201  21.384   2.823
16551W        W17415   0.450  20.277   0.606
16552W        W17416   0.381  18.840   1.721
16553W        W17417   1.847  20.643   1.772
16554W        W17418   0.165  18.652   0.791
16555W        W17419   2.634  19.770   2.641
16556W        W17420   2.921  19.096   0.448
16557W        W17421   3.208  20.826   1.896
16558W        W17422   1.844  21.150   1.724
16559W        W17423   1.252  21.433   0.693
16560W        W17424   2.528  18.254   0.189
16561W        W17425   0.439  21.496   1.944
16562W        W17426   2.326  19.236   3.399
16563W        W17427   0.654  19.044   3.656
16564W        W17428   0.427  19.406   1.084
16565W        W17429   1.183  19.599   0.572
16566W        W17430   2.427  19.717   3.213
16567W        W17431   1.012  20.184   1.983
16568W        W17432   2.464  18.347   1.272
16569W        W17433   1.718  21.654   1.613
16570W        W17434   2.785  21.177   2.531
16571W        W17435   2.593  21.209   1.628
16572W        W17436   2.465  20.368   1.344
16573W        W17437   1.894  18.664   0.537
16574W        W17438   3.646  18.333   1.162
16575W        W17439   1.152  19.890   0.080
16576W        W17440   3.481  19.155   1.232
16577W        W17441   1.942  20.300   0.252
16578W        W17442   3.005  20.504   2.878
16579W        W17443   2.744  21.320   0.404
16580W        W17444   1.090  19.122   3.257
16581W        W17445   1.338  19.640   2.487
16582W        W17446   3.231  20.995   2.785
16583W        W17447   2.402  18.846   3.033
16584W        W17448   0.224  19.481   2.923
16585W        W17449   1.823  19.930   2.447
16586W        W17450   0.466  20.598   1.324
16587W        W17451   0.529  19.894   2.067
16588W        W17452   2.737  20.271   2.508
16589W        W17453   2.568  21.652   3.163
16590W        W17454   2.334  19.338   2.868
16591W        W17455   2.774  21.525   1.216
16592W        W17456   1.652  21.181   2.629
16593W        W17457   1.107  21.439   1.915
16594W        W17458   3.024  20.703   2.396
16595W        W17459   1.942  20.709   3.499
16596W        W17460   0.712  20.607   1.790
16597W        W17461   2.986  20.270   1.478
16598W        W17462   2.561  21.443   2.133
16599W        W17463   0.725  21.092   2.086
16600W        W17464   1.573  19.209   3.436
16601W        W17465   2.069  21.575   0.949
16602W        W17466   1.431  20.658   3.510
16603W        W17467   1.435  21.058   0.973
16604W        W17468   0.811  19.505   0.213
16605W        W17469   0.176  22.022   7.089
16606W        W17470   0.574  20.774   6.666
16607W        W17471   3.334  20.365   4.830
16608W        W17472   3.307  21.730   6.387
16609W        W17473   1.461  21.531   3.824
16610W        W17474   1.197  19.639   4.638
16611W        W17475   0.790  19.550   4.955
16612W        W17476   1.656  20.193   4.381
16613W        W17477   1.652  21.515   6.611
16614W        W17478   0.339  19.067   6.729
16615W        W17479   0.798  18.139   6.545
16616W        W17480   2.602  18.634   5.389
16617W        W17481   2.254  19.411   4.039
16618W        W17482   2.749  19.027   7.026
16619W        W17483   0.295  18.751   6.119
16620W        W17484   0.322  21.530   7.129
16621W        W17485   1.682  20.532   3.964
16622W        W17486   0.334  19.495   5.540
16623W        W17487   1.171  19.489   6.766
16624W        W17488   3.415  19.083   5.408
16625W        W17489   3.129  20.401   6.169
16626W        W17490   1.646  19.641   5.348
16627W        W17491   2.377  21.045   5.684
16628W        W17492   0.602  20.517   6.017
16629W        W17493   0.068  19.944   5.542
16630W        W17494   1.207  19.984   6.582
16631W        W17495   3.297  19.663   6.840
16632W        W17496   0.888  21.074   5.226
16633W        W17497   2.210  20.880   6.227
16634W        W17498   1.311  19.323   5.542
16635W        W17499   1.539  20.181   5.240
16636W        W17500   2.192  21.066   7.080
16637W        W17501   1.475  20.336   7.080
16638W        W17502   1.710  20.121   6.544
16639W        W17503   0.192  19.337   7.162
16640W        W17504   2.793  20.933   6.790
16641W        W17505   0.497  18.484   4.832
16642W        W17506   1.051  20.750   5.831
16643W        W17507   3.218  20.878   5.466
16644W        W17508   2.989  18.901   5.640
16645W        W17509   3.212  18.944   3.611
16646W        W17510   3.658  19.655   6.105
16647W        W17511   1.613  21.511   5.739
16648W        W17512   3.517  21.150   4.600
16649W        W17513   0.606  21.923   4.298
16650W        W17514   0.972  21.815   4.666
16651W        W17515   0.749  18.443   6.083
16652W        W17516   3.245  19.465   6.364
16653W        W17517   2.439  19.786   4.884
16654W        W17518   2.606  19.572   3.663
16655W        W17519   1.919  20.796   5.791
16656W        W17520   1.646  19.008   5.118
16657W        W17521   2.210  21.382   6.092
16658W        W17522   2.874  20.069   4.900
16659W        W17523   2.216  18.530   4.535
16660W        W17524   0.763  21.429   4.362
16661W        W17525   0.119  18.878   4.863
16662W        W17526   2.540  19.511   5.304
16663W        W17527   0.355  21.034   5.331
16664W        W17528   1.479  21.029   4.028
16665W        W17529   3.060  19.412   3.497
16666W        W17530   0.224  21.145   5.823
16667W        W17531   1.023  20.823   6.347
16668W        W17532   1.301  20.145   4.767
16669W        W17533   1.253  18.580   5.930
16670W        W17534   3.501  18.474   5.436
16671W        W17535   0.755  20.032   4.000
16672W        W17536   0.504  19.206   4.111
16673W        W17537   0.597  21.177   4.815
16674W        W17538   1.449  20.620   4.875
16675W        W17539   2.996  21.362   6.568
16676W        W17540   1.860  19.136   4.275
16677W        W17541   3.214  21.904   5.185
16678W        W17542   2.819  19.477   6.738
16679W        W17543   3.656  21.167   5.096
16680W        W17544   2.222  20.332   6.354
16681W        W17545   0.181  19.869   4.629
16682W        W17546   1.173  20.367   6.135
16683W        W17547   2.092  19.511   4.547
16684W        W17548   2.057  20.021   4.646
16685W        W17549   0.673  19.492   5.919
16686W        W17550   0.666  19.425   6.951
16687W        W17551   0.602  18.270   5.289
16688W        W17552   2.171  18.773   5.724
16689W        W17553   1.879  18.822   6.957
16690W        W17554   2.387  18.651   4.027
16691W        W17555   3.504  21.486   6.799
16692W        W17556   2.294  18.329   6.798
16693W        W17557   3.354  20.990   6.719
16694W        W17558   2.829  18.892   6.540
16695W        W17559   2.489  18.763   4.890
16696W        W17560   2.882  19.922   7.057
16697W        W17561   0.775  21.570   5.135
16698W        W17562   1.351  19.262   4.252
16699W        W17563   0.958  18.494   6.922
16700W        W17564   2.841  19.058   4.632
16701W        W17565   3.172  19.413   4.484
16702W        W17566   1.066  21.832   7.140
16703W        W17567   1.013  18.400   4.001
16704W        W17568   3.144  18.705   5.181
16705W        W17569   3.362  21.111   3.586
16706W        W17570   0.438  20.250   5.374
16707W        W17571   2.407  18.744   3.530
16708W        W17572   3.517  21.285   5.581
16709W        W17573   3.382  18.398   6.135
16710W        W17574   1.966  19.647   6.703
16711W        W17575   1.793  20.676   4.475
16712W        W17576   2.409  20.078   7.306
16713W        W17577   2.210  18.297   5.519
16714W        W17578   0.806  19.267   5.403
16715W        W17579   0.293  20.322   6.435
16716W        W17580   2.213  21.664   5.053
16717W        W17581   3.324  19.322   5.871
16718W        W17582   2.170  21.703   6.495
16719W        W17583   2.972  19.940   3.833
16720W        W17584   1.657  19.787   4.857
16721W        W17585   3.557  18.383   6.612
16722W        W17586   1.816  20.343   6.052
16723W        W17587   1.855  19.182   5.550
16724W        W17588   2.622  19.493   4.439
16725W        W17589   2.948  19.458   4.026
16726W        W17590   2.975  21.237   4.748
16727W        W17591   2.600  20.534   5.435
16728W        W17592   2.533  19.846   4.083
16729W        W17593   2.029  19.961   5.179
16730W        W17594   3.008  19.879   5.348
16731W        W17595   0.467  19.028   5.730
16732W        W17596   3.029  19.987   6.549
16733W        W17597   3.548  21.645   5.938
16734W        W17598   1.397  21.120   5.125
16735W        W17599   2.653  21.634   6.276
16736W        W17600   2.449  18.938   6.158
16737W        W17601   1.730  21.790   6.188
16738W        W17602   3.184  18.676   4.642
16739W        W17603   3.167  19.895   6.062
16740W        W17604   0.321  19.303   6.271
16741W        W17605   2.792  19.070   5.170
16742W        W17606   3.214  19.159   6.779
16743W        W17607   2.210  20.801   5.237
16744W        W17608   1.636  21.478   4.766
16745W        W17609   0.568  18.676   4.046
16746W        W17610   1.825  18.392   5.880
16747W        W17611   0.950  21.369   3.870
16748W        W17612   1.181  20.020   4.282
16749W        W17613   1.829  20.639   6.472
16750W        W17614   1.724  18.606   4.656
16751W        W17615   2.843  18.389   4.945
16752W        W17616   2.722  21.927   5.374
16753W        W17617   2.136  21.564   5.610
16754W        W17618   1.448  20.417   5.700
16755W        W17619   3.096  21.396   6.061
16756W        W17620   0.895  18.556   4.496
16757W        W17621   1.450  21.008   5.637
16758W        W17622   1.089  18.781   3.659
16759W        W17623   1.667  19.533   5.867
16760W        W17624   2.563  18.396   5.862
16761W        W17625   0.075  20.271   5.974
16762W        W17626   1.613  20.011   3.891
16763W        W17627   1.163  18.299   3.502
16764W        W17628   1.609  19.297   4.700
16765W        W17629   2.542  18.486   6.377
16766W        W17630   1.349  20.500   6.600
16767W        W17631   2.112  20.177   6.860
16768W        W17632   2.597  20.217   6.699
16769W        W17633   1.886  18.458   7.331
16770W        W17634   1.179  18.862   5.333
16771W        W17635   0.775  18.933   4.994
16772W        W17636   0.454  21.650   4.695
16773W        W17637   1.977  21.119   6.614
16774W        W17638   0.802  20.544   4.120
16775W        W17639   2.500  20.017   5.404
16776W        W17640   2.717  19.721   5.765
16777W        W17641   1.779  20.003   5.680
16778W        W17642   2.425  20.592   3.614
16779W        W17643   1.995  18.614   5.150
16780W        W17644   3.500  19.019   4.403
16781W        W17645   0.159  21.708   6.661
16782W        W17646   0.586  21.040   6.199
16783W        W17647   0.110  21.721   4.310
16784W        W17648   1.984  19.137   6.063
16785W        W17649   1.050  20.860   3.794
16786W        W17650   3.204  21.774   4.088
16787W        W17651   2.035  19.868   4.140
16788W        W17652   0.943  19.199   4.585
16789W        W17653   2.048  19.006   3.799
16790W        W17654   2.301  20.682   6.739
16791W        W17655   2.724  18.605   4.427
16792W        W17656   0.310  18.308   3.819
16793W        W17657   1.490  20.770   6.110
16794W        W17658   1.183  20.656   5.319
16795W        W17659   0.743  20.477   3.604
16796W        W17660   0.288  21.233   4.383
16797W        W17661   0.715  19.894   6.741
16798W        W17662   1.436  18.590   7.081
16799W        W17663   2.039  18.630   6.303
16800W        W17664   1.307  18.290   4.669
16801W        W17665   2.190  18.194   4.139
16802W        W17666   0.367  18.410   5.747
16803W        W17667   0.386  19.258   5.085
16804W        W17668   3.047  18.376   5.656
16805W        W17669   0.521  18.906   4.529
16806W        W17670   2.936  18.652   6.084
16807W        W17671   3.418  19.754   3.613
16808W        W17672   0.806  18.630   5.594
16809W        W17673   1.865  19.146   6.566
16810W        W17674   0.073  18.787   3.968
16811W        W17675   0.800  20.335   6.471
16812W        W17676   2.124  19.628   5.574
16813W        W17677   1.979  21.735   3.853
16814W        W17678   0.309  20.157   3.783
16815W        W17679   1.048  20.841   6.860
16816W        W17680   0.442  19.831   6.312
16817W        W17681   1.449  19.953   6.109
16818W        W17682   3.027  18.365   6.507
16819W        W17683   3.545  19.950   6.499
16820W        W17684   3.379  19.746   4.137
16821W        W17685   2.138  20.363   4.250
16822W        W17686   2.891  21.820   3.662
16823W        W17687   2.054  19.664   7.267
16824W        W17688   0.273  20.863   7.204
16825W        W17689   3.665  18.770   7.192
16826W        W17690   3.007  19.395   5.489
16827W        W17691   1.559  21.719   7.082
16828W        W17692   1.511  18.423   3.865
16829W        W17693   2.857  20.894   3.587
16830W        W17694   0.862  18.994   6.746
16831W        W17695   1.463  21.019   6.602
16832W        W17696   3.309  18.860   6.359
16833W        W17697   2.766  22.040   4.130
16834W        W17698   2.890  20.214   5.722
16835W        W17699   1.067  18.624   6.431
16836W        W17700   1.571  19.818   6.979
16837W        W17701   1.010  20.994   4.296
16838W        W17702   2.535  20.151   4.513
16839W        W17703   0.724  18.981   6.249
16840W        W17704   1.839  20.972   4.907
16841W        W17705   3.408  19.554   5.194
16842W        W17706   1.798  18.320   6.819
16843W        W17707   2.879  21.198   5.655
16844W        W17708   3.129  21.659   5.616
16845W        W17709   2.036  21.201   3.790
16846W        W17710   0.222  21.160   6.779
16847W        W17711   0.996  19.043   5.832
16848W        W17712   0.988  18.471   5.032
16849W        W17713   2.547  19.173   5.694
16850W        W17714   1.200  20.341   3.870
16851W        W17715   3.359  20.442   5.698
16852W        W17716   0.683  21.165   7.055
16853W        W17717   3.104  21.968   4.586
16854W        W17718   1.264  18.842   4.774
16855W        W17719   0.913  20.249   5.134
16856W        W17720   1.218  21.742   6.001
16857W        W17721   3.209  21.884   6.874
16858W        W17722   2.282  20.029   5.879
16859W        W17723   0.355  19.723   4.143
16860W        W17724   3.370  21.582   4.825
16861W        W17725   3.051  18.950   4.145
16862W        W17726   1.319  18.250   6.671
16863W        W17727   3.144  21.342   5.219
16864W        W17728   2.912  19.531   4.931
16865W        W17729   1.214  19.286   5.037
16866W        W17730   1.545  19.543   6.412
16867W        W17731   2.653  20.632   6.351
16868W        W17732   1.219  19.117   6.371
16869W        W17733   1.284  21.681   5.074
16870W        W17734   0.618  21.897   6.836
16871W        W17735   0.573  21.000   4.030
16872W        W17736   3.253  20.863   4.960
16873W        W17737   0.798  19.465   6.425
16874W        W17738   3.440  19.285   3.915
16875W        W17739   1.292  20.564   4.351
16876W        W17740   2.356  19.851   6.432
16877W        W17741   2.327  19.512   6.032
16878W        W17742   0.917  19.924   6.132
16879W        W17743   2.993  21.931   6.014
16880W        W17744   2.747  18.513   6.919
16881W        W17745   0.550  18.590   6.550
16882W        W17746   0.777  19.794   5.449
16883W        W17747   1.140  19.291   3.755
16884W        W17748   0.171  21.336   6.299
16885W        W17749   1.270  19.855   5.645
16886W        W17750   1.536  18.945   3.880
16887W        W17751   0.731  19.878   4.549
16888W        W17752   0.394  21.893   6.256
16889W        W17753   2.954  19.881   4.396
16890W        W17754   3.233  18.671   6.877
16891W        W17755   2.779  20.955   5.200
16892W        W17756   0.361  19.843   7.136
16893W        W17757   3.213  18.447   4.141
16894W        W17758   2.821  20.579   4.842
16895W        W17759   1.615  19.685   4.345
16896W        W17760   2.848  18.618   3.767
16897W        W17761   2.901  19.166   6.096
16898W        W17762   0.376  19.792   5.115
16899W        W17763   1.004  20.830   4.784
16900W        W17764   2.445  19.277   4.855
16901W        W17765   1.628  18.711   5.546
16902W        W17766   3.805  20.836   6.270
16903W        W17767   3.465  18.809   5.850
16904W        W17768   0.255  21.482   5.118
16905W        W17769   0.521  20.764   4.499
16906W        W17770   0.511  18.698   7.045
16907W        W17771   1.699  21.237   7.034
16908W        W17772   3.470  20.085   5.240
16909W        W17773   2.626  20.339   4.019
16910W        W17774   2.215  21.902   6.016
16911W        W17775   2.692  20.502   7.105
16912W        W17776   1.651  18.179   4.308
16913W        W17777   2.268  19.038   5.275
16914W        W17778   0.220  20.645   5.671
16915W        W17779   1.366  18.674   4.292
16916W        W17780   0.991  20.321   6.937
16917W        W17781   2.032  18.996   4.770
16918W        W17782   2.396  20.531   5.902
16919W        W17783   0.616  21.446   6.566
16920W        W17784   1.189  21.334   6.979
16921W        W17785   0.966  18.962   4.127
16922W        W17786   2.377  19.028   4.383
16923W        W17787   2.461  21.272   6.590
16924W        W17788   1.199  19.797   5.139
16925W        W17789   0.722  21.537   6.047
16926W        W17790   3.420  21.605   3.668
16927W        W17791   0.470  20.318   6.926
16928W        W17792   2.094  20.368   5.499
16929W        W17793   0.878  20.374   4.603
16930W        W17794   1.175  21.219   6.014
16931W        W17795   1.491  18.509   5.092
16932W        W17796   0.162  20.643   4.125
16933W        W17797   1.712  19.462   3.882
16934W        W17798   0.464  20.220   4.862
16935W        W17799   1.572  18.691   6.518
16936W        W17800   3.334  18.446   3.629
16937W        W17801   3.369  20.186   6.927
16938W        W17802   2.070  21.611   6.994
16939W        W17803   3.516  20.475   6.487
16940W        W17804   3.085  21.301   7.069
16941W        W17805   0.842  21.867   5.638
16942W        W17806   3.591  20.605   5.253
16943W        W17807   2.012  19.441   5.065
16944W        W17808   1.804  18.124   4.887
16945W        W17809   1.080  21.329   4.770
16946W        W17810   1.500  19.040   5.939
16947W        W17811   1.218  18.326   5.481
16948W        W17812   0.443  21.520   3.970
16949W        W17813   1.908  20.418   4.939
16950W        W17814   1.139  21.443   6.470
16951W        W17815   0.449  20.255   4.343
16952W        W17816   0.373  18.741   5.299
16953W        W17817   1.703  20.683   5.329
16954W        W17818   0.194  18.511   4.394
16955W        W17819   2.772  19.630   6.262
16956W        W17820   2.626  19.087   3.846
16957W        W17821   3.408  20.924   5.937
16958W        W17822   1.872  21.181   5.393
16959W        W17823   1.268  21.463   4.307
16960W        W17824   2.435  18.241   3.652
16961W        W17825   0.438  21.544   5.586
16962W        W17826   2.265  19.243   7.039
16963W        W17827   0.576  19.082   7.376
16964W        W17828   0.474  19.428   4.568
16965W        W17829   0.906  19.542   4.195
16966W        W17830   2.421  19.743   6.913
16967W        W17831   0.935  20.252   5.675
16968W        W17832   2.342  18.266   4.997
16969W        W17833   1.755  21.707   5.277
16970W        W17834   2.658  21.125   6.125
16971W        W17835   2.581  21.423   5.312
16972W        W17836   2.400  20.307   5.000
16973W        W17837   1.879  18.637   4.157
16974W        W17838   3.433  18.330   4.926
16975W        W17839   1.160  19.798   3.804
16976W        W17840   3.262  19.129   4.916
16977W        W17841   2.069  20.239   3.759
16978W        W17842   3.036  20.497   6.677
16979W        W17843   2.487  21.498   3.681
16980W        W17844   1.380  19.035   6.852
16981W        W17845   1.180  19.494   6.028
16982W        W17846   3.078  20.907   6.315
16983W        W17847   2.328  18.852   6.679
16984W        W17848   0.187  19.594   6.701
16985W        W17849   1.929  19.825   6.183
16986W        W17850   0.571  20.688   5.006
16987W        W17851   0.497  20.002   5.831
16988W        W17852   2.687  20.142   6.180
16989W        W17853   2.717  21.778   6.752
16990W        W17854   2.369  19.338   6.520
16991W        W17855   2.812  21.705   4.926
16992W        W17856   1.711  21.230   6.168
16993W        W17857   1.135  21.435   5.523
16994W        W17858   2.884  20.724   5.850
16995W        W17859   1.809  20.725   6.965
16996W        W17860   0.694  20.670   5.493
16997W        W17861   3.069  20.417   5.269
16998W        W17862   2.618  21.629   5.782
16999W        W17863   0.737  21.140   5.711
17000W        W17864   1.741  19.318   7.061
17001W        W17865   1.775  21.422   4.236
17002W        W17866   1.400  20.874   7.221
17003W        W17867   1.447  21.039   4.562
17004W        W17868   0.657  19.555   3.742
17005W        W17869   0.183  21.994  10.688
17006W        W17870   0.556  20.788  10.258
17007W        W17871   3.203  20.472   8.600
17008W        W17872   3.416  21.664  10.049
17009W        W17873   1.368  21.386   7.462
17010W        W17874   1.160  19.570   8.362
17011W        W17875   0.769  19.493   8.704
17012W        W17876   1.527  20.232   7.847
17013W        W17877   1.606  21.458  10.397
17014W        W17878   0.276  19.008  10.336
17015W        W17879   0.810  18.125  10.203
17016W        W17880   2.490  18.635   8.949
17017W        W17881   2.197  19.412   7.704
17018W        W17882   2.723  19.070  10.569
17019W        W17883   0.270  18.646   9.842
17020W        W17884   0.369  21.387  10.868
17021W        W17885   1.707  20.571   7.505
17022W        W17886   0.246  19.421   9.391
17023W        W17887   1.142  19.389  10.648
17024W        W17888   3.244  19.103   9.158
17025W        W17889   3.199  20.354   9.937
17026W        W17890   1.567  19.732   9.086
17027W        W17891   2.229  21.153   9.332
17028W        W17892   0.625  20.388   9.533
17029W        W17893   0.074  19.844   9.147
17030W        W17894   1.005  19.732  10.282
17031W        W17895   3.316  19.798  10.465
17032W        W17896   0.842  21.101   8.858
17033W        W17897   1.925  20.838   9.987
17034W        W17898   1.346  19.305   9.335
17035W        W17899   1.461  20.261   8.911
17036W        W17900   2.302  21.130  10.882
17037W        W17901   1.597  20.273  10.824
17038W        W17902   1.663  20.113  10.343
17039W        W17903   0.162  19.372  10.794
17040W        W17904   2.694  20.995  10.564
17041W        W17905   0.533  18.343   8.655
17042W        W17906   0.981  20.791   9.460
17043W        W17907   3.420  20.727   8.994
17044W        W17908   2.703  18.924   9.287
17045W        W17909   3.186  18.966   7.313
17046W        W17910   3.826  19.743   9.823
17047W        W17911   1.478  21.574   9.432
17048W        W17912   3.397  21.155   7.935
17049W        W17913   0.496  22.039   7.980
17050W        W17914   0.881  21.833   8.278
17051W        W17915   0.770  18.455   9.810
17052W        W17916   3.317  19.775   9.945
17053W        W17917   2.257  19.900   8.544
17054W        W17918   2.559  19.582   7.374
17055W        W17919   1.839  20.848   9.464
17056W        W17920   1.681  19.042   8.813
17057W        W17921   2.228  21.234   9.835
17058W        W17922   2.731  20.089   8.632
17059W        W17923   2.157  18.602   8.176
17060W        W17924   0.668  21.467   7.987
17061W        W17925   0.343  18.778   8.402
17062W        W17926   2.459  19.621   8.939
17063W        W17927   0.348  21.069   8.960
17064W        W17928   1.399  20.931   7.740
17065W        W17929   3.017  19.434   7.209
17066W        W17930   0.195  21.188   9.480
17067W        W17931   0.986  20.902  10.010
17068W        W17932   1.273  20.147   8.322
17069W        W17933   1.363  18.589   9.665
17070W        W17934   3.431  18.295   9.149
17071W        W17935   0.768  20.154   7.384
17072W        W17936   0.413  19.386   7.790
17073W        W17937   0.504  21.191   8.448
17074W        W17938   1.404  20.613   8.522
17075W        W17939   2.973  21.563  10.281
17076W        W17940   1.857  19.131   7.962
17077W        W17941   3.196  21.791   8.954
17078W        W17942   2.829  19.551  10.374
17079W        W17943   3.643  21.164   8.766
17080W        W17944   2.125  20.323  10.123
17081W        W17945   0.370  19.808   8.151
17082W        W17946   1.108  20.399   9.746
17083W        W17947   2.036  19.584   8.188
17084W        W17948   1.900  20.110   8.201
17085W        W17949   0.713  19.436   9.586
17086W        W17950   0.632  19.521  10.589
17087W        W17951   0.797  18.215   9.092
17088W        W17952   2.152  18.822   9.290
17089W        W17953   1.851  18.845  10.564
17090W        W17954   2.315  18.662   7.683
17091W        W17955   3.499  21.411  10.517
17092W        W17956   2.303  18.329  10.384
17093W        W17957   3.187  20.838  10.660
17094W        W17958   2.789  18.857  10.109
17095W        W17959   2.483  18.849   8.490
17096W        W17960   2.887  19.963  10.715
17097W        W17961   0.651  21.579   8.750
17098W        W17962   1.367  19.280   7.954
17099W        W17963   0.959  18.529  10.526
17100W        W17964   2.867  19.145   8.284
17101W        W17965   3.140  19.592   8.196
17102W        W17966   1.117  21.570  10.598
17103W        W17967   1.100  18.289   7.942
17104W        W17968   3.261  18.691   8.840
17105W        W17969   3.579  21.119   7.171
17106W        W17970   0.308  20.292   9.037
17107W        W17971   2.340  18.734   7.172
17108W        W17972   3.484  21.193   9.276
17109W        W17973   3.266  18.276   9.646
17110W        W17974   1.973  19.694  10.390
17111W        W17975   1.703  20.651   8.093
17112W        W17976   2.484  20.151  10.974
17113W        W17977   2.107  18.297   9.012
17114W        W17978   0.841  19.168   9.148
17115W        W17979   0.354  20.367   9.980
17116W        W17980   2.220  21.546   8.992
17117W        W17981   3.234  19.538   9.501
17118W        W17982   2.016  21.623  10.148
17119W        W17983   3.084  20.273   7.369
17120W        W17984   1.619  19.841   8.562
17121W        W17985   3.427  18.407  10.324
17122W        W17986   1.663  20.400   9.844
17123W        W17987   1.879  19.299   9.200
17124W        W17988   2.662  19.769   8.235
17125W        W17989   2.722  19.421   7.859
17126W        W17990   3.026  21.429   8.179
17127W        W17991   2.557  20.775   9.185
17128W        W17992   2.415  19.866   7.796
17129W        W17993   1.939  20.064   8.908
17130W        W17994   2.917  19.903   9.077
17131W        W17995   0.505  18.947   9.485
17132W        W17996   2.926  20.008  10.187
17133W        W17997   3.456  21.673   9.469
17134W        W17998   1.352  21.158   8.759
17135W        W17999   2.518  21.614  10.044
17136W        W18000   2.454  18.940   9.728
17137W        W18001   1.676  21.877   9.837
17138W        W18002   3.176  18.725   8.306
17139W        W18003   3.022  20.011   9.593
17140W        W18004   0.243  19.204   9.858
17141W        W18005   2.825  19.034   8.810
17142W        W18006   3.158  19.247  10.117
17143W        W18007   2.159  20.921   8.882
17144W        W18008   1.456  21.572   8.414
17145W        W18009   0.910  18.678   7.671
17146W        W18010   1.782  18.374   9.391
17147W        W18011   0.833  21.498   7.481
17148W        W18012   1.000  20.116   7.860
17149W        W18013   1.806  20.589  10.430
17150W        W18014   1.696  18.763   8.329
17151W        W18015   2.843  18.491   8.625
17152W        W18016   2.678  21.824   9.076
17153W        W18017   1.977  21.579   9.494
17154W        W18018   1.428  20.513   9.367
17155W        W18019   3.156  21.308   9.763
17156W        W18020   0.863  18.644   8.269
17157W        W18021   1.387  21.046   9.273
17158W        W18022   1.035  18.906   7.225
17159W        W18023   1.686  19.586   9.590
17160W        W18024   2.459  18.425   9.415
17161W        W18025   0.138  20.176   9.553
17162W        W18026   1.426  19.876   7.491
17163W        W18027   0.923  18.213   7.443
17164W        W18028   1.607  19.339   8.401
17165W        W18029   2.484  18.467   9.933
17166W        W18030   1.316  20.517  10.218
17167W        W18031   2.081  20.167  10.633
17168W        W18032   2.552  20.267  10.446
17169W        W18033   1.893  18.551  10.972
17170W        W18034   1.251  18.884   9.048
17171W        W18035   0.754  18.985   8.652
17172W        W18036   0.363  21.680   8.330
17173W        W18037   1.851  21.064  10.626
17174W        W18038   0.716  20.599   7.725
17175W        W18039   2.431  20.111   9.068
17176W        W18040   2.578  19.794   9.450
17177W        W18041   1.773  20.132   9.399
17178W        W18042   2.188  20.546   7.256
17179W        W18043   2.041  18.701   8.724
17180W        W18044   3.387  19.140   8.107
17181W        W18045   0.375  21.705  10.197
17182W        W18046   0.537  20.873   9.739
17183W        W18047  29.000  21.794   7.994
17184W        W18048   1.985  19.147   9.680
17185W        W18049   0.981  21.012   7.461
17186W        W18050   3.120  21.558   7.688
17187W        W18051   1.908  19.850   7.742
17188W        W18052   0.923  19.145   8.181
17189W        W18053   1.988  19.008   7.444
17190W        W18054   2.276  20.673  10.618
17191W        W18055   2.704  18.612   8.103
17192W        W18056   0.418  18.582   7.528
17193W        W18057   1.422  20.854   9.762
17194W        W18058   1.161  20.704   8.962
17195W        W18059   0.731  20.654   7.215
17196W        W18060   0.177  21.288   8.019
17197W        W18061   0.722  20.039  10.742
17198W        W18062   1.419  18.494  10.741
17199W        W18063   2.013  18.642   9.770
17200W        W18064   1.334  18.410   8.405
17201W        W18065   2.080  18.208   7.764
17202W        W18066   0.437  18.369   9.424
17203W        W18067   0.368  19.202   8.927
17204W        W18068   2.948  18.467   9.173
17205W        W18069   0.528  18.905   7.928
17206W        W18070   2.882  18.617   9.651
17207W        W18071   3.353  19.810   7.323
17208W        W18072   0.914  18.639   9.349
17209W        W18073   1.888  19.211  10.185
17210W        W18074   0.110  19.004   7.560
17211W        W18075   0.836  20.312  10.169
17212W        W18076   2.091  19.752   9.281
17213W        W18077   1.846  21.593   7.480
17214W        W18078   0.323  20.399   7.422
17215W        W18079   0.925  20.570  10.593
17216W        W18080   0.523  19.920  10.248
17217W        W18081   1.316  20.015   9.998
17218W        W18082   2.964  18.325  10.064
17219W        W18083   3.618  20.134  10.182
17220W        W18084   2.984  20.166   8.167
17221W        W18085   2.119  20.317   7.743
17222W        W18086   2.910  21.778   7.267
17223W        W18087   1.959  19.712  10.928
17224W        W18088   0.168  20.681  10.848
17225W        W18089   3.632  18.760  10.736
17226W        W18090   2.846  19.410   9.193
17227W        W18091   1.547  21.790  10.769
17228W        W18092   1.401  18.432   7.569
17229W        W18093   3.181  20.731   7.119
17230W        W18094   0.779  19.021  10.498
17231W        W18095   1.501  20.985  10.252
17232W        W18096   3.273  18.750   9.955
17233W        W18097   2.688  21.879   7.764
17234W        W18098   2.674  20.352   9.447
17235W        W18099   1.118  18.719  10.085
17236W        W18100   1.495  19.777  10.706
17237W        W18101   0.910  21.022   7.973
17238W        W18102   2.430  20.233   8.187
17239W        W18103   0.666  18.936   9.995
17240W        W18104   1.782  20.985   8.524
17241W        W18105   3.325  19.593   8.995
17242W        W18106   1.805  18.323  10.459
17243W        W18107   2.677  21.152   9.564
17244W        W18108   2.990  21.508   9.332
17245W        W18109   1.833  21.068   7.489
17246W        W18110   0.196  21.065  10.503
17247W        W18111   1.031  19.032   9.647
17248W        W18112   0.999  18.547   8.770
17249W        W18113   2.373  19.314   9.371
17250W        W18114   1.176  20.486   7.500
17251W        W18115   3.232  20.474   9.432
17252W        W18116   0.621  20.953  10.753
17253W        W18117   3.119  21.917   8.292
17254W        W18118   1.255  18.938   8.517
17255W        W18119   0.911  20.354   8.682
17256W        W18120   1.164  21.824   9.777
17257W        W18121   3.277  21.857  10.576
17258W        W18122   2.233  20.147   9.629
17259W        W18123   0.394  19.911   7.652
17260W        W18124   3.397  21.550   8.531
17261W        W18125   2.975  18.944   7.812
17262W        W18126   1.323  18.267  10.273
17263W        W18127   3.156  21.279   8.901
17264W        W18128   2.904  19.543   8.673
17265W        W18129   1.266  19.370   8.829
17266W        W18130   1.500  19.568  10.208
17267W        W18131   2.420  20.755  10.141
17268W        W18132   1.099  19.228  10.148
17269W        W18133   1.109  21.802   8.744
17270W        W18134   0.639  21.760  10.655
17271W        W18135   0.502  21.100   7.628
17272W        W18136   3.248  21.051   8.449
17273W        W18137   0.639  19.439  10.085
17274W        W18138   3.216  19.388   7.677
17275W        W18139   1.180  20.580   8.038
17276W        W18140   2.422  19.868  10.135
17277W        W18141   2.207  19.599   9.764
17278W        W18142   0.822  19.929   9.808
17279W        W18143   2.943  21.802   9.755
17280W        W18144   2.767  18.510  10.520
17281W        W18145   0.495  18.533  10.302
17282W        W18146   0.988  19.668   9.207
17283W        W18147   1.252  19.387   7.273
17284W        W18148   0.234  21.224  10.017
17285W        W18149   1.300  19.973   9.486
17286W        W18150   1.463  18.955   7.518
17287W        W18151   0.804  19.930   8.384
17288W        W18152   0.288  21.649   9.700
17289W        W18153   2.922  19.844   7.634
17290W        W18154   3.182  18.838  10.463
17291W        W18155   2.877  20.866   8.773
17292W        W18156   0.234  19.880  10.669
17293W        W18157   3.128  18.421   7.828
17294W        W18158   3.244  20.653   8.114
17295W        W18159   1.523  19.756   8.053
17296W        W18160   2.789  18.636   7.434
17297W        W18161   2.997  19.113   9.654
17298W        W18162   0.647  19.949   8.886
17299W        W18163   0.934  20.824   8.447
17300W        W18164   2.454  19.386   8.479
17301W        W18165   1.651  18.877   9.367
17302W        W18166   3.411  20.859   9.757
17303W        W18167   3.396  18.725   9.457
17304W        W18168   0.125  21.517   8.746
17305W        W18169   0.424  20.828   8.101
17306W        W18170   0.547  18.666  10.812
17307W        W18171   1.404  21.228  10.850
17308W        W18172   3.349  20.178   9.034
17309W        W18173   2.668  20.304   7.702
17310W        W18174   2.187  21.958   9.788
17311W        W18175   2.815  20.519  10.801
17312W        W18176   1.622  18.224   8.024
17313W        W18177   2.299  19.124   8.899
17314W        W18178   0.228  20.689   9.342
17315W        W18179   1.304  18.768   7.997
17316W        W18180   1.182  20.136  10.532
17317W        W18181   2.050  19.107   8.429
17318W        W18182   2.325  20.706   9.641
17319W        W18183   0.646  21.315  10.385
17320W        W18184   1.063  21.056  10.510
17321W        W18185   0.965  19.188   7.671
17322W        W18186   2.395  19.055   8.025
17323W        W18187   2.263  21.206  10.350
17324W        W18188   1.147  19.885   8.774
17325W        W18189   0.698  21.390   9.878
17326W        W18190   3.429  21.621   7.290
17327W        W18191   0.409  20.361  10.518
17328W        W18192   2.106  20.491   9.192
17329W        W18193   0.728  20.414   8.209
17330W        W18194   1.116  21.276   9.626
17331W        W18195   1.569  18.515   8.874
17332W        W18196   0.103  20.776   7.701
17333W        W18197   1.685  19.426   7.568
17334W        W18198   0.376  20.188   8.512
17335W        W18199   1.635  18.705  10.121
17336W        W18200   3.278  18.454   7.339
17337W        W18201   3.212  20.311  10.507
17338W        W18202   2.033  21.572  10.701
17339W        W18203   3.491  20.652  10.239
17340W        W18204   3.052  21.334  10.757
17341W        W18205   0.790  21.695   9.460
17342W        W18206   3.730  20.330   8.728
17343W        W18207   1.975  19.518   8.749
17344W        W18208   1.852  18.282   8.505
17345W        W18209   0.986  21.352   8.419
17346W        W18210   1.498  19.124   9.831
17347W        W18211   1.285  18.287   9.249
17348W        W18212   0.328  21.606   7.637
17349W        W18213   1.912  20.469   8.591
17350W        W18214   1.190  21.382  10.112
17351W        W18215   0.298  20.341   7.941
17352W        W18216   0.519  18.700   9.023
17353W        W18217   1.679  20.739   8.972
17354W        W18218   0.100  18.591   7.960
17355W        W18219   2.823  19.583   9.854
17356W        W18220   2.547  19.086   7.502
17357W        W18221   3.040  20.936   9.282
17358W        W18222   1.794  21.255   9.069
17359W        W18223   1.178  21.499   7.947
17360W        W18224   2.359  18.251   7.315
17361W        W18225   0.378  21.579   9.184
17362W        W18226   2.229  19.270  10.592
17363W        W18227   0.639  19.167  11.010
17364W        W18228   0.457  19.311   8.312
17365W        W18229   0.839  19.621   7.957
17366W        W18230   2.417  19.756  10.646
17367W        W18231   0.986  20.242   9.184
17368W        W18232   2.367  18.316   8.556
17369W        W18233   1.579  21.708   8.934
17370W        W18234   2.735  21.147  10.070
17371W        W18235   2.651  21.267   9.040
17372W        W18236   2.432  20.502   8.739
17373W        W18237   1.798  18.657   7.804
17374W        W18238   3.570  18.301   8.638
17375W        W18239   1.073  19.849   7.110
17376W        W18240   3.271  19.167   8.617
17377W        W18241   1.871  20.129   7.316
17378W        W18242   2.911  20.641  10.261
17379W        W18243   2.566  21.424   7.084
17380W        W18244   1.343  18.939  10.501
17381W        W18245   1.186  19.554   9.768
17382W        W18246   3.222  21.093  10.222
17383W        W18247   2.251  18.834  10.217
17384W        W18248   0.181  19.520  10.296
17385W        W18249   1.852  19.926   9.919
17386W        W18250   0.450  20.691   8.610
17387W        W18251   0.539  19.891   9.378
17388W        W18252   2.621  20.325   9.941
17389W        W18253   2.575  21.521  10.620
17390W        W18254   2.452  19.303  10.118
17391W        W18255   2.842  21.604   8.635
17392W        W18256   1.671  21.318   9.861
17393W        W18257   1.093  21.459   9.117
17394W        W18258   2.887  20.733   9.751
17395W        W18259   1.889  20.684  10.973
17396W        W18260   0.667  20.659   9.076
17397W        W18261   2.899  20.418   9.008
17398W        W18262   2.487  21.615   9.507
17399W        W18263   0.688  21.193   9.345
17400W        W18264   1.691  19.315  10.674
17401W        W18265   1.666  21.352   7.917
17402W        W18266   1.411  20.730  10.718
17403W        W18267   1.360  21.056   8.235
17404W        W18268   0.747  19.599   7.431
17405W        W18269   0.215  21.907  14.406
17406W        W18270   0.603  20.765  13.912
17407W        W18271   3.004  20.509  12.052
17408W        W18272   3.406  21.531  13.606
17409W        W18273   1.363  21.587  11.211
17410W        W18274   1.079  19.745  12.013
17411W        W18275   0.694  19.707  12.368
17412W        W18276   1.669  20.259  11.648
17413W        W18277   1.661  21.485  14.071
17414W        W18278   0.319  19.041  13.982
17415W        W18279   0.824  18.134  13.826
17416W        W18280   2.650  18.645  12.655
17417W        W18281   2.146  19.330  11.471
17418W        W18282   2.777  18.976  14.314
17419W        W18283   0.319  18.783  13.502
17420W        W18284   0.377  21.432  14.531
17421W        W18285   1.470  20.563  11.258
17422W        W18286   0.351  19.585  12.868
17423W        W18287   1.097  19.507  14.221
17424W        W18288   3.373  19.111  12.720
17425W        W18289   3.194  20.276  13.392
17426W        W18290   1.688  19.629  12.668
17427W        W18291   2.330  21.051  12.989
17428W        W18292   0.597  20.444  13.085
17429W        W18293   0.028  20.002  12.843
17430W        W18294   1.216  19.913  13.830
17431W        W18295   3.382  19.659  14.056
17432W        W18296   0.953  21.121  12.571
17433W        W18297   2.157  20.912  13.623
17434W        W18298   1.266  19.397  12.857
17435W        W18299   1.500  20.247  12.516
17436W        W18300   2.333  21.062  14.455
17437W        W18301   1.647  20.298  14.377
17438W        W18302   1.710  20.109  13.833
17439W        W18303   0.109  19.384  14.474
17440W        W18304   2.782  20.852  14.236
17441W        W18305   0.506  18.460  12.208
17442W        W18306   1.010  20.800  13.027
17443W        W18307   3.314  20.823  12.512
17444W        W18308   2.910  18.987  12.941
17445W        W18309   3.056  19.009  10.973
17446W        W18310   3.630  19.606  13.477
17447W        W18311   1.649  21.457  13.134
17448W        W18312   3.347  21.183  11.412
17449W        W18313   0.541  22.037  11.644
17450W        W18314   0.883  21.826  11.986
17451W        W18315   0.750  18.465  13.421
17452W        W18316   3.252  19.328  13.678
17453W        W18317   2.520  19.922  12.210
17454W        W18318   2.411  19.647  11.170
17455W        W18319   1.862  20.949  13.181
17456W        W18320   1.561  19.143  12.508
17457W        W18321   2.132  21.365  13.370
17458W        W18322   2.822  20.065  11.813
17459W        W18323   2.198  18.997  11.996
17460W        W18324   0.710  21.511  11.601
17461W        W18325   0.189  18.859  12.158
17462W        W18326   2.480  19.585  12.627
17463W        W18327   0.423  21.107  12.523
17464W        W18328   1.359  21.080  11.375
17465W        W18329   2.802  19.481  10.870
17466W        W18330   0.290  21.310  13.246
17467W        W18331   1.036  20.962  13.696
17468W        W18332   1.277  20.210  12.039
17469W        W18333   1.240  18.653  13.309
17470W        W18334   3.418  18.481  12.717
17471W        W18335   0.717  20.063  11.288
17472W        W18336   0.487  19.376  11.501
17473W        W18337   0.569  21.191  12.026
17474W        W18338   1.630  20.577  12.097
17475W        W18339   2.938  21.433  13.798
17476W        W18340   1.777  19.281  11.819
17477W        W18341   3.176  21.880  12.469
17478W        W18342   2.881  19.459  14.015
17479W        W18343   3.624  21.210  12.317
17480W        W18344   2.230  20.408  13.701
17481W        W18345   0.102  20.008  11.917
17482W        W18346   0.964  20.514  13.439
17483W        W18347   2.113  19.674  11.939
17484W        W18348   2.179  20.193  11.935
17485W        W18349   0.660  19.494  13.289
17486W        W18350   0.564  19.441  14.206
17487W        W18351   0.638  18.366  12.698
17488W        W18352   2.291  18.811  12.973
17489W        W18353   1.895  18.835  14.244
17490W        W18354   2.291  18.693  11.280
17491W        W18355   3.366  21.318  14.114
17492W        W18356   2.314  18.305  14.101
17493W        W18357   3.282  20.720  14.253
17494W        W18358   2.834  18.965  13.811
17495W        W18359   2.687  18.909  12.169
17496W        W18360   2.950  19.872  14.335
17497W        W18361   0.670  21.548  12.385
17498W        W18362   1.260  19.291  11.817
17499W        W18363   0.957  18.470  14.254
17500W        W18364   2.925  19.245  11.867
17501W        W18365   3.139  19.677  11.667
17502W        W18366   1.253  21.752  14.192
17503W        W18367   1.036  18.338  11.531
17504W        W18368   3.104  18.785  12.455
17505W        W18369   3.527  21.107  10.939
17506W        W18370   0.247  20.451  12.656
17507W        W18371   2.332  18.773  10.728
17508W        W18372   3.392  21.216  12.823
17509W        W18373   3.353  18.356  13.430
17510W        W18374   1.996  19.581  14.040
17511W        W18375   1.740  20.829  11.629
17512W        W18376   2.516  20.077  14.531
17513W        W18377   2.147  18.413  12.684
17514W        W18378   0.751  19.264  12.780
17515W        W18379   0.400  20.413  13.571
17516W        W18380   2.115  21.622  12.434
17517W        W18381   3.326  19.303  13.179
17518W        W18382   2.103  21.586  13.842
17519W        W18383   3.198  20.217  11.032
17520W        W18384   1.734  20.012  12.107
17521W        W18385   3.528  18.318  13.912
17522W        W18386   1.837  20.461  13.387
17523W        W18387   1.978  19.214  12.820
17524W        W18388   2.577  19.617  11.678
17525W        W18389   2.883  19.354  11.352
17526W        W18390   3.064  21.390  11.821
17527W        W18391   2.574  20.646  12.778
17528W        W18392   2.413  20.083  11.482
17529W        W18393   2.014  20.369  12.413
17530W        W18394   2.853  19.926  12.617
17531W        W18395   0.352  19.096  13.086
17532W        W18396   3.027  19.949  13.828
17533W        W18397   3.448  21.658  13.106
17534W        W18398   1.440  21.256  12.451
17535W        W18399   2.532  21.643  13.575
17536W        W18400   2.441  18.942  13.464
17537W        W18401   1.651  21.707  13.592
17538W        W18402   3.123  18.755  11.934
17539W        W18403   3.118  19.758  13.344
17540W        W18404   0.242  19.318  13.539
17541W        W18405   2.889  19.263  12.481
17542W        W18406   3.260  19.131  14.135
17543W        W18407   2.237  20.889  12.489
17544W        W18408   1.543  21.586  12.071
17545W        W18409   0.687  18.676  11.298
17546W        W18410   1.626  18.327  13.114
17547W        W18411   0.890  21.358  11.020
17548W        W18412   1.158  20.135  11.541
17549W        W18413   1.818  20.610  13.947
17550W        W18414   1.722  18.786  11.984
17551W        W18415   2.844  18.415  12.240
17552W        W18416   2.524  21.863  12.702
17553W        W18417   2.099  21.670  12.959
17554W        W18418   1.528  20.511  12.969
17555W        W18419   3.156  21.204  13.304
17556W        W18420   0.907  18.679  11.894
17557W        W18421   1.442  21.029  12.901
17558W        W18422   1.038  18.858  10.925
17559W        W18423   1.677  19.459  13.165
17560W        W18424   2.518  18.373  13.132
17561W        W18425   0.086  20.416  13.141
17562W        W18426   1.524  19.945  11.214
17563W        W18427   0.996  18.361  11.016
17564W        W18428   1.530  19.547  12.186
17565W        W18429   2.528  18.465  13.648
17566W        W18430   1.322  20.499  13.834
17567W        W18431   2.110  20.156  14.178
17568W        W18432   2.603  20.233  14.025
17569W        W18433   1.913  18.472  14.618
17570W        W18434   1.129  18.919  12.690
17571W        W18435   0.724  18.951  12.304
17572W        W18436   0.379  21.671  11.965
17573W        W18437   1.987  21.091  14.069
17574W        W18438   0.851  20.562  11.439
17575W        W18439   2.391  20.148  12.728
17576W        W18440   2.595  19.821  13.106
17577W        W18441   1.859  20.117  12.859
17578W        W18442   2.393  20.649  11.112
17579W        W18443   1.965  18.830  12.447
17580W        W18444   3.319  19.167  11.543
17581W        W18445   0.362  21.601  14.006
17582W        W18446   0.615  20.889  13.387
17583W        W18447   0.119  21.759  11.528
17584W        W18448   1.967  19.017  13.298
17585W        W18449   1.035  20.846  11.045
17586W        W18450   3.363  21.701  11.540
17587W        W18451   1.965  19.816  11.472
17588W        W18452   0.752  19.344  11.953
17589W        W18453   2.019  19.085  11.023
17590W        W18454   2.308  20.665  14.126
17591W        W18455   2.629  18.585  11.781
17592W        W18456   0.190  18.478  11.192
17593W        W18457   1.420  20.776  13.400
17594W        W18458   1.227  20.680  12.555
17595W        W18459   0.625  20.504  10.997
17596W        W18460   0.255  21.267  11.602
17597W        W18461   0.763  19.909  14.203
17598W        W18462   1.455  18.557  14.333
17599W        W18463   2.020  18.593  13.651
17600W        W18464   1.352  18.399  12.046
17601W        W18465   2.121  18.540  11.747
17602W        W18466   0.335  18.470  13.085
17603W        W18467   0.365  19.293  12.420
17604W        W18468   3.023  18.332  13.006
17605W        W18469   0.495  18.923  11.755
17606W        W18470   2.902  18.684  13.365
17607W        W18471   3.251  19.672  11.009
17608W        W18472   0.751  18.767  13.000
17609W        W18473   1.926  19.119  13.805
17610W        W18474   0.247  18.964  11.284
17611W        W18475   0.828  20.290  13.864
17612W        W18476   2.112  19.697  12.973
17613W        W18477   1.863  21.723  11.204
17614W        W18478   0.236  20.202  11.078
17615W        W18479   1.039  20.777  14.171
17616W        W18480   0.463  19.923  13.745
17617W        W18481   1.374  20.209  13.405
17618W        W18482   3.003  18.346  13.821
17619W        W18483   3.531  20.063  13.721
17620W        W18484   3.215  20.334  11.596
17621W        W18485   2.114  20.506  11.523
17622W        W18486   2.907  21.815  10.917
17623W        W18487   2.063  19.744  14.541
17624W        W18488   0.287  20.705  14.576
17625W        W18489   3.654  18.759  14.478
17626W        W18490   2.932  19.503  12.924
17627W        W18491   1.731  21.801  14.486
17628W        W18492   1.462  18.448  11.249
17629W        W18493   2.822  20.969  11.074
17630W        W18494   0.833  18.999  14.147
17631W        W18495   1.469  21.003  14.023
17632W        W18496   3.290  18.790  13.682
17633W        W18497   2.756  21.920  11.409
17634W        W18498   2.803  20.283  13.037
17635W        W18499   1.059  18.701  13.786
17636W        W18500   1.560  19.794  14.244
17637W        W18501   0.932  21.041  11.666
17638W        W18502   2.568  20.516  11.770
17639W        W18503   0.712  19.076  13.633
17640W        W18504   1.875  21.147  12.194
17641W        W18505   3.283  19.614  12.573
17642W        W18506   1.810  18.315  14.071
17643W        W18507   2.889  21.037  12.895
17644W        W18508   2.998  21.558  12.826
17645W        W18509   1.828  21.192  11.138
17646W        W18510   0.273  21.064  14.198
17647W        W18511   1.033  19.126  13.226
17648W        W18512   0.994  18.528  12.385
17649W        W18513   2.445  19.298  13.059
17650W        W18514   1.104  20.302  11.022
17651W        W18515   3.251  20.069  12.898
17652W        W18516   0.699  21.034  14.466
17653W        W18517   3.044  21.908  11.909
17654W        W18518   1.262  18.910  12.168
17655W        W18519   0.935  20.246  12.420
17656W        W18520   1.227  21.762  13.311
17657W        W18521   3.120  21.787  14.142
17658W        W18522   2.242  20.165  13.229
17659W        W18523   0.251  19.825  11.459
17660W        W18524   3.445  21.645  12.087
17661W        W18525   2.956  18.814  11.448
17662W        W18526   1.312  18.261  13.927
17663W        W18527   3.120  21.334  12.379
17664W        W18528   2.962  19.668  12.161
17665W        W18529   1.075  19.343  12.367
17666W        W18530   1.613  19.558  13.694
17667W        W18531   2.641  20.722  13.758
17668W        W18532   1.180  19.223  13.797
17669W        W18533   1.174  21.746  12.408
17670W        W18534   0.732  21.735  14.331
17671W        W18535   0.552  20.996  11.257
17672W        W18536   3.263  20.970  12.028
17673W        W18537   0.824  19.578  13.772
17674W        W18538   3.522  19.201  11.061
17675W        W18539   1.259  20.628  11.733
17676W        W18540   2.196  19.915  13.710
17677W        W18541   2.121  19.484  13.450
17678W        W18542   0.878  20.001  13.409
17679W        W18543   2.979  21.708  13.325
17680W        W18544   2.772  18.427  14.290
17681W        W18545   0.580  18.584  13.913
17682W        W18546   0.906  19.758  12.932
17683W        W18547   1.188  19.302  11.153
17684W        W18548   0.349  21.177  13.724
17685W        W18549   1.408  19.898  12.999
17686W        W18550   1.535  18.933  11.013
17687W        W18551   0.622  19.882  11.821
17688W        W18552   0.414  21.797  13.507
17689W        W18553   2.853  19.890  11.273
17690W        W18554   3.231  18.634  14.191
17691W        W18555   2.809  20.894  12.378
17692W        W18556   0.264  19.874  14.369
17693W        W18557   3.088  18.323  11.305
17694W        W18558   2.988  20.824  11.602
17695W        W18559   1.499  19.748  11.699
17696W        W18560   2.737  18.621  11.025
17697W        W18561   2.840  19.269  13.387
17698W        W18562   0.552  20.057  12.732
17699W        W18563   0.931  20.818  12.143
17700W        W18564   2.504  19.397  12.141
17701W        W18565   1.575  18.886  12.963
17702W        W18566   3.452  20.761  13.397
17703W        W18567   3.388  18.787  13.145
17704W        W18568   0.127  21.509  12.371
17705W        W18569   0.472  20.793  11.726
17706W        W18570   0.481  18.579  14.428
17707W        W18571   1.713  21.201  14.499
17708W        W18572   3.561  20.383  12.635
17709W        W18573   2.800  20.414  11.313
17710W        W18574   2.091  21.898  13.430
17711W        W18575   2.917  20.379  14.393
17712W        W18576   1.679  18.290  11.682
17713W        W18577   2.401  19.085  12.551
17714W        W18578   0.316  20.868  12.962
17715W        W18579   1.339  18.779  11.634
17716W        W18580   1.160  20.230  14.246
17717W        W18581   2.004  19.351  12.325
17718W        W18582   2.435  20.637  13.280
17719W        W18583   0.783  21.283  14.025
17720W        W18584   1.184  21.255  14.400
17721W        W18585   0.913  19.076  11.512
17722W        W18586   2.534  19.053  11.609
17723W        W18587   2.482  21.206  13.954
17724W        W18588   1.215  19.817  12.515
17725W        W18589   0.761  21.398  13.504
17726W        W18590   3.409  21.612  11.025
17727W        W18591   0.418  20.327  14.176
17728W        W18592   2.078  20.575  12.902
17729W        W18593   0.804  20.374  11.913
17730W        W18594   1.202  21.235  13.298
17731W        W18595   1.505  18.583  12.519
17732W        W18596   0.115  20.673  11.367
17733W        W18597   1.675  19.414  11.275
17734W        W18598   0.452  20.181  12.239
17735W        W18599   1.562  18.736  13.848
17736W        W18600   3.212  18.463  10.823
17737W        W18601   3.375  20.173  14.207
17738W        W18602   2.146  21.527  14.340
17739W        W18603   3.586  20.573  13.863
17740W        W18604   2.873  21.351  14.331
17741W        W18605   0.765  21.760  13.105
17742W        W18606   3.518  20.523  12.125
17743W        W18607   2.078  19.853  12.446
17744W        W18608   1.861  18.345  12.204
17745W        W18609   1.043  21.341  12.119
17746W        W18610   1.499  19.078  13.452
17747W        W18611   1.145  18.410  12.871
17748W        W18612   0.552  21.753  11.180
17749W        W18613   2.123  20.703  12.014
17750W        W18614   1.232  21.445  13.772
17751W        W18615   0.400  20.304  11.598
17752W        W18616   0.344  18.813  12.653
17753W        W18617   1.733  20.779  12.560
17754W        W18618   0.090  18.624  11.677
17755W        W18619   2.646  19.700  13.601
17756W        W18620   2.528  19.107  11.078
17757W        W18621   3.221  20.596  12.965
17758W        W18622   1.905  21.239  12.730
17759W        W18623   1.212  21.499  11.680
17760W        W18624   2.343  18.304  10.899
17761W        W18625   0.392  21.563  12.811
17762W        W18626   2.290  19.236  14.336
17763W        W18627   0.524  19.072  14.569
17764W        W18628   0.270  19.529  11.967
17765W        W18629   0.962  19.624  11.510
17766W        W18630   2.470  19.746  14.130
17767W        W18631   1.059  20.277  12.929
17768W        W18632   2.342  18.534  12.227
17769W        W18633   1.639  21.716  12.650
17770W        W18634   2.627  21.135  13.446
17771W        W18635   2.553  21.322  12.594
17772W        W18636   2.518  20.443  12.293
17773W        W18637   1.825  18.872  11.460
17774W        W18638   3.379  18.372  12.195
17775W        W18639   1.065  19.778  11.009
17776W        W18640   3.316  19.192  12.197
17777W        W18641   1.994  20.199  11.141
17778W        W18642   3.064  20.453  13.867
17779W        W18643   2.949  21.453  11.274
17780W        W18644   1.359  19.043  14.239
17781W        W18645   1.199  19.592  13.377
17782W        W18646   3.139  20.957  13.788
17783W        W18647   2.355  18.826  13.979
17784W        W18648   0.129  19.558  13.964
17785W        W18649   1.805  19.920  13.353
17786W        W18650   0.400  20.692  12.217
17787W        W18651   0.393  19.978  13.226
17788W        W18652   2.686  20.226  13.525
17789W        W18653   2.581  21.717  14.080
17790W        W18654   2.418  19.311  13.836
17791W        W18655   2.739  21.690  12.268
17792W        W18656   1.692  21.194  13.607
17793W        W18657   1.183  21.496  12.857
17794W        W18658   2.934  20.723  13.352
17795W        W18659   1.938  20.713  14.459
17796W        W18660   0.710  20.666  12.629
17797W        W18661   2.978  20.422  12.559
17798W        W18662   2.568  21.490  13.083
17799W        W18663   0.736  21.235  13.010
17800W        W18664   1.759  19.317  14.416
17801W        W18665   1.715  21.387  11.613
17802W        W18666   1.429  20.772  14.493
17803W        W18667   1.421  21.070  11.943
17804W        W18668   0.509  19.663  11.059
17805W        W18669   0.140  22.030  17.989
17806W        W18670   0.597  20.872  17.589
17807W        W18671   3.090  20.085  15.323
17808W        W18672   3.550  21.579  17.174
17809W        W18673   1.419  21.531  14.806
17810W        W18674   1.334  19.526  15.735
17811W        W18675   0.893  19.438  15.996
17812W        W18676   1.618  20.216  15.327
17813W        W18677   1.661  21.427  17.702
17814W        W18678   0.215  19.009  17.675
17815W        W18679   0.769  18.164  17.303
17816W        W18680   2.527  18.743  16.307
17817W        W18681   2.227  19.427  14.931
17818W        W18682   2.761  18.936  17.975
17819W        W18683   0.098  18.870  17.154
17820W        W18684   0.350  21.571  18.132
17821W        W18685   1.679  20.525  14.878
17822W        W18686   0.336  19.474  16.610
17823W        W18687   1.009  19.489  18.007
17824W        W18688   3.328  19.155  16.442
17825W        W18689   3.249  20.286  17.167
17826W        W18690   1.707  19.707  16.257
17827W        W18691   2.062  20.999  16.607
17828W        W18692   0.682  20.425  16.775
17829W        W18693   0.129  19.869  16.336
17830W        W18694   1.345  19.666  17.638
17831W        W18695   3.315  19.680  17.854
17832W        W18696   0.930  21.108  16.226
17833W        W18697   1.943  20.822  17.321
17834W        W18698   1.413  19.329  16.781
17835W        W18699   1.559  20.208  16.280
17836W        W18700   2.574  21.330  18.093
17837W        W18701   1.675  20.190  18.157
17838W        W18702   1.678  20.056  17.629
17839W        W18703   0.109  19.468  18.350
17840W        W18704   2.767  20.991  17.692
17841W        W18705   0.617  18.439  15.716
17842W        W18706   1.049  20.782  16.776
17843W        W18707   3.237  20.749  16.176
17844W        W18708   2.839  19.070  16.599
17845W        W18709   3.195  18.935  14.622
17846W        W18710   3.689  19.906  17.083
17847W        W18711   1.573  21.595  16.815
17848W        W18712   3.238  21.105  15.127
17849W        W18713   0.526  21.894  15.358
17850W        W18714   0.972  21.761  15.648
17851W        W18715   0.548  18.594  17.099
17852W        W18716   3.206  19.756  17.124
17853W        W18717   2.525  19.845  16.011
17854W        W18718   2.578  19.582  14.611
17855W        W18719   1.726  20.595  16.647
17856W        W18720   1.706  19.241  15.968
17857W        W18721   2.185  21.226  17.090
17858W        W18722   2.912  20.141  15.844
17859W        W18723   2.154  18.655  15.487
17860W        W18724   0.708  21.402  15.337
17861W        W18725   0.264  18.813  15.789
17862W        W18726   2.672  19.447  16.304
17863W        W18727   0.412  21.071  16.210
17864W        W18728   1.489  21.015  14.968
17865W        W18729   3.031  19.395  14.517
17866W        W18730   0.300  21.269  16.946
17867W        W18731   1.050  20.908  17.332
17868W        W18732   1.219  20.034  15.618
17869W        W18733   1.126  18.609  16.954
17870W        W18734   3.479  18.368  16.527
17871W        W18735   0.736  20.047  14.705
17872W        W18736   0.474  19.255  15.063
17873W        W18737   0.553  21.073  15.709
17874W        W18738   1.408  20.509  15.761
17875W        W18739   3.094  21.531  17.445
17876W        W18740   1.944  19.087  15.211
17877W        W18741   3.152  21.676  16.227
17878W        W18742   3.004  19.463  17.506
17879W        W18743   3.609  21.093  15.940
17880W        W18744   2.200  20.336  17.404
17881W        W18745   0.331  19.665  15.360
17882W        W18746   0.943  20.436  17.197
17883W        W18747   2.289  19.526  15.414
17884W        W18748   2.217  19.998  15.614
17885W        W18749   0.652  19.555  17.011
17886W        W18750   0.481  19.426  17.954
17887W        W18751   0.457  18.553  16.197
17888W        W18752   2.065  18.793  16.556
17889W        W18753   1.889  18.790  17.864
17890W        W18754   2.309  18.649  14.987
17891W        W18755   3.533  21.459  17.700
17892W        W18756   2.176  18.348  17.799
17893W        W18757   3.171  20.811  17.990
17894W        W18758   2.837  18.958  17.478
17895W        W18759   2.520  18.861  15.806
17896W        W18760   2.894  19.935  18.073
17897W        W18761   0.655  21.496  16.023
17898W        W18762   1.429  19.211  15.257
17899W        W18763   1.001  18.549  17.884
17900W        W18764   2.936  19.133  15.578
17901W        W18765   3.176  19.565  15.389
17902W        W18766   1.175  21.506  18.000
17903W        W18767   1.023  18.290  15.221
17904W        W18768   3.335  18.714  16.180
17905W        W18769   3.385  21.083  14.599
17906W        W18770   0.335  20.348  16.384
17907W        W18771   2.366  18.705  14.469
17908W        W18772   3.374  21.211  16.386
17909W        W18773   3.392  18.311  17.038
17910W        W18774   1.890  19.600  17.760
17911W        W18775   1.773  20.724  15.337
17912W        W18776   2.446  20.039  18.368
17913W        W18777   2.189  18.331  16.343
17914W        W18778   0.728  19.168  16.409
17915W        W18779   0.430  20.442  17.351
17916W        W18780   2.162  21.640  16.126
17917W        W18781   3.267  19.216  17.108
17918W        W18782   2.033  21.626  17.397
17919W        W18783   3.262  20.220  14.739
17920W        W18784   1.698  19.933  15.777
17921W        W18785   3.493  18.284  17.549
17922W        W18786   1.757  20.372  17.123
17923W        W18787   1.818  19.238  16.468
17924W        W18788   2.717  19.781  15.525
17925W        W18789   2.736  19.436  15.128
17926W        W18790   2.936  21.389  15.465
17927W        W18791   2.637  20.816  16.317
17928W        W18792   2.472  19.894  15.056
17929W        W18793   2.054  20.078  16.136
17930W        W18794   2.960  19.883  16.319
17931W        W18795   0.433  19.012  16.804
17932W        W18796   3.025  20.002  17.554
17933W        W18797   3.396  21.621  16.676
17934W        W18798   1.385  21.027  16.027
17935W        W18799   2.543  21.748  17.301
17936W        W18800   2.378  18.967  17.148
17937W        W18801   1.668  21.946  17.219
17938W        W18802   3.256  18.719  15.672
17939W        W18803   2.906  20.052  16.813
17940W        W18804   0.175  19.391  17.097
17941W        W18805   2.916  19.047  16.091
17942W        W18806   3.225  19.108  17.812
17943W        W18807   2.193  20.946  16.097
17944W        W18808   1.489  21.472  15.751
17945W        W18809   0.632  18.697  14.914
17946W        W18810   1.813  18.354  16.731
17947W        W18811   0.861  21.423  14.815
17948W        W18812   1.077  20.086  15.115
17949W        W18813   1.840  20.530  17.739
17950W        W18814   1.649  18.836  15.598
17951W        W18815   2.881  18.547  15.981
17952W        W18816   2.637  21.792  16.380
17953W        W18817   2.047  21.524  16.633
17954W        W18818   1.318  20.342  16.828
17955W        W18819   3.199  21.241  17.005
17956W        W18820   1.068  18.669  15.607
17957W        W18821   1.462  21.042  16.570
17958W        W18822   1.034  18.839  14.603
17959W        W18823   1.847  19.626  16.792
17960W        W18824   2.466  18.525  16.770
17961W        W18825   0.198  20.394  16.893
17962W        W18826   1.617  20.008  14.823
17963W        W18827   0.781  18.220  14.759
17964W        W18828   1.788  19.491  15.499
17965W        W18829   2.535  18.498  17.313
17966W        W18830   1.375  20.440  17.466
17967W        W18831   2.117  20.106  17.894
17968W        W18832   2.597  20.210  17.738
17969W        W18833   1.898  18.579  18.351
17970W        W18834   1.178  18.923  16.468
17971W        W18835   0.737  18.931  15.941
17972W        W18836   0.310  21.525  15.635
17973W        W18837   1.979  21.040  17.801
17974W        W18838   0.742  20.510  14.998
17975W        W18839   2.484  20.095  16.458
17976W        W18840   2.577  19.669  16.746
17977W        W18841   1.931  20.116  16.653
17978W        W18842   2.475  20.586  14.611
17979W        W18843   2.058  18.710  16.003
17980W        W18844   3.438  19.107  15.391
17981W        W18845   0.353  21.715  17.650
17982W        W18846   0.607  20.847  17.076
17983W        W18847   0.003  21.775  15.300
17984W        W18848   1.909  19.129  16.974
17985W        W18849   1.031  20.885  14.811
17986W        W18850   2.965  21.530  14.956
17987W        W18851   1.965  19.848  15.165
17988W        W18852   0.989  19.191  15.537
17989W        W18853   2.038  18.998  14.722
17990W        W18854   2.354  20.668  17.791
17991W        W18855   2.786  18.632  15.434
17992W        W18856   0.191  18.389  14.830
17993W        W18857   1.479  20.805  17.063
17994W        W18858   1.250  20.616  16.313
17995W        W18859   0.766  20.512  14.492
17996W        W18860   0.183  21.126  15.326
17997W        W18861   0.757  19.920  17.930
17998W        W18862   1.464  18.569  18.091
17999W        W18863   2.005  18.632  17.332
18000W        W18864   1.443  18.471  15.934
18001W        W18865   2.102  18.216  15.220
18002W        W18866   0.396  18.322  16.670
18003W        W18867   0.394  19.457  16.111
18004W        W18868   2.984  18.571  16.530
18005W        W18869   0.608  18.851  15.397
18006W        W18870   2.864  18.789  17.009
18007W        W18871   3.407  19.737  14.553
18008W        W18872   0.758  18.676  16.600
18009W        W18873   2.000  19.161  17.488
18010W        W18874   0.135  18.899  14.881
18011W        W18875   1.002  20.006  17.467
18012W        W18876   2.196  19.648  16.408
18013W        W18877   1.966  21.489  14.834
18014W        W18878   0.260  20.231  14.774
18015W        W18879   0.918  20.481  17.721
18016W        W18880   0.489  19.960  17.502
18017W        W18881   1.429  19.962  17.174
18018W        W18882   2.989  18.279  17.452
18019W        W18883   3.536  20.045  17.547
18020W        W18884   3.474  19.844  15.052
18021W        W18885   2.124  20.340  15.217
18022W        W18886   2.792  21.815  14.548
18023W        W18887   1.994  19.765  18.251
18024W        W18888   0.180  20.671  18.243
18025W        W18889   3.586  18.755  18.028
18026W        W18890   3.076  19.533  16.683
18027W        W18891   1.644  21.725  18.100
18028W        W18892   1.270  18.398  14.773
18029W        W18893   3.009  20.742  14.748
18030W        W18894   0.725  18.990  17.844
18031W        W18895   1.506  20.934  17.584
18032W        W18896   3.267  18.721  17.338
18033W        W18897   2.604  21.891  15.047
18034W        W18898   2.670  20.505  16.745
18035W        W18899   0.945  18.762  17.406
18036W        W18900   1.497  19.701  18.129
18037W        W18901   0.897  20.922  15.325
18038W        W18902   2.615  20.291  15.444
18039W        W18903   0.571  19.105  17.307
18040W        W18904   1.820  21.040  15.751
18041W        W18905   3.413  19.642  16.234
18042W        W18906   1.696  18.340  17.642
18043W        W18907   2.557  21.006  16.800
18044W        W18908   2.926  21.399  16.592
18045W        W18909   1.999  20.966  14.900
18046W        W18910   0.298  21.097  17.969
18047W        W18911   0.937  19.104  16.910
18048W        W18912   0.977  18.515  16.141
18049W        W18913   2.343  19.214  16.685
18050W        W18914   1.207  20.374  14.727
18051W        W18915   3.218  20.438  16.675
18052W        W18916   0.654  20.768  18.089
18053W        W18917   3.025  21.894  15.566
18054W        W18918   1.253  18.995  15.950
18055W        W18919   0.927  20.287  15.978
18056W        W18920   1.201  21.772  17.137
18057W        W18921   3.223  21.847  17.837
18058W        W18922   2.353  20.084  16.957
18059W        W18923   0.359  19.717  14.852
18060W        W18924   3.331  21.498  15.782
18061W        W18925   3.006  18.980  15.096
18062W        W18926   1.230  18.322  17.446
18063W        W18927   2.952  21.182  16.097
18064W        W18928   3.008  19.561  15.907
18065W        W18929   1.315  19.383  16.285
18066W        W18930   1.654  19.482  17.262
18067W        W18931   2.462  20.808  17.301
18068W        W18932   1.134  19.201  17.597
18069W        W18933   1.225  21.776  16.105
18070W        W18934   0.768  21.828  18.010
18071W        W18935   0.529  21.004  14.960
18072W        W18936   3.201  20.988  15.662
18073W        W18937   0.760  19.536  17.538
18074W        W18938   3.365  19.343  14.914
18075W        W18939   1.266  20.578  15.199
18076W        W18940   2.310  19.822  17.529
18077W        W18941   2.251  19.495  17.124
18078W        W18942   0.958  19.973  16.947
18079W        W18943   3.000  21.744  16.992
18080W        W18944   2.669  18.444  17.836
18081W        W18945   0.533  18.543  17.640
18082W        W18946   0.913  19.635  16.527
18083W        W18947   1.282  19.328  14.681
18084W        W18948   0.251  21.230  17.463
18085W        W18949   1.385  19.846  16.645
18086W        W18950   1.545  18.885  14.723
18087W        W18951   0.753  19.807  15.656
18088W        W18952   0.392  21.766  17.154
18089W        W18953   2.980  19.803  14.869
18090W        W18954   3.148  18.597  17.833
18091W        W18955   2.845  20.662  15.840
18092W        W18956   0.256  19.881  17.995
18093W        W18957   3.231  18.504  15.188
18094W        W18958   3.040  20.605  15.323
18095W        W18959   1.418  19.731  15.238
18096W        W18960   2.799  18.611  14.779
18097W        W18961   2.756  19.303  17.066
18098W        W18962   0.623  19.916  16.156
18099W        W18963   0.957  20.771  15.834
18100W        W18964   2.548  19.367  15.813
18101W        W18965   1.576  18.810  16.766
18102W        W18966   3.439  20.784  17.049
18103W        W18967   3.354  18.784  16.821
18104W        W18968   0.100  21.471  16.091
18105W        W18969   0.453  20.669  15.403
18106W        W18970   0.576  18.557  18.185
18107W        W18971   1.482  21.097  18.078
18108W        W18972   3.371  20.214  16.208
18109W        W18973   2.785  20.295  14.934
18110W        W18974   2.145  21.925  16.991
18111W        W18975   2.783  20.452  18.159
18112W        W18976   1.488  18.341  15.444
18113W        W18977   2.241  19.164  16.180
18114W        W18978   0.342  20.818  16.643
18115W        W18979   1.284  18.736  15.153
18116W        W18980   1.233  20.104  17.917
18117W        W18981   2.105  19.124  15.685
18118W        W18982   2.188  20.586  16.921
18119W        W18983   0.701  21.359  17.747
18120W        W18984   1.047  20.994  17.836
18121W        W18985   0.955  19.114  15.026
18122W        W18986   2.469  19.040  15.308
18123W        W18987   2.380  21.304  17.588
18124W        W18988   1.200  19.857  16.114
18125W        W18989   0.729  21.334  17.234
18126W        W18990   3.294  21.579  14.576
18127W        W18991   0.437  20.348  17.873
18128W        W18992   2.195  20.521  16.408
18129W        W18993   0.873  20.393  15.485
18130W        W18994   1.185  21.261  16.977
18131W        W18995   1.632  18.802  16.261
18132W        W18996   0.066  20.668  15.070
18133W        W18997   1.722  19.468  14.908
18134W        W18998   0.398  20.184  15.673
18135W        W18999   1.421  18.779  17.634
18136W        W19000   3.280  18.440  14.674
18137W        W19001   3.262  20.283  17.927
18138W        W19002   2.132  21.627  17.917
18139W        W19003   3.555  20.571  17.505
18140W        W19004   3.089  21.332  17.926
18141W        W19005   0.802  21.673  16.842
18142W        W19006   3.328  20.461  15.757
18143W        W19007   2.085  19.594  15.909
18144W        W19008   1.898  18.277  15.749
18145W        W19009   1.021  21.268  15.736
18146W        W19010   1.384  19.027  17.187
18147W        W19011   1.330  18.412  16.514
18148W        W19012   0.332  21.507  15.023
18149W        W19013   1.932  20.414  15.737
18150W        W19014   1.189  21.377  17.493
18151W        W19015   0.567  20.077  15.196
18152W        W19016   0.239  19.008  16.304
18153W        W19017   1.750  20.685  16.146
18154W        W19018   0.133  18.600  15.313
18155W        W19019   2.702  19.789  17.222
18156W        W19020   2.577  19.078  14.781
18157W        W19021   3.043  20.905  16.630
18158W        W19022   1.793  21.278  16.236
18159W        W19023   1.203  21.387  15.251
18160W        W19024   2.390  18.228  14.642
18161W        W19025   0.423  21.525  16.496
18162W        W19026   2.196  19.217  17.988
18163W        W19027   0.321  19.007  18.196
18164W        W19028   0.498  19.289  15.648
18165W        W19029   0.852  19.611  15.182
18166W        W19030   2.446  19.670  18.003
18167W        W19031   0.991  20.166  16.466
18168W        W19032   2.417  18.344  15.870
18169W        W19033   1.693  21.809  16.350
18170W        W19034   2.730  21.256  17.216
18171W        W19035   2.463  21.299  16.375
18172W        W19036   2.446  20.364  15.971
18173W        W19037   1.784  18.611  15.104
18174W        W19038   3.577  18.339  15.879
18175W        W19039   1.188  19.845  14.611
18176W        W19040   3.374  19.181  15.909
18177W        W19041   2.069  20.245  14.704
18178W        W19042   3.011  20.544  17.573
18179W        W19043   2.487  21.457  14.742
18180W        W19044   1.198  19.007  18.082
18181W        W19045   1.139  19.525  17.174
18182W        W19046   3.241  21.024  17.493
18183W        W19047   2.364  18.837  17.654
18184W        W19048   0.151  19.570  17.581
18185W        W19049   1.939  19.909  17.204
18186W        W19050   0.411  20.625  15.932
18187W        W19051   0.521  19.953  16.668
18188W        W19052   2.709  20.317  17.234
18189W        W19053   2.723  21.698  17.778
18190W        W19054   2.498  19.340  17.565
18191W        W19055   2.729  21.611  15.908
18192W        W19056   1.664  21.274  17.211
18193W        W19057   1.151  21.466  16.508
18194W        W19058   2.937  20.777  17.116
18195W        W19059   1.832  20.745  18.214
18196W        W19060   0.742  20.652  16.326
18197W        W19061   2.884  20.382  16.291
18198W        W19062   2.509  21.541  16.838
18199W        W19063   0.738  21.175  16.695
18200W        W19064   1.684  19.218  18.102
18201W        W19065   1.724  21.329  15.292
18202W        W19066   1.380  20.592  17.972
18203W        W19067   1.371  20.977  15.510
18204W        W19068   0.792  19.506  14.669
18205W        W19069   0.179  21.968  21.596
18206W        W19070   0.499  20.829  21.165
18207W        W19071   3.175  20.347  18.937
18208W        W19072   3.502  21.448  20.971
18209W        W19073   0.964  21.678  18.486
18210W        W19074   1.209  19.780  19.199
18211W        W19075   0.686  19.623  19.677
18212W        W19076   1.613  20.186  19.049
18213W        W19077   1.590  21.508  21.371
18214W        W19078   0.264  19.011  21.239
18215W        W19079   0.812  18.140  21.036
18216W        W19080   2.616  18.573  20.027
18217W        W19081   2.330  19.564  18.594
18218W        W19082   2.788  18.981  21.617
18219W        W19083   0.303  18.653  20.754
18220W        W19084   0.337  21.499  21.773
18221W        W19085   1.516  20.897  18.600
18222W        W19086   0.268  19.516  20.189
18223W        W19087   1.048  19.449  21.498
18224W        W19088   3.324  19.096  20.092
18225W        W19089   3.201  20.292  20.882
18226W        W19090   1.621  19.599  19.910
18227W        W19091   2.266  21.037  20.279
18228W        W19092   0.574  20.363  20.423
18229W        W19093   0.009  19.962  20.147
18230W        W19094   1.060  19.934  21.198
18231W        W19095   3.177  19.604  21.448
18232W        W19096   0.913  21.195  19.895
18233W        W19097   2.015  20.872  20.954
18234W        W19098   1.405  19.306  20.283
18235W        W19099   1.443  20.244  19.919
18236W        W19100   2.359  21.054  21.699
18237W        W19101   1.629  20.290  21.708
18238W        W19102   1.561  20.096  21.216
18239W        W19103   0.062  19.342  21.803
18240W        W19104   2.786  21.046  21.398
18241W        W19105   0.442  18.476  19.149
18242W        W19106   1.037  20.935  20.432
18243W        W19107   3.431  20.743  19.842
18244W        W19108   2.909  18.877  20.338
18245W        W19109   3.142  18.878  18.317
18246W        W19110   3.618  19.550  20.715
18247W        W19111   1.669  21.522  20.438
18248W        W19112   3.337  21.090  18.804
18249W        W19113   0.562  21.915  18.908
18250W        W19114   0.958  21.790  19.294
18251W        W19115   0.746  18.415  20.605
18252W        W19116   3.137  19.502  20.913
18253W        W19117   2.511  19.828  19.402
18254W        W19118   2.846  19.806  18.600
18255W        W19119   1.890  20.745  20.466
18256W        W19120   1.624  19.087  19.835
18257W        W19121   2.218  21.301  20.726
18258W        W19122   2.930  20.023  19.609
18259W        W19123   2.218  18.796  19.269
18260W        W19124   0.752  21.418  19.013
18261W        W19125   0.114  18.830  19.441
18262W        W19126   2.602  19.617  19.864
18263W        W19127   0.402  21.113  19.891
18264W        W19128   1.441  21.433  18.470
18265W        W19129   2.903  19.417  18.083
18266W        W19130   0.272  21.255  20.530
18267W        W19131   0.984  20.942  20.974
18268W        W19132   1.248  20.265  19.415
18269W        W19133   1.227  18.602  20.500
18270W        W19134   3.493  18.363  19.983
18271W        W19135   0.848  20.326  18.231
18272W        W19136   0.437  19.318  18.745
18273W        W19137   0.556  21.157  19.407
18274W        W19138   1.354  20.771  19.453
18275W        W19139   3.037  21.473  21.238
18276W        W19140   1.848  19.154  18.980
18277W        W19141   3.195  21.863  19.962
18278W        W19142   2.722  19.411  21.315
18279W        W19143   3.695  21.160  19.669
18280W        W19144   2.180  20.389  20.956
18281W        W19145   0.148  20.004  19.231
18282W        W19146   0.981  20.494  20.707
18283W        W19147   2.178  19.557  19.099
18284W        W19148   2.055  20.027  19.289
18285W        W19149   0.665  19.512  20.544
18286W        W19150   0.534  19.397  21.558
18287W        W19151   0.472  18.353  19.677
18288W        W19152   2.200  18.801  20.261
18289W        W19153   1.904  18.858  21.515
18290W        W19154   2.325  18.640  18.660
18291W        W19155   3.459  21.271  21.467
18292W        W19156   2.138  18.366  21.498
18293W        W19157   3.178  20.816  21.624
18294W        W19158   2.865  18.696  21.179
18295W        W19159   2.658  18.819  19.584
18296W        W19160   2.770  19.872  21.639
18297W        W19161   0.645  21.610  19.694
18298W        W19162   1.350  19.303  18.949
18299W        W19163   1.031  18.541  21.387
18300W        W19164   2.864  19.061  19.182
18301W        W19165   3.205  19.437  19.044
18302W        W19166   1.190  21.720  21.614
18303W        W19167   1.054  18.335  18.883
18304W        W19168   3.110  18.695  19.876
18305W        W19169   3.492  21.088  18.298
18306W        W19170   0.283  20.379  19.996
18307W        W19171   2.326  18.739  18.148
18308W        W19172   3.459  21.198  20.138
18309W        W19173   3.369  18.273  20.719
18310W        W19174   1.921  19.694  21.141
18311W        W19175   1.754  20.711  19.051
18312W        W19176   2.405  20.175  21.861
18313W        W19177   2.149  18.326  20.053
18314W        W19178   0.708  19.244  20.094
18315W        W19179   0.347  20.348  20.903
18316W        W19180   2.182  21.505  19.720
18317W        W19181   3.307  19.150  20.592
18318W        W19182   2.053  21.614  21.146
18319W        W19183   3.151  20.192  18.439
18320W        W19184   1.615  19.915  19.512
18321W        W19185   3.426  18.352  21.227
18322W        W19186   1.692  20.434  20.825
18323W        W19187   1.923  19.281  20.238
18324W        W19188   2.684  19.499  18.988
18325W        W19189   2.987  19.305  18.597
18326W        W19190   3.099  21.420  19.140
18327W        W19191   2.652  20.746  20.070
18328W        W19192   2.471  19.967  18.916
18329W        W19193   1.968  20.135  19.831
18330W        W19194   2.948  19.929  20.108
18331W        W19195   0.325  19.020  20.376
18332W        W19196   2.865  19.890  21.128
18333W        W19197   3.514  21.654  20.493
18334W        W19198   1.415  21.184  19.789
18335W        W19199   2.562  21.647  21.019
18336W        W19200   2.440  18.741  20.727
18337W        W19201   1.693  21.842  20.845
18338W        W19202   3.153  18.648  19.305
18339W        W19203   2.966  19.912  20.622
18340W        W19204   0.191  19.413  20.711
18341W        W19205   2.829  19.167  19.922
18342W        W19206   3.146  19.113  21.237
18343W        W19207   2.279  20.937  19.764
18344W        W19208   1.549  21.499  19.384
18345W        W19209   0.487  18.812  18.685
18346W        W19210   1.728  18.309  20.398
18347W        W19211   0.775  21.259  18.235
18348W        W19212   1.023  20.118  18.843
18349W        W19213   1.728  20.607  21.311
18350W        W19214   1.703  18.791  19.344
18351W        W19215   2.886  18.326  19.623
18352W        W19216   2.678  21.864  20.080
18353W        W19217   2.146  21.540  20.258
18354W        W19218   1.394  20.536  20.398
18355W        W19219   3.232  21.167  20.623
18356W        W19220   0.896  18.700  19.228
18357W        W19221   1.506  21.045  20.293
18358W        W19222   1.017  18.712  18.479
18359W        W19223   1.659  19.481  20.713
18360W        W19224   2.539  18.277  20.449
18361W        W19225   0.054  20.369  20.468
18362W        W19226   1.501  19.920  18.617
18363W        W19227   0.986  18.214  18.336
18364W        W19228   1.483  19.398  19.438
18365W        W19229   2.452  18.377  21.095
18366W        W19230   1.266  20.521  21.137
18367W        W19231   2.034  20.162  21.393
18368W        W19232   2.539  20.234  21.343
18369W        W19233   1.900  18.533  21.938
18370W        W19234   1.195  18.884  20.053
18371W        W19235   0.751  18.953  19.668
18372W        W19236   0.337  21.606  19.264
18373W        W19237   1.898  21.093  21.411
18374W        W19238   0.821  20.589  18.692
18375W        W19239   2.493  20.122  19.940
18376W        W19240   2.532  19.759  20.352
18377W        W19241   1.801  20.260  20.303
18378W        W19242   2.285  20.529  18.474
18379W        W19243   2.032  18.749  19.760
18380W        W19244   3.274  18.947  18.877
18381W        W19245   0.316  21.737  21.121
18382W        W19246   0.586  20.843  20.660
18383W        W19247   0.071  21.727  18.842
18384W        W19248   2.020  19.048  20.693
18385W        W19249   1.042  21.179  18.674
18386W        W19250   3.310  21.612  18.706
18387W        W19251   2.000  19.953  18.738
18388W        W19252   0.941  19.327  19.308
18389W        W19253   2.043  19.057  18.482
18390W        W19254   2.215  20.652  21.414
18391W        W19255   2.667  18.553  19.140
18392W        W19256   0.134  18.493  18.487
18393W        W19257   1.458  20.876  20.781
18394W        W19258   1.215  20.736  19.963
18395W        W19259   1.093  20.826  18.320
18396W        W19260   0.176  21.229  18.937
18397W        W19261   0.778  19.893  21.636
18398W        W19262   1.456  18.612  21.660
18399W        W19263   1.974  18.629  21.030
18400W        W19264   1.319  18.418  19.362
18401W        W19265   2.186  18.317  19.052
18402W        W19266   0.334  18.394  20.301
18403W        W19267   0.338  19.244  19.706
18404W        W19268   3.039  18.314  20.240
18405W        W19269   0.508  19.033  19.186
18406W        W19270   2.911  18.514  20.702
18407W        W19271   3.279  19.665  18.355
18408W        W19272   0.732  18.724  20.189
18409W        W19273   1.768  19.183  21.130
18410W        W19274  28.986  18.996  18.571
18411W        W19275   0.783  20.376  21.176
18412W        W19276   2.021  19.794  20.209
18413W        W19277   1.916  21.740  18.534
18414W        W19278   0.354  20.198  18.389
18415W        W19279   0.934  20.796  21.460
18416W        W19280   0.534  19.915  21.177
18417W        W19281   1.316  20.095  20.758
18418W        W19282   2.938  18.195  21.112
18419W        W19283   3.421  19.882  21.081
18420W        W19284   3.376  19.880  18.810
18421W        W19285   2.192  20.405  18.978
18422W        W19286   2.939  21.732  18.257
18423W        W19287   1.955  19.914  21.835
18424W        W19288   0.314  20.668  21.852
18425W        W19289   3.679  18.719  21.788
18426W        W19290   2.959  19.447  20.355
18427W        W19291   1.661  21.743  21.828
18428W        W19292   1.451  18.409  18.566
18429W        W19293   3.091  20.713  18.525
18430W        W19294   0.781  19.006  21.329
18431W        W19295   1.401  21.028  21.275
18432W        W19296   3.310  18.753  20.914
18433W        W19297   2.829  21.780  18.767
18434W        W19298   2.755  20.332  20.359
18435W        W19299   0.970  18.739  20.923
18436W        W19300   1.351  19.854  21.649
18437W        W19301   0.919  20.913  19.093
18438W        W19302   2.700  20.334  19.230
18439W        W19303   0.584  19.072  20.832
18440W        W19304   1.812  20.999  19.502
18441W        W19305   3.214  19.550  19.889
18442W        W19306   1.667  18.285  21.297
18443W        W19307   2.763  21.083  20.416
18444W        W19308   3.041  21.484  20.251
18445W        W19309   1.914  21.293  18.262
18446W        W19310   0.182  21.042  21.518
18447W        W19311   0.998  19.090  20.519
18448W        W19312   0.988  18.510  19.753
18449W        W19313   2.489  19.209  20.407
18450W        W19314   1.298  20.378  18.468
18451W        W19315   3.270  20.285  20.363
18452W        W19316   0.619  21.072  21.784
18453W        W19317   2.962  21.904  19.260
18454W        W19318   1.246  18.926  19.516
18455W        W19319   0.910  20.320  19.816
18456W        W19320   1.127  21.843  20.609
18457W        W19321   3.342  21.788  21.503
18458W        W19322   2.275  20.174  20.492
18459W        W19323   0.586  19.694  18.381
18460W        W19324   3.356  21.530  19.590
18461W        W19325   2.785  18.854  18.728
18462W        W19326   1.279  18.319  20.954
18463W        W19327   3.008  21.095  19.899
18464W        W19328   2.913  19.510  19.468
18465W        W19329   1.134  19.336  19.811
18466W        W19330   1.438  19.588  21.197
18467W        W19331   2.536  20.760  21.048
18468W        W19332   1.184  19.181  21.053
18469W        W19333   1.175  21.643  19.746
18470W        W19334   0.677  21.805  21.532
18471W        W19335   0.494  20.977  18.561
18472W        W19336   3.243  21.027  19.446
18473W        W19337   0.769  19.488  21.065
18474W        W19338   3.491  19.204  18.478
18475W        W19339   1.269  20.566  18.963
18476W        W19340   2.351  19.910  20.955
18477W        W19341   2.156  19.549  20.639
18478W        W19342   0.805  19.996  20.739
18479W        W19343   3.052  21.639  20.757
18480W        W19344   2.702  18.411  21.564
18481W        W19345   0.542  18.548  21.201
18482W        W19346   1.018  19.654  20.201
18483W        W19347   1.245  19.380  18.454
18484W        W19348   0.178  21.243  21.027
18485W        W19349   1.490  19.839  20.345
18486W        W19350   1.527  18.938  18.516
18487W        W19351   0.694  19.878  19.189
18488W        W19352   0.482  21.738  20.604
18489W        W19353   2.962  19.907  19.111
18490W        W19354   3.192  18.654  21.590
18491W        W19355   2.762  20.747  19.568
18492W        W19356   0.261  19.822  21.662
18493W        W19357   3.119  18.477  18.773
18494W        W19358   2.971  20.795  19.066
18495W        W19359   1.693  19.676  19.053
18496W        W19360   2.758  18.540  18.334
18497W        W19361   2.844  19.061  20.816
18498W        W19362   0.579  19.943  20.091
18499W        W19363   0.870  20.795  19.589
18500W        W19364   2.465  19.282  19.424
18501W        W19365   1.677  18.806  20.258
18502W        W19366   3.499  20.700  20.713
18503W        W19367   3.393  18.676  20.400
18504W        W19368   0.085  21.480  19.690
18505W        W19369   0.440  20.783  19.049
18506W        W19370   0.625  18.651  21.704
18507W        W19371   1.620  21.225  21.828
18508W        W19372   3.383  20.062  19.855
18509W        W19373   2.724  20.350  18.692
18510W        W19374   2.180  21.828  20.688
18511W        W19375   2.658  20.624  21.657
18512W        W19376   1.613  18.220  19.007
18513W        W19377   2.304  19.176  19.900
18514W        W19378   0.259  20.807  20.280
18515W        W19379   1.341  18.769  18.967
18516W        W19380   1.107  20.317  21.612
18517W        W19381   1.967  19.213  19.477
18518W        W19382   2.425  20.665  20.568
18519W        W19383   0.584  21.329  21.347
18520W        W19384   1.117  21.217  21.719
18521W        W19385   0.911  19.065  18.847
18522W        W19386   2.368  19.111  18.893
18523W        W19387   2.346  21.207  21.211
18524W        W19388   1.152  19.851  19.733
18525W        W19389   0.687  21.339  20.852
18526W        W19390   3.442  21.589  18.221
18527W        W19391   0.398  20.297  21.507
18528W        W19392   2.199  20.525  20.100
18529W        W19393   0.793  20.422  19.248
18530W        W19394   1.225  21.339  20.718
18531W        W19395   1.537  18.567  19.806
18532W        W19396   0.029  20.780  18.727
18533W        W19397   1.742  19.463  18.580
18534W        W19398   0.487  20.132  19.592
18535W        W19399   1.468  18.754  21.163
18536W        W19400   3.242  18.365  18.290
18537W        W19401   3.183  20.144  21.454
18538W        W19402   2.094  21.512  21.662
18539W        W19403   3.486  20.547  21.243
18540W        W19404   3.028  21.337  21.735
18541W        W19405   0.806  21.833  20.174
18542W        W19406   3.178  20.469  19.449
18543W        W19407   2.105  19.657  19.684
18544W        W19408   1.857  18.315  19.471
18545W        W19409   1.065  21.283  19.408
18546W        W19410   1.497  18.992  20.701
18547W        W19411   1.288  18.262  20.138
18548W        W19412   0.472  21.499  18.605
18549W        W19413   1.750  20.437  19.488
18550W        W19414   1.075  21.422  21.210
18551W        W19415   0.476  20.257  18.894
18552W        W19416   0.288  18.768  19.921
18553W        W19417   1.729  20.687  19.953
18554W        W19418   0.009  18.653  18.958
18555W        W19419   2.649  19.530  20.797
18556W        W19420   2.544  19.148  18.384
18557W        W19421   3.169  20.781  20.281
18558W        W19422   1.883  21.184  19.990
18559W        W19423   1.257  21.591  18.931
18560W        W19424   2.323  18.246  18.292
18561W        W19425   0.337  21.599  20.125
18562W        W19426   2.306  19.232  21.602
18563W        W19427   0.524  19.085  21.993
18564W        W19428   0.327  19.517  19.253
18565W        W19429   0.905  19.588  18.799
18566W        W19430   2.325  19.735  21.439
18567W        W19431   1.051  20.161  20.293
18568W        W19432   2.371  18.372  19.576
18569W        W19433   1.687  21.652  19.911
18570W        W19434   2.771  21.197  20.899
18571W        W19435   2.572  21.348  20.020
18572W        W19436   2.294  20.437  19.557
18573W        W19437   1.843  18.659  18.854
18574W        W19438   3.442  18.229  19.485
18575W        W19439   1.064  19.877  18.365
18576W        W19440   3.205  19.102  19.577
18577W        W19441   1.790  20.412  18.616
18578W        W19442   2.953  20.551  21.242
18579W        W19443   3.016  21.254  18.432
18580W        W19444   1.446  19.126  21.530
18581W        W19445   1.156  19.590  20.714
18582W        W19446   3.216  20.984  21.106
18583W        W19447   2.384  18.852  21.265
18584W        W19448   0.159  19.524  21.218
18585W        W19449   1.853  19.965  20.720
18586W        W19450   0.386  20.653  19.567
18587W        W19451   0.326  19.917  20.562
18588W        W19452   2.680  20.293  20.855
18589W        W19453   2.599  21.547  21.522
18590W        W19454   2.270  19.319  21.083
18591W        W19455   2.859  21.586  19.669
18592W        W19456   1.717  21.299  20.915
18593W        W19457   1.212  21.468  20.218
18594W        W19458   2.948  20.719  20.735
18595W        W19459   1.899  20.751  21.802
18596W        W19460   0.712  20.728  20.077
18597W        W19461   3.014  20.423  19.926
18598W        W19462   2.601  21.570  20.508
18599W        W19463   0.730  21.337  20.342
18600W        W19464   1.833  19.458  21.615
18601W        W19465   1.754  21.402  18.887
18602W        W19466   1.400  20.756  21.707
18603W        W19467   1.394  21.095  19.062
18604W        W19468   0.772  19.182  18.357
18605W        W19469   0.160  22.026  25.247
18606W        W19470   0.541  20.778  24.891
18607W        W19471   3.109  20.449  22.756
18608W        W19472   3.324  21.658  24.659
18609W        W19473   1.265  21.602  22.109
18610W        W19474   1.231  19.742  22.927
18611W        W19475   0.749  19.672  23.156
18612W        W19476   1.736  20.230  22.678
18613W        W19477   1.596  21.506  25.008
18614W        W19478   0.316  19.063  24.943
18615W        W19479   0.888  18.232  24.723
18616W        W19480   2.696  18.661  23.817
18617W        W19481   2.376  19.540  22.428
18618W        W19482   2.860  18.973  25.272
18619W        W19483   0.232  18.759  24.440
18620W        W19484   0.321  21.547  25.385
18621W        W19485   1.588  20.855  22.218
18622W        W19486   0.234  19.520  23.915
18623W        W19487   1.138  19.512  25.086
18624W        W19488   3.550  19.159  23.746
18625W        W19489   3.198  20.403  24.416
18626W        W19490   1.621  19.751  23.633
18627W        W19491   2.227  21.081  24.012
18628W        W19492   0.549  20.465  24.136
18629W        W19493  28.984  19.961  23.808
18630W        W19494   1.068  19.957  24.782
18631W        W19495   3.240  19.676  25.085
18632W        W19496   0.908  21.147  23.524
18633W        W19497   2.078  20.900  24.569
18634W        W19498   1.268  19.453  23.854
18635W        W19499   1.520  20.256  23.546
18636W        W19500   2.276  21.107  25.413
18637W        W19501   1.587  20.345  25.358
18638W        W19502   1.549  20.132  24.904
18639W        W19503   0.160  19.433  25.485
18640W        W19504   2.750  20.887  25.199
18641W        W19505   0.429  18.398  23.218
18642W        W19506   0.979  20.758  24.103
18643W        W19507   3.375  20.471  23.597
18644W        W19508   3.123  18.936  23.898
18645W        W19509   3.194  18.905  22.113
18646W        W19510   3.532  19.734  24.337
18647W        W19511   1.577  21.437  24.098
18648W        W19512   3.365  20.912  22.772
18649W        W19513   0.532  21.893  22.538
18650W        W19514   0.864  21.764  22.908
18651W        W19515   0.642  18.463  24.307
18652W        W19516   3.137  19.493  24.619
18653W        W19517   2.531  19.950  23.267
18654W        W19518   2.361  19.617  21.930
18655W        W19519   1.754  20.941  24.135
18656W        W19520   1.667  19.112  23.424
18657W        W19521   2.066  21.392  24.403
18658W        W19522   2.998  20.024  23.045
18659W        W19523   2.180  18.716  22.794
18660W        W19524   0.742  21.377  22.569
18661W        W19525   0.339  18.842  22.985
18662W        W19526   2.515  19.631  23.664
18663W        W19527   0.391  21.057  23.476
18664W        W19528   1.646  21.360  22.337
18665W        W19529   2.890  19.428  21.861
18666W        W19530   0.245  21.299  24.229
18667W        W19531   0.975  20.982  24.706
18668W        W19532   1.344  20.246  23.048
18669W        W19533   1.288  18.726  24.151
18670W        W19534   3.665  18.330  23.871
18671W        W19535   0.690  20.320  21.937
18672W        W19536   0.677  19.438  22.453
18673W        W19537   0.542  21.111  22.977
18674W        W19538   1.378  20.760  23.113
18675W        W19539   2.924  21.420  24.897
18676W        W19540   1.999  19.206  22.567
18677W        W19541   3.259  21.558  23.481
18678W        W19542   2.757  19.439  25.063
18679W        W19543   3.444  21.066  23.535
18680W        W19544   2.197  20.403  24.683
18681W        W19545   0.316  19.776  22.646
18682W        W19546   0.894  20.497  24.534
18683W        W19547   2.143  19.616  22.886
18684W        W19548   2.153  20.125  22.970
18685W        W19549   0.637  19.532  24.234
18686W        W19550   0.613  19.457  25.232
18687W        W19551   0.555  18.358  23.714
18688W        W19552   2.263  18.780  24.064
18689W        W19553   1.949  18.887  25.209
18690W        W19554   2.325  18.716  22.291
18691W        W19555   3.393  21.239  25.054
18692W        W19556   2.292  18.453  25.108
18693W        W19557   3.279  20.736  25.221
18694W        W19558   2.896  19.043  24.736
18695W        W19559   2.509  18.861  23.230
18696W        W19560   2.894  19.931  25.355
18697W        W19561   0.619  21.509  23.284
18698W        W19562   1.510  19.238  22.462
18699W        W19563   1.063  18.611  25.067
18700W        W19564   2.916  19.123  22.969
18701W        W19565   3.210  19.540  22.892
18702W        W19566   1.211  21.822  25.145
18703W        W19567   1.049  18.323  22.497
18704W        W19568   3.443  18.673  23.582
18705W        W19569   3.405  21.093  21.991
18706W        W19570   0.298  20.363  23.678
18707W        W19571   2.350  18.748  21.771
18708W        W19572   3.247  21.292  23.948
18709W        W19573   3.451  18.338  24.369
18710W        W19574   1.912  19.774  24.997
18711W        W19575   1.833  20.751  22.702
18712W        W19576   2.438  20.101  25.616
18713W        W19577   2.032  18.450  23.754
18714W        W19578   0.797  19.250  23.705
18715W        W19579   0.331  20.403  24.599
18716W        W19580   1.995  21.528  23.326
18717W        W19581   3.382  19.249  24.232
18718W        W19582   2.075  21.632  24.865
18719W        W19583   2.928  20.287  21.911
18720W        W19584   1.708  19.873  23.119
18721W        W19585   3.582  18.314  24.863
18722W        W19586   1.815  20.493  24.362
18723W        W19587   1.833  19.334  23.866
18724W        W19588   2.699  19.615  22.860
18725W        W19589   2.871  19.389  22.423
18726W        W19590   3.102  21.258  23.061
18727W        W19591   2.575  20.705  23.761
18728W        W19592   2.525  20.015  22.611
18729W        W19593   2.010  20.073  23.499
18730W        W19594   2.918  19.919  23.790
18731W        W19595   0.441  19.070  24.050
18732W        W19596   2.858  19.915  24.832
18733W        W19597   3.286  21.772  24.133
18734W        W19598   1.397  21.208  23.389
18735W        W19599   2.532  21.638  24.652
18736W        W19600   2.457  19.034  24.473
18737W        W19601   1.672  21.728  24.531
18738W        W19602   3.320  18.688  23.066
18739W        W19603   3.032  19.908  24.325
18740W        W19604   0.183  19.346  24.436
18741W        W19605   2.712  19.156  23.656
18742W        W19606   3.274  19.178  25.048
18743W        W19607   2.187  20.933  23.505
18744W        W19608   1.519  21.574  23.053
18745W        W19609   0.830  18.671  22.189
18746W        W19610   1.637  18.356  24.097
18747W        W19611   0.782  21.492  22.040
18748W        W19612   1.256  20.105  22.543
18749W        W19613   1.764  20.617  24.896
18750W        W19614   1.681  18.816  22.913
18751W        W19615   2.987  18.481  23.420
18752W        W19616   2.450  21.922  23.760
18753W        W19617   2.034  21.613  23.934
18754W        W19618   1.430  20.523  23.996
18755W        W19619   2.973  21.396  24.377
18756W        W19620   0.847  18.742  22.838
18757W        W19621   1.334  21.032  23.858
18758W        W19622   1.026  18.970  21.783
18759W        W19623   1.645  19.679  24.193
18760W        W19624   2.585  18.354  24.227
18761W        W19625   0.038  20.373  24.120
18762W        W19626   1.553  19.935  22.152
18763W        W19627   1.057  18.329  21.865
18764W        W19628   1.579  19.345  22.969
18765W        W19629   2.621  18.577  24.717
18766W        W19630   1.248  20.542  24.923
18767W        W19631   2.063  20.244  25.185
18768W        W19632   2.554  20.292  25.050
18769W        W19633   1.982  18.522  25.592
18770W        W19634   1.229  18.963  23.676
18771W        W19635   0.771  19.114  23.202
18772W        W19636   0.326  21.551  22.851
18773W        W19637   1.929  21.130  25.009
18774W        W19638   0.896  20.474  22.384
18775W        W19639   2.457  20.158  23.764
18776W        W19640   2.559  19.799  24.153
18777W        W19641   1.769  20.141  23.988
18778W        W19642   2.335  20.661  22.070
18779W        W19643   2.006  18.688  23.305
18780W        W19644   3.274  19.084  22.593
18781W        W19645   0.327  21.668  24.893
18782W        W19646   0.553  20.897  24.397
18783W        W19647  28.983  21.744  22.536
18784W        W19648   1.964  19.104  24.320
18785W        W19649   1.143  21.136  22.276
18786W        W19650   2.978  21.429  22.244
18787W        W19651   2.069  19.954  22.361
18788W        W19652   1.054  19.265  22.782
18789W        W19653   2.007  19.051  22.011
18790W        W19654   2.247  20.734  25.058
18791W        W19655   2.829  18.603  22.917
18792W        W19656   0.324  18.565  22.115
18793W        W19657   1.375  20.757  24.465
18794W        W19658   1.170  20.640  23.565
18795W        W19659   0.968  20.758  21.973
18796W        W19660   0.173  21.112  22.581
18797W        W19661   0.868  19.915  25.270
18798W        W19662   1.501  18.622  25.341
18799W        W19663   2.056  18.791  24.714
18800W        W19664   1.274  18.465  22.953
18801W        W19665   2.034  18.304  22.395
18802W        W19666   0.190  18.641  23.929
18803W        W19667   0.383  19.377  23.432
18804W        W19668   3.153  18.433  23.968
18805W        W19669   0.485  18.951  22.495
18806W        W19670   2.920  18.732  24.323
18807W        W19671   3.225  19.859  21.898
18808W        W19672   0.821  18.742  23.903
18809W        W19673   1.776  19.239  24.799
18810W        W19674   0.045  18.973  22.193
18811W        W19675   0.791  20.349  25.006
18812W        W19676   2.096  19.767  23.910
18813W        W19677   2.035  21.676  22.172
18814W        W19678   0.196  20.203  22.008
18815W        W19679   0.929  20.875  25.203
18816W        W19680   0.538  19.960  24.806
18817W        W19681   1.361  20.211  24.420
18818W        W19682   3.072  18.321  24.733
18819W        W19683   3.375  20.016  24.729
18820W        W19684   3.138  20.124  22.356
18821W        W19685   2.219  20.430  22.550
18822W        W19686   2.903  21.808  21.873
18823W        W19687   2.011  19.799  25.513
18824W        W19688   0.354  20.681  25.584
18825W        W19689   3.716  18.772  25.403
18826W        W19690   3.127  19.452  23.805
18827W        W19691   1.614  21.766  25.450
18828W        W19692   1.446  18.450  22.172
18829W        W19693   2.793  20.970  22.007
18830W        W19694   0.844  19.060  25.013
18831W        W19695   1.423  21.011  24.985
18832W        W19696   3.360  18.819  24.591
18833W        W19697   2.623  21.845  22.330
18834W        W19698   2.872  20.369  24.018
18835W        W19699   1.012  18.722  24.573
18836W        W19700   1.483  19.826  25.328
18837W        W19701   0.944  20.901  22.688
18838W        W19702   2.628  20.394  22.952
18839W        W19703   0.631  19.064  24.534
18840W        W19704   1.817  21.047  23.149
18841W        W19705   3.445  19.505  23.375
18842W        W19706   1.806  18.399  24.954
18843W        W19707   2.735  21.154  23.984
18844W        W19708   2.884  21.644  23.827
18845W        W19709   2.058  21.147  22.104
18846W        W19710   0.289  21.055  25.247
18847W        W19711   0.979  19.144  24.174
18848W        W19712   0.913  18.613  23.370
18849W        W19713   2.358  19.307  24.032
18850W        W19714   1.330  20.411  22.111
18851W        W19715   3.370  20.130  23.998
18852W        W19716   0.740  21.303  25.560
18853W        W19717   3.257  21.883  23.074
18854W        W19718   1.247  18.946  23.135
18855W        W19719   0.772  20.274  23.376
18856W        W19720   1.203  21.746  24.286
18857W        W19721   3.264  21.728  25.186
18858W        W19722   2.228  20.177  24.223
18859W        W19723   0.530  19.842  22.148
18860W        W19724   3.612  21.332  23.105
18861W        W19725   2.803  18.881  22.473
18862W        W19726   1.378  18.335  24.690
18863W        W19727   2.922  21.172  23.525
18864W        W19728   2.933  19.588  23.344
18865W        W19729   1.193  19.408  23.343
18866W        W19730   1.491  19.654  24.706
18867W        W19731   2.616  20.720  24.724
18868W        W19732   1.184  19.211  24.657
18869W        W19733   1.116  21.679  23.349
18870W        W19734   0.703  21.839  25.198
18871W        W19735   0.582  20.956  22.284
18872W        W19736   3.150  20.751  23.224
18873W        W19737   0.766  19.514  24.732
18874W        W19738   3.319  19.410  22.159
18875W        W19739   1.350  20.597  22.616
18876W        W19740   2.349  19.924  24.695
18877W        W19741   2.121  19.585  24.394
18878W        W19742   0.855  20.035  24.311
18879W        W19743   2.835  21.906  24.352
18880W        W19744   2.807  18.462  25.210
18881W        W19745   0.565  18.621  24.836
18882W        W19746   0.834  19.760  23.808
18883W        W19747   1.382  19.444  21.960
18884W        W19748   0.250  21.176  24.742
18885W        W19749   1.290  19.964  23.964
18886W        W19750   1.491  18.949  22.038
18887W        W19751   0.805  19.899  22.658
18888W        W19752   0.338  21.822  24.414
18889W        W19753   2.747  19.850  22.166
18890W        W19754   3.280  18.669  25.097
18891W        W19755   2.645  20.829  23.260
18892W        W19756   0.330  19.892  25.306
18893W        W19757   3.223  18.569  22.560
18894W        W19758   2.832  20.874  22.774
18895W        W19759   1.668  19.715  22.614
18896W        W19760   2.785  18.631  22.015
18897W        W19761   2.855  19.251  24.199
18898W        W19762   0.410  19.889  23.509
18899W        W19763   0.860  20.772  23.182
18900W        W19764   2.482  19.367  23.234
18901W        W19765   1.716  18.837  23.874
18902W        W19766   3.394  21.035  24.379
18903W        W19767   3.576  18.775  24.114
18904W        W19768   0.110  21.432  23.300
18905W        W19769   0.477  20.685  22.717
18906W        W19770   0.611  18.720  25.358
18907W        W19771   1.678  21.246  25.454
18908W        W19772   3.304  19.982  23.474
18909W        W19773   2.715  20.442  22.378
18910W        W19774   2.153  21.908  24.379
18911W        W19775   2.896  20.431  25.410
18912W        W19776   1.559  18.208  22.604
18913W        W19777   2.191  19.072  23.597
18914W        W19778   0.267  20.852  23.943
18915W        W19779   1.290  18.782  22.553
18916W        W19780   1.087  20.406  25.405
18917W        W19781   2.053  19.143  23.079
18918W        W19782   2.415  20.655  24.250
18919W        W19783   0.705  21.324  25.027
18920W        W19784   1.181  21.327  25.292
18921W        W19785   1.041  19.128  22.272
18922W        W19786   2.465  19.151  22.754
18923W        W19787   2.434  21.220  24.939
18924W        W19788   1.154  19.918  23.430
18925W        W19789   0.680  21.384  24.508
18926W        W19790   3.389  21.616  21.992
18927W        W19791   0.322  20.379  25.168
18928W        W19792   2.071  20.550  23.863
18929W        W19793   0.874  20.367  22.873
18930W        W19794   1.140  21.225  24.289
18931W        W19795   1.500  18.604  23.422
18932W        W19796   0.091  20.636  22.340
18933W        W19797   1.869  19.516  22.164
18934W        W19798   0.436  20.111  23.015
18935W        W19799   1.536  18.819  24.621
18936W        W19800   3.300  18.404  22.039
18937W        W19801   3.345  20.185  25.206
18938W        W19802   2.087  21.595  25.379
18939W        W19803   3.526  20.675  24.742
18940W        W19804   2.972  21.342  25.402
18941W        W19805   0.728  21.713  24.107
18942W        W19806   3.690  20.813  23.170
18943W        W19807   2.038  19.551  23.413
18944W        W19808   1.747  18.296  23.084
18945W        W19809   1.035  21.275  23.028
18946W        W19810   1.481  19.195  24.242
18947W        W19811   1.191  18.385  23.782
18948W        W19812   0.328  21.491  22.278
18949W        W19813   1.815  20.466  23.159
18950W        W19814   1.162  21.465  24.751
18951W        W19815   0.451  20.244  22.472
18952W        W19816   0.470  18.853  23.529
18953W        W19817   1.679  20.748  23.575
18954W        W19818   0.072  18.620  22.583
18955W        W19819   2.635  19.517  24.566
18956W        W19820   2.533  19.138  22.087
18957W        W19821   3.088  20.805  23.831
18958W        W19822   1.816  21.218  23.699
18959W        W19823   1.230  21.534  22.622
18960W        W19824   2.371  18.271  21.965
18961W        W19825   0.381  21.510  23.761
18962W        W19826   2.306  19.309  25.368
18963W        W19827   0.564  19.146  25.665
18964W        W19828   0.426  19.342  22.896
18965W        W19829   1.174  19.617  22.409
18966W        W19830   2.411  19.807  25.184
18967W        W19831   0.931  20.287  23.859
18968W        W19832   2.449  18.387  23.446
18969W        W19833   1.564  21.656  23.605
18970W        W19834   2.525  21.143  24.447
18971W        W19835   2.418  21.398  23.647
18972W        W19836   2.317  20.450  23.364
18973W        W19837   1.798  18.761  22.409
18974W        W19838   3.631  18.278  23.269
18975W        W19839   1.042  19.979  22.074
18976W        W19840   3.160  19.072  23.405
18977W        W19841   1.851  20.387  22.176
18978W        W19842   3.021  20.427  24.889
18979W        W19843   2.509  21.431  22.016
18980W        W19844   1.394  19.060  25.107
18981W        W19845   1.142  19.616  24.334
18982W        W19846   3.074  20.943  24.779
18983W        W19847   2.442  18.971  24.990
18984W        W19848   0.204  19.559  24.926
18985W        W19849   1.855  20.008  24.525
18986W        W19850   0.381  20.590  23.223
18987W        W19851   0.430  19.986  24.037
18988W        W19852   2.683  20.266  24.490
18989W        W19853   2.566  21.686  25.175
18990W        W19854   2.248  19.417  24.867
18991W        W19855   2.734  21.582  23.281
18992W        W19856   1.612  21.211  24.564
18993W        W19857   1.114  21.500  23.834
18994W        W19858   2.913  20.812  24.312
18995W        W19859   1.881  20.762  25.415
18996W        W19860   0.682  20.702  23.680
18997W        W19861   2.861  20.353  23.461
18998W        W19862   2.492  21.570  24.149
18999W        W19863   0.702  21.182  23.992
19000W        W19864   1.782  19.368  25.318
19001W        W19865   1.922  21.422  22.779
19002W        W19866   1.368  20.829  25.463
19003W        W19867   1.456  21.103  22.746
19004W        W19868   0.861  19.494  21.968
19005W        W19869   0.158  21.924  28.891
19006W        W19870   0.557  20.885  28.507
19007W        W19871   3.074  20.029  26.300
19008W        W19872   3.475  21.466  28.186
19009W        W19873   1.147  21.667  25.672
19010W        W19874   1.173  19.687  26.522
19011W        W19875   0.775  19.566  26.846
19012W        W19876   1.767  20.301  26.195
19013W        W19877   1.546  21.519  28.405
19014W        W19878   0.263  19.106  28.408
19015W        W19879   0.802  18.184  28.281
19016W        W19880   2.598  18.706  27.293
19017W        W19881   2.286  19.417  25.969
19018W        W19882   2.929  18.884  28.812
19019W        W19883   0.308  18.847  27.938
19020W        W19884   0.246  21.423  28.850
19021W        W19885   1.656  20.926  25.887
19022W        W19886   0.209  19.562  27.504
19023W        W19887   1.075  19.501  28.757
19024W        W19888   3.422  19.144  27.350
19025W        W19889   3.252  20.240  28.021
19026W        W19890   1.625  19.688  27.184
19027W        W19891   2.299  21.152  27.558
19028W        W19892   0.645  20.497  27.802
19029W        W19893  28.976  20.005  27.434
19030W        W19894   1.259  19.943  28.488
19031W        W19895   3.396  19.666  28.765
19032W        W19896   0.893  21.097  27.107
19033W        W19897   2.156  20.835  28.212
19034W        W19898   1.373  19.313  27.456
19035W        W19899   1.489  20.229  27.174
19036W        W19900   2.563  21.003   0.037
19037W        W19901   1.586  20.219  28.869
19038W        W19902   1.774  20.067  28.412
19039W        W19903   0.076  19.452  28.861
19040W        W19904   2.895  20.937  28.673
19041W        W19905   0.495  18.494  26.605
19042W        W19906   0.980  20.892  27.679
19043W        W19907   3.406  20.745  27.047
19044W        W19908   2.797  19.010  27.660
19045W        W19909   3.275  18.991  25.556
19046W        W19910   3.762  19.710  27.955
19047W        W19911   1.559  21.527  27.614
19048W        W19912   3.456  21.524  26.180
19049W        W19913   0.526  21.916  26.191
19050W        W19914   0.864  21.771  26.582
19051W        W19915   0.758  18.560  27.881
19052W        W19916   3.332  19.500  28.276
19053W        W19917   2.441  19.895  26.853
19054W        W19918   2.598  19.625  25.635
19055W        W19919   1.929  20.832  27.686
19056W        W19920   1.671  19.079  27.052
19057W        W19921   2.384  21.275  28.045
19058W        W19922   3.060  19.991  26.822
19059W        W19923   2.224  18.656  26.462
19060W        W19924   0.666  21.408  26.243
19061W        W19925   0.181  18.846  26.771
19062W        W19926   2.596  19.604  27.245
19063W        W19927   0.357  21.048  27.128
19064W        W19928   1.563  21.488  25.906
19065W        W19929   3.044  19.430  25.490
19066W        W19930   0.187  21.375  27.926
19067W        W19931   0.991  20.908  28.195
19068W        W19932   1.219  20.326  26.731
19069W        W19933   1.380  18.599  27.864
19070W        W19934   3.569  18.429  27.458
19071W        W19935   0.645  20.246  25.606
19072W        W19936   0.635  19.416  26.121
19073W        W19937   0.552  21.136  26.666
19074W        W19938   1.405  20.837  26.754
19075W        W19939   3.062  21.384  28.518
19076W        W19940   1.929  19.182  26.265
19077W        W19941   3.240  21.763  27.160
19078W        W19942   2.837  19.518  28.495
19079W        W19943   3.681  21.176  26.849
19080W        W19944   2.249  20.279  28.292
19081W        W19945   0.365  19.822  26.349
19082W        W19946   1.134  20.467  27.962
19083W        W19947   2.213  19.578  26.468
19084W        W19948   2.070  20.068  26.538
19085W        W19949   0.527  19.599  27.925
19086W        W19950   0.564  19.540  28.736
19087W        W19951   0.424  18.419  27.091
19088W        W19952   2.219  18.823  27.629
19089W        W19953   1.927  18.741  28.775
19090W        W19954   2.412  18.740  25.976
19091W        W19955   3.525  21.219  28.719
19092W        W19956   2.282  18.177  28.733
19093W        W19957   3.309  20.758  28.891
19094W        W19958   3.009  19.066  28.313
19095W        W19959   2.548  18.855  26.811
19096W        W19960   2.992  19.943  28.997
19097W        W19961   0.601  21.506  27.049
19098W        W19962   1.419  19.229  26.358
19099W        W19963   0.930  18.501  28.691
19100W        W19964   2.951  19.146  26.567
19101W        W19965   3.262  19.562  26.456
19102W        W19966   1.203  21.708  28.816
19103W        W19967   1.062  18.313  26.072
19104W        W19968   3.408  18.722  27.057
19105W        W19969   3.424  21.120  25.558
19106W        W19970   0.302  20.350  27.273
19107W        W19971   2.411  18.801  25.462
19108W        W19972   3.502  21.189  27.341
19109W        W19973   3.522  18.395  27.971
19110W        W19974   2.130  19.360  28.802
19111W        W19975   1.811  20.792  26.391
19112W        W19976   2.482  20.054   0.182
19113W        W19977   2.282  18.335  27.438
19114W        W19978   0.893  19.217  27.233
19115W        W19979   0.328  20.547  28.197
19116W        W19980   2.340  21.575  27.248
19117W        W19981   3.286  19.198  27.862
19118W        W19982   2.092  21.570  28.349
19119W        W19983   3.302  20.221  25.709
19120W        W19984   1.575  19.949  26.737
19121W        W19985   3.721  18.364  28.441
19122W        W19986   1.892  20.386  27.954
19123W        W19987   1.914  19.340  27.441
19124W        W19988   2.767  19.691  26.526
19125W        W19989   2.848  19.417  26.115
19126W        W19990   3.026  21.396  26.464
19127W        W19991   2.607  20.666  27.336
19128W        W19992   2.577  19.871  26.094
19129W        W19993   1.982  20.054  27.076
19130W        W19994   3.102  19.926  27.337
19131W        W19995   0.537  19.180  27.609
19132W        W19996   3.086  19.965  28.433
19133W        W19997   3.516  21.608  27.642
19134W        W19998   1.392  21.216  27.098
19135W        W19999   2.632  21.640  28.357
19136W        W20000   2.477  18.952  28.065
19137W        W20001   1.707  21.807  28.013
19138W        W20002   3.286  18.731  26.548
19139W        W20003   3.238  19.756  27.830
19140W        W20004   0.086  19.316  27.947
19141W        W20005   2.953  19.032  27.110
19142W        W20006   3.381  19.131  28.664
19143W        W20007   2.198  20.894  27.118
19144W        W20008   1.460  21.542  26.652
19145W        W20009   0.753  18.713  25.882
19146W        W20010   1.794  18.380  27.567
19147W        W20011   0.661  21.821  25.702
19148W        W20012   1.298  20.098  26.236
19149W        W20013   1.818  20.586  28.495
19150W        W20014   1.721  18.790  26.586
19151W        W20015   2.941  18.543  26.911
19152W        W20016   2.774  21.878  27.340
19153W        W20017   2.074  21.592  27.720
19154W        W20018   1.506  20.493  27.608
19155W        W20019   3.331  21.118  27.814
19156W        W20020   0.922  18.683  26.421
19157W        W20021   1.464  21.014  27.568
19158W        W20022   1.061  18.931  25.493
19159W        W20023   1.646  19.589  27.826
19160W        W20024   2.647  18.512  27.781
19161W        W20025   0.102  20.353  27.792
19162W        W20026   1.608  19.963  25.816
19163W        W20027   1.048  18.405  25.557
19164W        W20028   1.730  19.452  26.701
19165W        W20029   2.769  18.621  28.378
19166W        W20030   1.324  20.468  28.457
19167W        W20031   2.139  20.283  28.788
19168W        W20032   2.627  20.122  28.649
19169W        W20033   2.043  18.401   0.132
19170W        W20034   1.232  18.835  27.291
19171W        W20035   0.684  18.917  26.863
19172W        W20036   0.354  21.620  26.608
19173W        W20037   1.902  21.153  28.552
19174W        W20038   0.922  20.409  26.042
19175W        W20039   2.542  20.134  27.293
19176W        W20040   2.718  19.820  27.686
19177W        W20041   1.775  20.048  27.574
19178W        W20042   2.399  20.596  25.519
19179W        W20043   2.082  18.711  27.115
19180W        W20044   3.555  19.118  26.341
19181W        W20045   0.271  21.792  28.410
19182W        W20046   0.514  20.980  27.997
19183W        W20047   0.032  21.752  26.236
19184W        W20048   1.993  19.200  27.919
19185W        W20049   1.182  21.165  25.819
19186W        W20050   2.998  21.477  25.920
19187W        W20051   2.076  19.888  26.017
19188W        W20052   0.920  19.208  26.500
19189W        W20053   2.037  19.041  25.717
19190W        W20054   2.485  20.631  28.594
19191W        W20055   2.781  18.684  26.383
19192W        W20056   0.250  18.481  25.718
19193W        W20057   1.552  20.773  28.040
19194W        W20058   1.196  20.680  27.205
19195W        W20059   0.873  20.774  25.697
19196W        W20060   0.179  21.210  26.268
19197W        W20061   0.778  20.016  28.676
19198W        W20062   1.458  18.513  28.794
19199W        W20063   1.880  18.686  28.009
19200W        W20064   1.341  18.393  26.631
19201W        W20065   2.179  18.277  26.042
19202W        W20066   0.304  18.473  27.586
19203W        W20067   0.391  19.320  27.095
19204W        W20068   3.092  18.647  27.442
19205W        W20069   0.491  18.938  26.301
19206W        W20070   3.100  18.699  27.961
19207W        W20071   3.454  19.753  25.547
19208W        W20072   0.722  18.745  27.379
19209W        W20073   2.032  19.048  28.392
19210W        W20074   0.136  18.952  25.905
19211W        W20075   0.810  20.440  28.370
19212W        W20076   2.194  19.786  27.494
19213W        W20077   1.940  21.821  25.862
19214W        W20078   0.130  20.226  25.656
19215W        W20079   1.019  20.820  28.702
19216W        W20080   0.504  20.041  28.209
19217W        W20081   1.463  20.068  27.997
19218W        W20082   3.105  18.248  28.260
19219W        W20083   3.611  20.034  28.331
19220W        W20084   3.513  19.875  26.067
19221W        W20085   2.317  20.331  26.098
19222W        W20086   2.901  21.841  25.554
19223W        W20087   2.036  19.828   0.025
19224W        W20088   0.532  20.624   0.187
19225W        W20089   3.712  18.736  28.900
19226W        W20090   3.017  19.434  27.478
19227W        W20091   1.757  21.678  28.839
19228W        W20092   1.510  18.417  25.815
19229W        W20093   3.148  20.715  25.758
19230W        W20094   0.734  19.059  28.619
19231W        W20095   1.434  20.998  28.469
19232W        W20096   3.497  18.872  28.237
19233W        W20097   2.681  21.904  26.034
19234W        W20098   2.867  20.313  27.644
19235W        W20099   1.048  18.797  28.257
19236W        W20100   1.577  19.694  28.821
19237W        W20101   0.932  20.952  26.225
19238W        W20102   2.641  20.215  26.506
19239W        W20103   0.703  19.155  28.112
19240W        W20104   1.806  21.163  26.787
19241W        W20105   3.476  19.696  26.994
19242W        W20106   1.809  18.361  28.456
19243W        W20107   2.760  21.070  27.723
19244W        W20108   3.048  21.418  27.485
19245W        W20109   2.040  21.310  25.831
19246W        W20110   0.213  20.910  28.896
19247W        W20111   1.023  18.992  27.735
19248W        W20112   0.951  18.476  26.981
19249W        W20113   2.421  19.366  27.693
19250W        W20114   1.408  20.451  25.828
19251W        W20115   3.373  20.406  27.527
19252W        W20116   0.734  21.238  28.845
19253W        W20117   3.066  21.919  26.497
19254W        W20118   1.242  18.890  26.773
19255W        W20119   0.777  20.270  27.014
19256W        W20120   1.166  21.777  27.869
19257W        W20121   3.329  21.743  28.739
19258W        W20122   2.366  20.182  27.790
19259W        W20123   0.416  19.822  25.816
19260W        W20124   3.434  21.603  26.701
19261W        W20125   3.098  18.964  26.077
19262W        W20126   1.297  18.338  28.327
19263W        W20127   3.160  21.259  26.982
19264W        W20128   3.007  19.510  26.953
19265W        W20129   1.269  19.385  26.927
19266W        W20130   1.795  19.516  28.349
19267W        W20131   2.716  20.903  28.203
19268W        W20132   1.283  19.281  28.357
19269W        W20133   1.097  21.635  27.030
19270W        W20134   0.653  21.755  28.775
19271W        W20135   0.495  21.032  25.921
19272W        W20136   3.301  20.955  26.575
19273W        W20137   0.853  19.635  28.315
19274W        W20138   3.348  19.388  25.923
19275W        W20139   1.325  20.617  26.304
19276W        W20140   2.207  19.816  28.536
19277W        W20141   2.348  19.433  28.222
19278W        W20142   0.936  19.980  27.921
19279W        W20143   3.074  21.856  27.754
19280W        W20144   2.879  18.309  28.781
19281W        W20145   0.521  18.626  28.359
19282W        W20146   0.823  19.648  27.500
19283W        W20147   1.317  19.381  25.555
19284W        W20148   0.128  21.137  28.394
19285W        W20149   1.295  19.852  27.548
19286W        W20150   1.528  18.953  25.755
19287W        W20151   0.827  19.901  26.139
19288W        W20152   0.488  21.797  27.938
19289W        W20153   3.032  19.809  25.843
19290W        W20154   3.282  18.595  28.598
19291W        W20155   2.892  20.826  26.905
19292W        W20156   0.254  19.946  28.751
19293W        W20157   3.230  18.468  26.069
19294W        W20158   3.127  20.451  26.630
19295W        W20159   1.679  19.731  26.285
19296W        W20160   2.868  18.658  25.708
19297W        W20161   2.838  19.427  27.991
19298W        W20162   0.495  19.857  27.174
19299W        W20163   0.898  20.740  26.718
19300W        W20164   2.538  19.356  26.808
19301W        W20165   1.704  18.875  27.523
19302W        W20166   3.578  20.669  27.983
19303W        W20167   3.634  18.847  27.742
19304W        W20168   0.064  21.450  27.004
19305W        W20169   0.472  20.740  26.345
19306W        W20170   0.477  18.685  28.884
19307W        W20171   1.777  21.189   0.065
19308W        W20172   3.497  20.221  27.047
19309W        W20173   2.827  20.293  25.916
19310W        W20174   2.309  21.942  28.065
19311W        W20175   2.851  20.490  28.948
19312W        W20176   1.695  18.271  26.282
19313W        W20177   2.350  19.142  27.231
19314W        W20178   0.269  20.789  27.568
19315W        W20179   1.375  18.729  26.206
19316W        W20180   1.084  20.386  28.951
19317W        W20181   2.102  19.097  26.750
19318W        W20182   2.428  20.686  27.813
19319W        W20183   0.560  21.386  28.377
19320W        W20184   1.278  21.208  28.917
19321W        W20185   1.057  19.126  25.982
19322W        W20186   2.468  19.115  26.348
19323W        W20187   2.432  21.158  28.545
19324W        W20188   1.129  19.879  27.053
19325W        W20189   0.830  21.393  27.952
19326W        W20190   3.429  21.630  25.658
19327W        W20191   0.388  20.434  28.705
19328W        W20192   2.110  20.438  27.409
19329W        W20193   0.723  20.286  26.503
19330W        W20194   1.322  21.264  28.001
19331W        W20195   1.589  18.565  27.055
19332W        W20196   0.048  20.689  26.003
19333W        W20197   1.753  19.459  25.846
19334W        W20198   0.307  20.113  26.776
19335W        W20199   1.553  18.821  28.385
19336W        W20200   3.338  18.480  25.576
19337W        W20201   3.412  20.200  28.779
19338W        W20202   2.202  21.433  28.898
19339W        W20203   3.604  20.583  28.496
19340W        W20204   3.122  21.228   0.044
19341W        W20205   0.769  21.786  27.472
19342W        W20206   3.626  20.543  26.633
19343W        W20207   2.109  19.552  27.020
19344W        W20208   1.928  18.327  26.747
19345W        W20209   1.045  21.255  26.643
19346W        W20210   1.493  19.097  27.935
19347W        W20211   1.299  18.332  27.411
19348W        W20212   0.309  21.519  25.888
19349W        W20213   1.756  20.434  26.765
19350W        W20214   1.060  21.352  28.456
19351W        W20215   0.414  20.290  26.084
19352W        W20216   0.230  18.879  27.286
19353W        W20217   1.709  20.747  27.188
19354W        W20218   0.089  18.609  26.288
19355W        W20219   2.598  19.881  28.184
19356W        W20220   2.677  19.131  25.739
19357W        W20221   3.089  20.867  27.407
19358W        W20222   1.866  21.250  27.313
19359W        W20223   1.151  21.541  26.205
19360W        W20224   2.461  18.322  25.602
19361W        W20225   0.287  21.607  27.460
19362W        W20226   2.562  19.141   0.084
19363W        W20227   0.447  19.160   0.062
19364W        W20228   0.376  19.357  26.587
19365W        W20229   1.256  19.608  26.017
19366W        W20230   2.544  19.641  28.888
19367W        W20231   1.006  20.275  27.482
19368W        W20232   2.436  18.356  26.924
19369W        W20233   1.624  21.689  27.120
19370W        W20234   2.969  21.414  28.023
19371W        W20235   2.684  21.184  27.212
19372W        W20236   2.317  20.415  26.909
19373W        W20237   1.878  18.705  26.073
19374W        W20238   3.606  18.349  26.770
19375W        W20239   1.113  20.019  25.727
19376W        W20240   3.397  19.197  26.829
19377W        W20241   1.969  20.319  25.704
19378W        W20242   3.089  20.494  28.476
19379W        W20243   2.529  21.487  25.669
19380W        W20244   1.203  18.955  28.768
19381W        W20245   1.117  19.479  27.895
19382W        W20246   3.269  20.961  28.310
19383W        W20247   2.264  18.582  28.385
19384W        W20248   0.207  19.619  28.355
19385W        W20249   2.060  19.843  28.020
19386W        W20250   0.415  20.617  26.848
19387W        W20251   0.483  20.031  27.653
19388W        W20252   2.726  20.380  28.141
19389W        W20253   2.706  21.481  28.871
19390W        W20254   2.526  19.085  28.565
19391W        W20255   2.814  21.637  26.888
19392W        W20256   1.838  21.234  28.022
19393W        W20257   1.088  21.381  27.498
19394W        W20258   3.068  20.696  27.902
19395W        W20259   2.086  20.818  28.877
19396W        W20260   0.691  20.680  27.307
19397W        W20261   3.009  20.395  27.149
19398W        W20262   2.592  21.618  27.731
19399W        W20263   0.595  21.211  27.537
19400W        W20264   1.652  19.190  28.755
19401W        W20265   1.858  21.495  26.323
19402W        W20266   1.528  20.742  28.919
19403W        W20267   1.439  21.138  26.313
19404W        W20268   0.855  19.576  25.678
19405W        W20269   0.217  25.621   3.452
19406W        W20270   0.539  24.356   3.036
19407W        W20271   3.273  24.082   0.776
19408W        W20272   3.453  25.252   2.773
19409W        W20273   1.446  25.158   0.359
19410W        W20274   1.232  23.381   1.131
19411W        W20275   0.817  23.251   1.460
19412W        W20276   1.745  23.888   0.863
19413W        W20277   1.636  25.134   3.107
19414W        W20278   0.183  22.540   3.028
19415W        W20279   0.876  21.796   2.742
19416W        W20280   2.581  22.234   1.692
19417W        W20281   2.257  23.118   0.421
19418W        W20282   2.820  22.664   3.308
19419W        W20283   0.303  22.283   2.577
19420W        W20284   0.377  25.104   3.504
19421W        W20285   1.715  24.231   0.438
19422W        W20286   0.402  23.119   2.090
19423W        W20287   1.064  23.232   3.390
19424W        W20288   3.305  22.770   1.840
19425W        W20289   3.294  24.019   2.597
19426W        W20290   1.695  23.303   1.717
19427W        W20291   2.361  24.697   2.049
19428W        W20292   0.606  24.084   2.307
19429W        W20293  28.998  23.473   1.999
19430W        W20294   1.142  23.508   2.941
19431W        W20295   3.299  23.310   3.162
19432W        W20296   1.008  24.608   1.685
19433W        W20297   2.172  24.497   2.672
19434W        W20298   1.296  22.980   2.041
19435W        W20299   1.602  23.860   1.684
19436W        W20300   2.316  24.804   3.459
19437W        W20301   1.636  24.010   3.467
19438W        W20302   1.648  23.629   3.104
19439W        W20303   0.087  22.913   3.399
19440W        W20304   2.787  24.558   3.281
19441W        W20305   0.514  22.146   1.233
19442W        W20306   1.035  24.346   2.158
19443W        W20307   3.537  24.244   1.634
19444W        W20308   2.808  22.566   2.005
19445W        W20309   3.314  22.636   0.178
19446W        W20310   3.612  23.370   2.454
19447W        W20311   1.609  25.044   2.178
19448W        W20312   3.410  24.610   0.797
19449W        W20313   0.568  25.518   0.754
19450W        W20314   0.906  25.404   1.123
19451W        W20315   0.795  22.230   2.459
19452W        W20316   3.174  23.180   2.669
19453W        W20317   2.662  23.524   1.216
19454W        W20318   2.723  23.285   0.330
19455W        W20319   1.888  24.625   2.266
19456W        W20320   1.675  22.666   1.508
19457W        W20321   2.174  24.993   2.543
19458W        W20322   3.190  23.639   1.092
19459W        W20323   2.186  22.336   0.935
19460W        W20324   0.724  25.039   0.795
19461W        W20325   0.186  22.550   1.265
19462W        W20326   2.803  23.064   1.793
19463W        W20327   0.411  24.662   1.673
19464W        W20328   1.774  24.943   0.726
19465W        W20329   3.014  23.031  28.983
19466W        W20330   0.267  24.879   2.371
19467W        W20331   0.973  24.603   2.925
19468W        W20332   1.340  23.922   1.227
19469W        W20333   1.237  22.451   2.265
19470W        W20334   3.575  21.911   1.725
19471W        W20335   0.790  24.041   0.061
19472W        W20336   0.514  23.036   0.619
19473W        W20337   0.580  24.736   1.198
19474W        W20338   1.523  24.365   1.454
19475W        W20339   3.001  25.107   2.982
19476W        W20340   1.933  22.835   0.722
19477W        W20341   3.227  25.194   1.466
19478W        W20342   2.817  23.139   3.074
19479W        W20343   3.569  24.643   1.302
19480W        W20344   2.273  24.001   2.749
19481W        W20345   0.233  23.387   0.869
19482W        W20346   0.996  24.181   2.638
19483W        W20347   2.266  23.206   0.935
19484W        W20348   2.175  23.669   1.112
19485W        W20349   0.590  23.215   2.553
19486W        W20350   0.583  23.070   3.338
19487W        W20351   0.654  21.918   1.697
19488W        W20352   2.223  22.401   2.018
19489W        W20353   1.946  22.506   3.233
19490W        W20354   2.370  22.408   0.438
19491W        W20355   3.475  24.985   3.235
19492W        W20356   2.187  22.034   3.263
19493W        W20357   3.280  24.462   3.397
19494W        W20358   2.870  22.498   2.810
19495W        W20359   2.562  22.465   1.231
19496W        W20360   2.912  23.570   3.380
19497W        W20361   0.750  25.053   1.607
19498W        W20362   1.412  22.865   0.799
19499W        W20363   1.056  22.242   3.175
19500W        W20364   2.954  22.750   1.009
19501W        W20365   3.340  23.153   0.934
19502W        W20366   1.175  25.318   3.282
19503W        W20367   1.075  21.905   0.644
19504W        W20368   3.335  22.326   1.581
19505W        W20369   3.593  24.802   0.308
19506W        W20370   0.265  23.928   1.766
19507W        W20371   2.406  22.359  28.910
19508W        W20372   3.459  24.960   1.860
19509W        W20373   3.417  21.982   2.429
19510W        W20374   1.944  23.197   3.234
19511W        W20375   1.854  24.397   0.902
19512W        W20376   2.510  23.813   3.624
19513W        W20377   2.155  21.946   1.762
19514W        W20378   0.809  22.849   1.816
19515W        W20379   0.362  23.961   2.744
19516W        W20380   2.214  25.123   1.557
19517W        W20381   3.104  22.729   2.390
19518W        W20382   2.139  25.234   3.000
19519W        W20383   3.314  23.937   0.311
19520W        W20384   1.704  23.563   1.271
19521W        W20385   3.538  21.996   2.930
19522W        W20386   2.009  24.139   2.310
19523W        W20387   1.982  22.870   1.852
19524W        W20388   2.810  23.202   0.835
19525W        W20389   3.184  23.096   0.455
19526W        W20390   3.070  24.813   1.151
19527W        W20391   2.754  24.370   1.866
19528W        W20392   2.553  23.642   0.705
19529W        W20393   2.074  23.696   1.627
19530W        W20394   3.066  23.516   1.805
19531W        W20395   0.420  22.612   2.174
19532W        W20396   3.062  23.650   2.885
19533W        W20397   3.555  25.266   2.252
19534W        W20398   1.449  24.858   1.551
19535W        W20399   2.582  25.278   2.725
19536W        W20400   2.499  22.478   2.450
19537W        W20401   1.770  25.350   2.632
19538W        W20402   3.254  22.336   1.068
19539W        W20403   3.139  23.610   2.353
19540W        W20404   0.061  22.900   2.480
19541W        W20405   2.932  22.645   1.511
19542W        W20406   3.248  22.809   3.027
19543W        W20407   2.276  24.473   1.578
19544W        W20408   1.598  25.174   1.172
19545W        W20409   0.645  22.342   0.450
19546W        W20410   1.710  21.903   2.079
19547W        W20411   0.925  25.032   0.319
19548W        W20412   1.230  23.734   0.735
19549W        W20413   1.852  24.219   2.998
19550W        W20414   1.704  22.468   1.034
19551W        W20415   2.919  22.069   1.360
19552W        W20416   2.624  25.365   1.754
19553W        W20417   2.097  25.161   2.067
19554W        W20418   1.483  24.058   2.140
19555W        W20419   3.320  24.843   2.453
19556W        W20420   0.912  22.303   0.938
19557W        W20421   1.456  24.567   1.977
19558W        W20422   1.034  22.472   0.135
19559W        W20423   1.755  23.161   2.216
19560W        W20424   2.585  21.974   2.146
19561W        W20425   0.106  23.963   2.274
19562W        W20426   1.648  23.700   0.390
19563W        W20427   0.899  21.971   0.170
19564W        W20428   1.698  23.059   1.188
19565W        W20429   2.477  22.095   2.812
19566W        W20430   1.363  24.038   2.975
19567W        W20431   2.111  23.870   3.277
19568W        W20432   2.622  23.908   3.110
19569W        W20433   1.960  22.250   3.697
19570W        W20434   1.236  22.546   1.749
19571W        W20435   0.718  22.610   1.370
19572W        W20436   0.417  25.237   1.167
19573W        W20437   1.971  24.736   3.081
19574W        W20438   0.874  24.120   0.597
19575W        W20439   2.570  23.585   1.719
19576W        W20440   2.702  23.361   2.209
19577W        W20441   1.867  23.683   2.117
19578W        W20442   2.512  24.282   0.118
19579W        W20443   2.088  22.355   1.480
19580W        W20444   3.747  22.805   0.931
19581W        W20445   0.360  25.363   3.024
19582W        W20446   0.614  24.528   2.545
19583W        W20447   0.086  25.367   0.769
19584W        W20448   2.001  22.730   2.358
19585W        W20449   1.411  24.654   0.498
19586W        W20450   3.215  25.091   0.599
19587W        W20451   2.064  23.550   0.619
19588W        W20452   0.947  22.951   1.045
19589W        W20453   2.023  22.709   0.215
19590W        W20454   2.330  24.345   3.148
19591W        W20455   2.777  22.292   0.799
19592W        W20456   0.190  22.122   0.356
19593W        W20457   1.529  24.343   2.572
19594W        W20458   1.149  24.101   1.686
19595W        W20459   1.007  24.485   0.239
19596W        W20460   0.241  24.854   0.791
19597W        W20461   0.726  23.606   3.495
19598W        W20462   1.494  22.321   3.459
19599W        W20463   2.032  22.352   2.712
19600W        W20464   1.356  22.057   1.074
19601W        W20465   2.203  21.949   0.613
19602W        W20466   0.385  22.087   2.123
19603W        W20467   0.319  22.875   1.639
19604W        W20468   3.069  21.957   1.900
19605W        W20469   0.518  22.605   0.881
19606W        W20470   2.978  22.230   2.357
19607W        W20471   3.466  23.453   0.224
19608W        W20472   0.815  22.343   1.955
19609W        W20473   1.860  22.871   2.836
19610W        W20474   0.187  22.635   0.464
19611W        W20475   0.844  23.925   3.056
19612W        W20476   2.204  23.324   1.957
19613W        W20477   1.948  25.297   0.330
19614W        W20478   0.269  23.943   0.182
19615W        W20479   1.088  24.290   3.340
19616W        W20480   0.582  23.478   3.008
19617W        W20481   1.284  23.773   2.522
19618W        W20482   3.002  21.981   2.803
19619W        W20483   3.605  23.696   2.858
19620W        W20484   3.551  23.622   0.708
19621W        W20485   2.295  24.090   0.844
19622W        W20486   3.007  25.415   0.229
19623W        W20487   2.079  23.469   3.659
19624W        W20488   0.202  24.269   3.601
19625W        W20489   3.650  22.363   3.381
19626W        W20490   3.216  23.158   2.145
19627W        W20491   1.598  25.418   3.546
19628W        W20492   1.413  22.036   0.272
19629W        W20493   3.147  24.459   0.368
19630W        W20494   0.681  22.600   3.180
19631W        W20495   1.478  24.560   3.069
19632W        W20496   3.364  22.416   2.700
19633W        W20497   2.744  25.472   0.667
19634W        W20498   2.795  23.890   2.074
19635W        W20499   1.024  22.568   2.769
19636W        W20500   1.548  23.354   3.520
19637W        W20501   0.973  24.606   0.765
19638W        W20502   2.810  23.984   1.022
19639W        W20503   0.528  22.727   2.695
19640W        W20504   1.899  24.748   1.283
19641W        W20505   3.491  23.203   1.602
19642W        W20506   1.729  22.056   2.998
19643W        W20507   2.966  24.813   2.070
19644W        W20508   3.084  25.310   1.963
19645W        W20509   2.169  24.504   0.491
19646W        W20510   0.203  24.670   3.302
19647W        W20511   0.880  22.829   2.329
19648W        W20512   1.009  22.189   1.457
19649W        W20513   2.438  22.897   2.136
19650W        W20514   1.268  24.027   0.285
19651W        W20515   3.300  23.990   2.022
19652W        W20516   0.682  24.618   3.459
19653W        W20517   3.158  25.462   1.005
19654W        W20518   1.247  22.577   1.222
19655W        W20519   0.741  23.758   1.621
19656W        W20520   1.235  25.312   2.420
19657W        W20521   3.293  25.452   3.268
19658W        W20522   2.351  23.728   2.316
19659W        W20523   0.387  23.466   0.367
19660W        W20524   3.501  25.075   1.034
19661W        W20525   3.333  22.668   0.690
19662W        W20526   1.293  22.121   2.681
19663W        W20527   3.149  24.618   1.619
19664W        W20528   3.049  23.197   1.353
19665W        W20529   1.275  23.019   1.514
19666W        W20530   1.602  23.363   2.658
19667W        W20531   2.680  24.390   2.791
19668W        W20532   1.430  23.078   3.055
19669W        W20533   1.229  25.313   1.507
19670W        W20534   0.707  25.481   3.385
19671W        W20535   0.539  24.653   0.399
19672W        W20536   3.219  24.273   1.231
19673W        W20537   0.908  23.040   2.926
19674W        W20538   3.691  23.136   0.544
19675W        W20539   1.342  24.230   0.802
19676W        W20540   2.089  23.529   2.855
19677W        W20541   2.210  23.233   2.453
19678W        W20542   0.783  23.688   2.576
19679W        W20543   3.037  25.297   2.470
19680W        W20544   2.719  22.137   3.267
19681W        W20545   0.572  22.145   2.984
19682W        W20546   0.895  23.324   1.986
19683W        W20547   1.296  22.939   0.267
19684W        W20548   0.353  24.854   2.864
19685W        W20549   1.389  23.505   2.095
19686W        W20550   1.557  22.509   0.171
19687W        W20551   0.736  23.432   0.959
19688W        W20552   0.399  25.374   2.519
19689W        W20553   3.055  23.591   0.582
19690W        W20554   3.189  22.313   3.180
19691W        W20555   2.742  24.421   1.339
19692W        W20556   0.237  23.426   3.429
19693W        W20557   3.237  22.179   0.560
19694W        W20558   2.901  24.453   0.827
19695W        W20559   1.610  23.360   0.780
19696W        W20560   2.803  22.205   0.264
19697W        W20561   2.696  22.968   2.581
19698W        W20562   0.361  23.396   1.645
19699W        W20563   1.033  24.377   1.227
19700W        W20564   2.592  23.001   1.272
19701W        W20565   1.698  22.437   1.986
19702W        W20566   3.625  24.383   2.511
19703W        W20567   3.493  22.429   2.183
19704W        W20568   0.110  25.057   1.522
19705W        W20569   0.500  24.373   0.852
19706W        W20570   0.727  22.182   3.584
19707W        W20571   1.763  24.897   3.539
19708W        W20572   3.448  23.739   1.527
19709W        W20573   2.819  24.054   0.495
19710W        W20574   2.225  25.533   2.419
19711W        W20575   2.931  24.096   3.532
19712W        W20576   1.659  21.837   0.686
19713W        W20577   2.424  22.723   1.655
19714W        W20578   0.291  24.427   2.112
19715W        W20579   1.328  22.381   0.644
19716W        W20580   1.208  23.752   3.387
19717W        W20581   2.127  22.774   1.203
19718W        W20582   2.499  24.277   2.322
19719W        W20583   0.753  25.025   3.138
19720W        W20584   1.166  24.818   3.371
19721W        W20585   0.938  22.739   0.577
19722W        W20586   2.474  22.762   0.798
19723W        W20587   2.476  24.834   2.967
19724W        W20588   1.213  23.547   1.615
19725W        W20589   0.774  25.021   2.566
19726W        W20590   3.506  25.302   0.223
19727W        W20591   0.382  23.906   3.268
19728W        W20592   2.330  24.046   1.897
19729W        W20593   0.835  23.923   1.098
19730W        W20594   1.206  24.759   2.416
19731W        W20595   1.545  22.158   1.555
19732W        W20596   0.105  24.312   0.516
19733W        W20597   1.754  23.185   0.311
19734W        W20598   0.370  23.722   1.243
19735W        W20599   1.489  22.535   2.984
19736W        W20600   3.263  22.139   0.051
19737W        W20601   3.354  23.832   3.294
19738W        W20602   2.102  25.283   3.516
19739W        W20603   3.562  24.233   3.001
19740W        W20604   3.038  24.970   3.490
19741W        W20605   0.797  25.369   2.146
19742W        W20606   3.647  23.967   1.112
19743W        W20607   2.150  23.225   1.448
19744W        W20608   1.868  21.982   1.186
19745W        W20609   1.049  24.907   1.232
19746W        W20610   1.413  22.866   2.554
19747W        W20611   1.208  22.004   1.934
19748W        W20612   0.399  25.157   0.397
19749W        W20613   1.936  24.089   1.321
19750W        W20614   1.210  25.043   2.855
19751W        W20615   0.458  23.852   0.735
19752W        W20616   0.367  22.362   1.699
19753W        W20617   1.868  24.270   1.835
19754W        W20618   0.137  22.265   0.842
19755W        W20619   2.596  23.477   2.730
19756W        W20620   2.867  22.686   0.464
19757W        W20621   3.383  24.499   2.062
19758W        W20622   1.896  24.785   1.788
19759W        W20623   1.244  25.077   0.804
19760W        W20624   2.448  21.836   0.161
19761W        W20625   0.383  25.141   1.954
19762W        W20626   2.397  22.966   3.398
19763W        W20627   0.752  22.713   3.696
19764W        W20628   0.460  23.030   1.168
19765W        W20629   1.098  23.244   0.638
19766W        W20630   2.422  23.454   3.246
19767W        W20631   0.989  23.826   2.090
19768W        W20632   2.396  21.958   1.266
19769W        W20633   1.726  25.283   1.693
19770W        W20634   2.811  24.830   2.571
19771W        W20635   2.672  24.854   1.641
19772W        W20636   2.451  23.994   1.398
19773W        W20637   1.842  22.323   0.552
19774W        W20638   3.566  21.949   1.196
19775W        W20639   1.242  23.477   0.183
19776W        W20640   3.390  22.786   1.310
19777W        W20641   2.144  23.983   0.349
19778W        W20642   3.055  24.152   3.031
19779W        W20643   2.717  25.007   0.388
19780W        W20644   1.150  22.723   3.347
19781W        W20645   1.106  23.279   2.471
19782W        W20646   3.193  24.627   2.903
19783W        W20647   2.404  22.573   3.002
19784W        W20648   0.217  23.107   2.935
19785W        W20649   1.763  23.859   2.642
19786W        W20650   0.465  24.233   1.356
19787W        W20651   0.498  23.624   2.117
19788W        W20652   2.775  23.935   2.584
19789W        W20653   2.602  25.254   3.289
19790W        W20654   2.326  23.068   2.912
19791W        W20655   2.746  25.228   1.259
19792W        W20656   1.667  24.844   2.671
19793W        W20657   1.151  25.033   1.954
19794W        W20658   3.004  24.378   2.378
19795W        W20659   1.965  24.402   3.492
19796W        W20660   0.672  24.236   1.822
19797W        W20661   2.953  23.963   1.559
19798W        W20662   2.587  25.134   2.220
19799W        W20663   0.718  24.767   2.094
19800W        W20664   1.636  22.845   3.469
19801W        W20665   2.119  25.172   1.053
19802W        W20666   1.477  24.483   3.611
19803W        W20667   1.446  24.671   1.039
19804W        W20668   0.814  23.182   0.211
19805W        W20669   0.159  25.682   7.099
19806W        W20670   0.546  24.436   6.615
19807W        W20671   3.181  23.975   4.450
19808W        W20672   3.480  25.266   6.391
19809W        W20673   1.335  25.059   3.799
19810W        W20674   1.178  23.404   4.709
19811W        W20675   0.735  23.333   5.067
19812W        W20676   1.680  23.902   4.418
19813W        W20677   1.618  25.115   6.744
19814W        W20678   0.240  22.750   6.597
19815W        W20679   0.892  21.911   6.382
19816W        W20680   2.592  22.435   5.366
19817W        W20681   2.264  23.154   4.058
19818W        W20682   2.747  22.772   7.006
19819W        W20683   0.236  22.389   6.144
19820W        W20684   0.323  25.007   7.250
19821W        W20685   1.659  24.206   3.998
19822W        W20686   0.383  23.186   5.496
19823W        W20687   1.034  23.240   6.919
19824W        W20688   3.396  22.885   5.421
19825W        W20689   3.271  24.001   6.216
19826W        W20690   1.631  23.259   5.285
19827W        W20691   2.260  24.745   5.638
19828W        W20692   0.595  24.018   5.829
19829W        W20693   0.062  23.608   5.466
19830W        W20694   1.218  23.497   6.465
19831W        W20695   3.324  23.364   6.833
19832W        W20696   0.920  24.721   5.208
19833W        W20697   1.948  24.562   6.391
19834W        W20698   1.328  22.936   5.576
19835W        W20699   1.631  23.910   5.226
19836W        W20700   2.386  24.768   7.136
19837W        W20701   1.628  23.887   7.141
19838W        W20702   1.660  23.710   6.630
19839W        W20703  28.990  23.085   7.140
19840W        W20704   2.789  24.685   6.722
19841W        W20705   0.556  22.137   4.794
19842W        W20706   1.022  24.356   5.860
19843W        W20707   3.360  24.309   5.293
19844W        W20708   2.916  22.789   5.661
19845W        W20709   3.256  22.620   3.596
19846W        W20710   3.666  23.371   6.107
19847W        W20711   1.504  25.166   5.756
19848W        W20712   3.319  24.677   4.202
19849W        W20713   0.539  25.655   4.409
19850W        W20714   0.905  25.492   4.751
19851W        W20715   0.738  22.257   6.021
19852W        W20716   3.226  23.237   6.352
19853W        W20717   2.743  23.708   4.980
19854W        W20718   2.605  23.327   3.721
19855W        W20719   1.818  24.680   5.869
19856W        W20720   1.610  22.726   5.152
19857W        W20721   2.234  24.893   6.129
19858W        W20722   3.262  23.688   4.867
19859W        W20723   2.242  22.385   4.554
19860W        W20724   0.802  25.162   4.358
19861W        W20725   0.169  22.458   4.895
19862W        W20726   2.552  23.363   5.292
19863W        W20727   0.414  24.726   5.238
19864W        W20728   1.458  24.669   4.104
19865W        W20729   3.018  23.069   3.557
19866W        W20730   0.296  24.909   5.946
19867W        W20731   1.004  24.544   6.393
19868W        W20732   1.299  23.903   4.781
19869W        W20733   1.256  22.269   5.898
19870W        W20734   3.513  22.030   5.576
19871W        W20735   0.745  23.702   4.008
19872W        W20736   0.475  22.888   4.137
19873W        W20737   0.631  24.781   4.759
19874W        W20738   1.557  24.320   4.903
19875W        W20739   3.015  25.128   6.534
19876W        W20740   1.978  22.770   4.277
19877W        W20741   3.226  25.296   5.326
19878W        W20742   2.827  23.168   6.674
19879W        W20743   3.638  24.731   5.048
19880W        W20744   2.210  24.064   6.424
19881W        W20745   0.136  23.597   4.592
19882W        W20746   0.865  24.070   6.283
19883W        W20747   2.023  23.237   4.518
19884W        W20748   2.288  23.648   4.682
19885W        W20749   0.684  23.136   5.917
19886W        W20750   0.502  23.154   6.896
19887W        W20751   0.461  21.955   5.255
19888W        W20752   2.170  22.462   5.695
19889W        W20753   1.930  22.455   6.945
19890W        W20754   2.358  22.421   4.039
19891W        W20755   3.614  25.061   6.874
19892W        W20756   2.294  22.072   6.836
19893W        W20757   3.307  24.365   7.064
19894W        W20758   2.844  22.634   6.516
19895W        W20759   2.583  22.625   4.845
19896W        W20760   2.889  23.551   7.013
19897W        W20761   0.679  25.166   5.086
19898W        W20762   1.463  22.891   4.307
19899W        W20763   1.000  22.263   6.833
19900W        W20764   2.979  22.900   4.581
19901W        W20765   3.364  23.263   4.578
19902W        W20766   1.053  25.203   6.957
19903W        W20767   1.096  21.935   4.144
19904W        W20768   3.399  22.409   5.217
19905W        W20769   3.496  24.792   3.730
19906W        W20770   0.287  24.049   5.343
19907W        W20771   2.390  22.461   3.506
19908W        W20772   3.501  24.896   5.534
19909W        W20773   3.471  22.126   6.090
19910W        W20774   1.924  23.257   6.797
19911W        W20775   1.810  24.412   4.446
19912W        W20776   2.489  23.724   7.279
19913W        W20777   2.217  22.034   5.421
19914W        W20778   0.807  22.887   5.420
19915W        W20779   0.346  24.011   6.282
19916W        W20780   2.257  25.147   5.282
19917W        W20781   3.308  23.057   5.889
19918W        W20782   2.024  25.240   6.465
19919W        W20783   3.219  24.178   3.976
19920W        W20784   1.723  23.578   4.830
19921W        W20785   3.590  22.104   6.590
19922W        W20786   1.745  24.105   6.217
19923W        W20787   1.969  22.907   5.479
19924W        W20788   2.898  23.499   4.518
19925W        W20789   2.974  23.211   4.082
19926W        W20790   3.012  24.962   4.515
19927W        W20791   2.840  24.342   5.362
19928W        W20792   2.529  23.620   4.159
19929W        W20793   2.186  23.770   5.197
19930W        W20794   3.109  23.812   5.363
19931W        W20795   0.416  22.718   5.758
19932W        W20796   3.029  23.681   6.535
19933W        W20797   3.432  25.293   5.840
19934W        W20798   1.405  24.788   5.115
19935W        W20799   2.532  25.258   6.380
19936W        W20800   2.449  22.598   6.156
19937W        W20801   1.685  25.546   6.237
19938W        W20802   3.315  22.421   4.696
19939W        W20803   3.094  23.573   5.971
19940W        W20804   0.217  23.057   6.137
19941W        W20805   2.963  22.758   5.155
19942W        W20806   3.237  22.879   6.733
19943W        W20807   2.276  24.616   5.138
19944W        W20808   1.579  25.184   4.807
19945W        W20809   0.613  22.388   4.078
19946W        W20810   1.797  22.025   5.721
19947W        W20811   0.841  25.067   3.699
19948W        W20812   1.175  23.757   4.285
19949W        W20813   1.798  24.205   6.730
19950W        W20814   1.730  22.512   4.675
19951W        W20815   2.927  22.266   4.996
19952W        W20816   2.718  25.408   5.413
19953W        W20817   2.006  25.189   5.756
19954W        W20818   1.508  24.169   5.728
19955W        W20819   3.291  24.879   6.122
19956W        W20820   0.930  22.302   4.508
19957W        W20821   1.369  24.672   5.613
19958W        W20822   1.135  22.392   3.842
19959W        W20823   1.700  23.173   5.828
19960W        W20824   2.586  22.178   5.815
19961W        W20825   0.079  24.001   5.821
19962W        W20826   1.611  23.706   3.898
19963W        W20827   1.169  21.905   3.598
19964W        W20828   1.607  23.071   4.774
19965W        W20829   2.543  22.136   6.374
19966W        W20830   1.311  24.124   6.558
19967W        W20831   2.098  23.825   6.937
19968W        W20832   2.582  23.889   6.752
19969W        W20833   1.923  22.075   7.289
19970W        W20834   1.211  22.467   5.374
19971W        W20835   0.824  22.550   5.002
19972W        W20836   0.374  25.222   4.649
19973W        W20837   1.891  24.705   6.926
19974W        W20838   0.825  24.208   4.128
19975W        W20839   2.606  23.824   5.503
19976W        W20840   2.623  23.394   5.808
19977W        W20841   1.953  23.926   5.647
19978W        W20842   2.463  24.334   3.642
19979W        W20843   2.100  22.473   5.159
19980W        W20844   3.468  22.763   4.360
19981W        W20845   0.172  25.227   6.789
19982W        W20846   0.574  24.473   6.102
19983W        W20847   0.059  25.415   4.293
19984W        W20848   1.975  22.785   6.044
19985W        W20849   1.030  24.574   3.829
19986W        W20850   3.099  25.095   4.012
19987W        W20851   2.018  23.596   4.166
19988W        W20852   0.838  23.002   4.677
19989W        W20853   2.073  22.773   3.755
19990W        W20854   2.307  24.363   6.821
19991W        W20855   2.841  22.409   4.468
19992W        W20856   0.296  22.026   3.897
19993W        W20857   1.434  24.495   6.134
19994W        W20858   1.237  24.288   5.300
19995W        W20859   0.703  24.109   3.633
19996W        W20860   0.151  24.879   4.301
19997W        W20861   0.690  23.634   7.157
19998W        W20862   1.465  22.224   7.076
19999W        W20863   2.037  22.302   6.361
20000W        W20864   1.352  22.164   4.818
20001W        W20865   2.267  21.941   4.246
20002W        W20866   0.366  22.024   5.762
20003W        W20867   0.429  22.884   5.054
20004W        W20868   3.051  22.267   5.571
20005W        W20869   0.524  22.613   4.563
20006W        W20870   2.952  22.453   6.046
20007W        W20871   3.355  23.437   3.657
20008W        W20872   0.727  22.366   5.513
20009W        W20873   1.893  22.794   6.562
20010W        W20874   0.085  22.492   3.978
20011W        W20875   0.761  23.723   6.651
20012W        W20876   2.102  23.419   5.577
20013W        W20877   1.801  25.220   3.964
20014W        W20878   0.280  23.799   3.782
20015W        W20879   0.911  24.179   6.915
20016W        W20880   0.413  23.486   6.376
20017W        W20881   1.307  23.853   6.088
20018W        W20882   3.045  22.155   6.470
20019W        W20883   3.561  23.683   6.498
20020W        W20884   3.370  23.579   4.166
20021W        W20885   2.195  24.053   4.315
20022W        W20886   2.972  25.449   3.663
20023W        W20887   2.063  23.375   7.291
20024W        W20888   0.175  24.328   7.318
20025W        W20889   3.655  22.485   7.185
20026W        W20890   3.036  23.291   5.504
20027W        W20891   1.471  25.441   7.117
20028W        W20892   1.542  22.047   3.914
20029W        W20893   2.930  24.575   3.810
20030W        W20894   0.792  22.752   6.739
20031W        W20895   1.481  24.624   6.626
20032W        W20896   3.349  22.555   6.344
20033W        W20897   2.727  25.485   4.143
20034W        W20898   2.947  24.065   5.805
20035W        W20899   1.064  22.490   6.356
20036W        W20900   1.527  23.378   7.088
20037W        W20901   0.963  24.669   4.351
20038W        W20902   2.669  23.976   4.541
20039W        W20903   0.618  22.738   6.239
20040W        W20904   1.859  24.739   4.876
20041W        W20905   3.441  23.334   5.186
20042W        W20906   1.806  22.003   6.725
20043W        W20907   2.667  24.503   5.826
20044W        W20908   3.013  25.006   5.699
20045W        W20909   1.952  24.643   3.956
20046W        W20910   0.161  24.656   6.911
20047W        W20911   0.976  22.703   5.871
20048W        W20912   0.955  22.067   5.145
20049W        W20913   2.418  22.922   5.747
20050W        W20914   1.202  24.043   3.817
20051W        W20915   3.454  24.027   5.730
20052W        W20916   0.601  24.554   7.125
20053W        W20917   3.094  25.497   4.610
20054W        W20918   1.243  22.674   4.726
20055W        W20919   0.897  23.954   5.106
20056W        W20920   1.196  25.408   6.112
20057W        W20921   3.286  25.454   6.855
20058W        W20922   2.318  23.782   5.985
20059W        W20923   0.319  23.404   4.128
20060W        W20924   3.373  25.117   4.848
20061W        W20925   3.038  22.696   4.080
20062W        W20926   1.314  21.902   6.663
20063W        W20927   3.145  24.776   5.198
20064W        W20928   2.985  23.245   4.977
20065W        W20929   1.178  23.044   5.092
20066W        W20930   1.676  23.221   6.342
20067W        W20931   2.501  24.481   6.337
20068W        W20932   1.280  22.944   6.553
20069W        W20933   1.236  25.376   5.137
20070W        W20934   0.587  25.414   7.006
20071W        W20935   0.536  24.683   3.970
20072W        W20936   3.284  24.566   4.725
20073W        W20937   0.817  23.178   6.432
20074W        W20938   3.436  22.995   3.901
20075W        W20939   1.288  24.252   4.380
20076W        W20940   2.128  23.570   6.460
20077W        W20941   2.180  23.260   6.061
20078W        W20942   0.847  23.600   6.063
20079W        W20943   2.943  25.391   6.032
20080W        W20944   2.783  22.256   6.914
20081W        W20945   0.598  22.315   6.521
20082W        W20946   1.007  23.354   5.582
20083W        W20947   1.237  22.960   3.819
20084W        W20948   0.228  24.841   6.442
20085W        W20949   1.493  23.618   5.645
20086W        W20950   1.615  22.590   3.910
20087W        W20951   0.677  23.507   4.521
20088W        W20952   0.355  25.386   6.254
20089W        W20953   2.964  23.700   3.878
20090W        W20954   3.271  22.399   6.861
20091W        W20955   2.768  24.610   4.891
20092W        W20956   0.203  23.549   7.028
20093W        W20957   3.298  22.267   4.185
20094W        W20958   2.913  24.421   4.398
20095W        W20959   1.551  23.403   4.344
20096W        W20960   2.839  22.350   3.734
20097W        W20961   2.793  23.009   6.140
20098W        W20962   0.607  23.662   5.444
20099W        W20963   1.037  24.413   4.820
20100W        W20964   2.520  23.168   4.763
20101W        W20965   1.653  22.535   5.659
20102W        W20966   3.549  24.438   6.158
20103W        W20967   3.452  22.543   5.800
20104W        W20968   0.128  25.136   5.082
20105W        W20969   0.481  24.432   4.436
20106W        W20970   0.542  22.391   7.047
20107W        W20971   1.415  24.888   7.158
20108W        W20972   3.607  23.831   5.245
20109W        W20973   2.697  24.108   4.037
20110W        W20974   2.197  25.534   6.077
20111W        W20975   2.894  24.046   7.147
20112W        W20976   1.559  21.885   4.421
20113W        W20977   2.413  22.891   5.229
20114W        W20978   0.295  24.455   5.668
20115W        W20979   1.383  22.369   4.309
20116W        W20980   1.194  23.745   6.920
20117W        W20981   2.110  22.829   4.796
20118W        W20982   2.171  24.315   5.970
20119W        W20983   0.611  24.948   6.790
20120W        W20984   1.038  24.681   6.884
20121W        W20985   0.974  22.727   4.224
20122W        W20986   2.505  22.812   4.363
20123W        W20987   2.308  24.860   6.641
20124W        W20988   1.233  23.576   5.187
20125W        W20989   0.697  24.946   6.283
20126W        W20990   3.481  25.296   3.725
20127W        W20991   0.394  24.031   6.925
20128W        W20992   2.332  24.249   5.490
20129W        W20993   0.813  24.005   4.598
20130W        W20994   1.122  24.892   6.000
20131W        W20995   1.662  22.216   5.240
20132W        W20996   0.104  24.369   4.096
20133W        W20997   1.749  23.139   3.943
20134W        W20998   0.455  23.776   4.934
20135W        W20999   1.511  22.440   6.609
20136W        W21000   3.307  22.115   3.670
20137W        W21001   3.320  23.855   6.931
20138W        W21002   2.074  25.208   6.998
20139W        W21003   3.547  24.203   6.614
20140W        W21004   3.120  24.980   7.032
20141W        W21005   0.743  25.275   5.900
20142W        W21006   3.543  24.132   4.843
20143W        W21007   2.090  23.275   5.053
20144W        W21008   1.909  22.039   4.816
20145W        W21009   1.076  25.017   4.787
20146W        W21010   1.461  22.742   6.103
20147W        W21011   1.332  21.933   5.515
20148W        W21012   0.432  25.218   4.003
20149W        W21013   1.990  24.062   4.818
20150W        W21014   1.171  25.023   6.494
20151W        W21015   0.403  23.936   4.290
20152W        W21016   0.223  22.380   5.416
20153W        W21017   1.831  24.371   5.361
20154W        W21018   0.199  22.227   4.415
20155W        W21019   2.611  23.481   6.321
20156W        W21020   2.616  22.821   3.832
20157W        W21021   3.200  24.518   5.739
20158W        W21022   1.822  24.875   5.389
20159W        W21023   1.331  25.133   4.325
20160W        W21024   2.418  22.005   3.730
20161W        W21025   0.413  25.174   5.520
20162W        W21026   2.235  22.918   7.043
20163W        W21027   0.389  22.822   7.327
20164W        W21028   0.328  23.115   4.592
20165W        W21029   1.040  23.235   4.246
20166W        W21030   2.410  23.406   6.864
20167W        W21031   1.054  23.892   5.609
20168W        W21032   2.438  22.122   4.957
20169W        W21033   1.734  25.370   5.321
20170W        W21034   2.772  24.885   6.149
20171W        W21035   2.673  24.852   5.366
20172W        W21036   2.490  24.156   5.002
20173W        W21037   1.878  22.267   4.222
20174W        W21038   3.609  22.044   4.893
20175W        W21039   1.163  23.491   3.826
20176W        W21040   3.395  22.879   4.908
20177W        W21041   2.066  23.981   3.799
20178W        W21042   3.012  24.196   6.664
20179W        W21043   2.617  25.081   3.788
20180W        W21044   1.229  22.686   7.012
20181W        W21045   1.203  23.190   6.042
20182W        W21046   3.305  24.676   6.622
20183W        W21047   2.369  22.556   6.682
20184W        W21048   0.050  23.236   6.627
20185W        W21049   1.809  23.630   6.054
20186W        W21050   0.519  24.304   4.945
20187W        W21051   0.345  23.544   5.882
20188W        W21052   2.716  24.004   6.259
20189W        W21053   2.640  25.190   6.895
20190W        W21054   2.353  23.038   6.492
20191W        W21055   2.859  25.170   4.976
20192W        W21056   1.622  24.991   6.234
20193W        W21057   1.053  25.106   5.520
20194W        W21058   3.018  24.445   6.221
20195W        W21059   1.945  24.282   7.213
20196W        W21060   0.728  24.308   5.430
20197W        W21061   3.020  24.149   4.916
20198W        W21062   2.514  25.185   5.814
20199W        W21063   0.717  24.764   5.692
20200W        W21064   1.700  22.890   7.093
20201W        W21065   1.817  24.945   4.393
20202W        W21066   1.430  24.361   7.074
20203W        W21067   1.416  24.703   4.607
20204W        W21068   0.727  23.211   3.825
20205W        W21069   0.256  25.643  10.736
20206W        W21070   0.517  24.484  10.322
20207W        W21071   3.076  24.134   8.262
20208W        W21072   3.479  25.319  10.096
20209W        W21073   1.289  25.205   7.554
20210W        W21074   1.217  23.215   8.421
20211W        W21075   0.719  23.174   8.707
20212W        W21076   1.675  23.835   8.025
20213W        W21077   1.627  25.130  10.483
20214W        W21078   0.377  22.688  10.374
20215W        W21079   0.878  21.769  10.203
20216W        W21080   2.592  22.334   9.055
20217W        W21081   2.265  23.046   7.679
20218W        W21082   2.804  22.692  10.687
20219W        W21083   0.276  22.334   9.891
20220W        W21084   0.411  25.139  10.788
20221W        W21085   1.572  24.140   7.613
20222W        W21086   0.141  23.072   9.436
20223W        W21087   1.134  23.247  10.461
20224W        W21088   3.345  22.906   9.092
20225W        W21089   3.235  23.969   9.892
20226W        W21090   1.551  23.292   8.863
20227W        W21091   2.286  24.705   9.354
20228W        W21092   0.574  24.005   9.595
20229W        W21093   0.026  23.373   9.011
20230W        W21094   1.070  23.621  10.118
20231W        W21095   3.293  23.346  10.518
20232W        W21096   0.895  24.643   8.899
20233W        W21097   1.994  24.555  10.101
20234W        W21098   1.425  23.008   9.302
20235W        W21099   1.478  23.831   8.918
20236W        W21100   2.373  24.788  10.870
20237W        W21101   1.660  23.882  10.833
20238W        W21102   1.642  23.717  10.331
20239W        W21103   0.178  23.022  10.791
20240W        W21104   2.777  24.621  10.561
20241W        W21105   0.538  22.114   8.561
20242W        W21106   0.990  24.410   9.571
20243W        W21107   3.396  24.495   8.870
20244W        W21108   2.885  22.646   9.347
20245W        W21109   3.157  22.622   7.320
20246W        W21110   3.648  23.347   9.764
20247W        W21111   1.545  25.122   9.433
20248W        W21112   3.372  24.905   7.805
20249W        W21113   0.510  25.634   7.998
20250W        W21114   0.852  25.390   8.322
20251W        W21115   0.646  22.002   9.836
20252W        W21116   3.203  23.254  10.030
20253W        W21117   2.689  23.722   8.855
20254W        W21118   2.591  23.215   7.307
20255W        W21119   1.843  24.724   9.619
20256W        W21120   1.644  22.747   8.850
20257W        W21121   2.309  24.883   9.841
20258W        W21122   3.134  23.713   8.565
20259W        W21123   2.177  22.270   8.184
20260W        W21124   0.647  25.155   7.858
20261W        W21125   0.211  22.510   8.486
20262W        W21126   2.498  23.240   8.980
20263W        W21127   0.377  24.702   8.962
20264W        W21128   1.288  24.597   7.809
20265W        W21129   3.089  23.107   7.207
20266W        W21130   0.230  24.902   9.623
20267W        W21131   0.981  24.559  10.088
20268W        W21132   1.318  23.735   8.408
20269W        W21133   1.363  22.303   9.654
20270W        W21134   3.549  22.090   9.181
20271W        W21135   0.708  23.564   7.686
20272W        W21136   0.561  23.033   7.817
20273W        W21137   0.537  24.755   8.476
20274W        W21138   1.350  24.255   8.635
20275W        W21139   3.042  25.181  10.338
20276W        W21140   1.937  22.751   7.957
20277W        W21141   3.244  25.520   8.595
20278W        W21142   2.806  23.191  10.379
20279W        W21143   3.730  24.724   8.541
20280W        W21144   2.222  24.050  10.125
20281W        W21145   0.301  23.437   8.000
20282W        W21146   1.081  23.930   9.695
20283W        W21147   2.148  23.149   8.204
20284W        W21148   2.342  23.479   8.552
20285W        W21149   0.633  23.034   9.590
20286W        W21150   0.660  23.097  10.569
20287W        W21151   0.696  21.994   9.050
20288W        W21152   2.208  22.479   9.377
20289W        W21153   1.904  22.550  10.614
20290W        W21154   2.366  22.355   7.705
20291W        W21155   3.523  25.046  10.535
20292W        W21156   2.323  21.945  10.457
20293W        W21157   3.280  24.474  10.697
20294W        W21158   2.821  22.570  10.198
20295W        W21159   2.540  22.477   8.545
20296W        W21160   2.904  23.606  10.768
20297W        W21161   0.644  25.145   8.782
20298W        W21162   1.405  22.823   7.954
20299W        W21163   1.008  22.119  10.548
20300W        W21164   2.904  22.818   8.280
20301W        W21165   3.214  23.263   8.283
20302W        W21166   1.135  25.191  10.678
20303W        W21167   0.954  21.936   7.755
20304W        W21168   3.268  22.429   8.914
20305W        W21169   3.527  24.770   7.323
20306W        W21170   0.286  23.948   9.166
20307W        W21171   2.388  22.432   7.193
20308W        W21172   3.449  24.904   9.207
20309W        W21173   3.399  22.090   9.743
20310W        W21174   1.989  23.306  10.430
20311W        W21175   1.749  24.390   8.045
20312W        W21176   2.468  23.783  11.011
20313W        W21177   2.201  21.989   9.230
20314W        W21178   0.764  22.748   9.144
20315W        W21179   0.283  24.062  10.008
20316W        W21180   2.111  25.213   8.938
20317W        W21181   3.290  22.995   9.603
20318W        W21182   2.051  25.271  10.174
20319W        W21183   3.302  23.921   7.446
20320W        W21184   1.801  23.487   8.424
20321W        W21185   3.614  22.096  10.269
20322W        W21186   1.765  24.096   9.911
20323W        W21187   1.948  22.982   9.221
20324W        W21188   2.698  23.296   8.189
20325W        W21189   2.984  23.076   7.796
20326W        W21190   3.181  25.155   8.216
20327W        W21191   2.665  24.364   9.167
20328W        W21192   2.514  23.521   7.761
20329W        W21193   1.968  23.638   8.903
20330W        W21194   3.130  23.595   9.079
20331W        W21195   0.391  22.603   9.470
20332W        W21196   2.993  23.679  10.266
20333W        W21197   3.505  25.299   9.568
20334W        W21198   1.396  24.767   8.818
20335W        W21199   2.568  25.308  10.136
20336W        W21200   2.477  22.557   9.799
20337W        W21201   1.720  25.619   9.964
20338W        W21202   3.210  22.413   8.363
20339W        W21203   3.195  23.543   9.585
20340W        W21204   0.197  22.847   9.903
20341W        W21205   2.857  22.759   8.847
20342W        W21206   3.217  22.862  10.390
20343W        W21207   2.172  24.390   8.965
20344W        W21208   1.457  25.204   8.423
20345W        W21209   0.552  22.403   7.585
20346W        W21210   1.704  22.040   9.339
20347W        W21211   0.825  24.992   7.373
20348W        W21212   1.178  23.744   7.857
20349W        W21213   1.791  24.203  10.420
20350W        W21214   1.678  22.432   8.254
20351W        W21215   2.900  22.135   8.699
20352W        W21216   2.386  25.563   9.249
20353W        W21217   2.071  25.178   9.459
20354W        W21218   1.488  24.130   9.482
20355W        W21219   3.257  24.867   9.719
20356W        W21220   0.887  22.350   8.231
20357W        W21221   1.394  24.632   9.325
20358W        W21222   1.028  22.302   7.367
20359W        W21223   1.752  23.269   9.624
20360W        W21224   2.588  22.125   9.523
20361W        W21225   0.085  23.751   9.607
20362W        W21226   1.590  23.594   7.562
20363W        W21227   0.608  21.949   7.358
20364W        W21228   1.670  22.976   8.375
20365W        W21229   2.608  22.115  10.049
20366W        W21230   1.306  24.125  10.195
20367W        W21231   2.112  23.812  10.583
20368W        W21232   2.595  23.962  10.492
20369W        W21233   1.937  22.113  10.868
20370W        W21234   1.228  22.521   9.173
20371W        W21235   0.681  22.669   8.616
20372W        W21236   0.373  25.221   8.319
20373W        W21237   1.906  24.726  10.633
20374W        W21238   0.908  24.235   7.803
20375W        W21239   2.324  23.933   9.186
20376W        W21240   2.674  23.572   9.353
20377W        W21241   1.844  23.768   9.458
20378W        W21242   2.446  24.238   7.308
20379W        W21243   1.997  22.353   8.908
20380W        W21244   3.376  22.814   8.061
20381W        W21245   0.391  25.347  10.263
20382W        W21246   0.532  24.487   9.806
20383W        W21247   0.104  25.332   7.894
20384W        W21248   2.053  22.845   9.709
20385W        W21249   1.037  24.513   7.377
20386W        W21250   3.136  25.380   7.719
20387W        W21251   1.998  23.459   7.828
20388W        W21252   0.894  22.882   8.192
20389W        W21253   2.003  22.648   7.444
20390W        W21254   2.274  24.376  10.528
20391W        W21255   2.734  22.255   8.128
20392W        W21256   0.146  22.077   7.591
20393W        W21257   1.435  24.502   9.838
20394W        W21258   1.162  24.219   9.108
20395W        W21259   0.647  24.107   7.379
20396W        W21260   0.245  24.814   8.020
20397W        W21261   0.751  23.713  10.764
20398W        W21262   1.472  22.291  10.661
20399W        W21263   1.884  22.373   9.820
20400W        W21264   1.315  22.099   8.384
20401W        W21265   2.141  21.897   7.777
20402W        W21266   0.348  22.078   9.423
20403W        W21267   0.316  22.929   8.944
20404W        W21268   3.050  22.125   9.307
20405W        W21269   0.475  22.587   8.054
20406W        W21270   2.962  22.364   9.754
20407W        W21271   3.473  23.440   7.322
20408W        W21272   0.836  22.302   9.463
20409W        W21273   1.881  22.831  10.193
20410W        W21274   0.025  22.566   7.592
20411W        W21275   0.785  24.076  10.093
20412W        W21276   2.181  23.422   9.325
20413W        W21277   1.790  25.344   7.525
20414W        W21278   0.210  23.836   7.446
20415W        W21279   0.916  24.202  10.580
20416W        W21280   0.555  23.616  10.225
20417W        W21281   1.489  23.668   9.831
20418W        W21282   3.104  22.079  10.158
20419W        W21283   3.534  23.652  10.172
20420W        W21284   3.059  23.661   8.004
20421W        W21285   2.169  23.786   8.180
20422W        W21286   2.952  25.473   7.238
20423W        W21287   2.002  23.495  10.986
20424W        W21288   0.157  24.312  10.859
20425W        W21289   3.721  22.430  10.854
20426W        W21290   2.930  23.148   9.257
20427W        W21291   1.495  25.505  10.838
20428W        W21292   1.435  21.960   7.525
20429W        W21293   2.863  24.562   7.229
20430W        W21294   0.888  22.620  10.499
20431W        W21295   1.502  24.634  10.324
20432W        W21296   3.349  22.525  10.024
20433W        W21297   2.714  25.693   7.711
20434W        W21298   2.899  24.013   9.483
20435W        W21299   1.026  22.275  10.056
20436W        W21300   1.543  23.390  10.735
20437W        W21301   0.815  24.701   8.032
20438W        W21302   2.674  23.799   8.326
20439W        W21303   0.685  22.646   9.948
20440W        W21304   1.804  24.522   8.589
20441W        W21305   3.467  23.340   8.773
20442W        W21306   1.854  22.100  10.322
20443W        W21307   2.772  24.760   9.508
20444W        W21308   3.043  25.181   9.344
20445W        W21309   1.699  24.636   7.497
20446W        W21310   0.111  24.758  10.611
20447W        W21311   1.062  22.750   9.599
20448W        W21312   0.995  22.303   8.765
20449W        W21313   2.464  22.950   9.411
20450W        W21314   1.149  24.010   7.368
20451W        W21315   3.408  23.987   9.378
20452W        W21316   0.581  24.638  10.806
20453W        W21317   2.983  25.632   8.157
20454W        W21318   1.263  22.640   8.465
20455W        W21319   0.878  23.996   8.740
20456W        W21320   1.276  25.419   9.772
20457W        W21321   3.327  25.527  10.570
20458W        W21322   2.337  23.794   9.680
20459W        W21323   0.295  23.324   7.481
20460W        W21324   3.684  25.174   8.306
20461W        W21325   3.017  22.550   7.825
20462W        W21326   1.377  21.909  10.262
20463W        W21327   3.318  25.010   8.709
20464W        W21328   2.934  23.253   8.711
20465W        W21329   1.153  22.945   8.863
20466W        W21330   1.548  23.232  10.135
20467W        W21331   2.557  24.454  10.122
20468W        W21332   1.156  22.840  10.110
20469W        W21333   1.104  25.394   8.765
20470W        W21334   0.739  25.488  10.592
20471W        W21335   0.514  24.567   7.636
20472W        W21336   3.260  24.629   8.352
20473W        W21337   0.755  23.162  10.070
20474W        W21338   3.470  22.958   7.563
20475W        W21339   1.295  24.177   8.129
20476W        W21340   2.429  23.565  10.211
20477W        W21341   2.314  23.272   9.788
20478W        W21342   0.780  23.527   9.695
20479W        W21343   3.039  25.344   9.841
20480W        W21344   2.790  22.161  10.551
20481W        W21345   0.544  22.191  10.325
20482W        W21346   0.947  23.243   9.249
20483W        W21347   1.274  23.024   7.392
20484W        W21348   0.230  24.879  10.134
20485W        W21349   1.356  23.554   9.340
20486W        W21350   1.483  22.565   7.476
20487W        W21351   0.767  23.409   8.223
20488W        W21352   0.387  25.398   9.760
20489W        W21353   2.979  23.514   7.512
20490W        W21354   3.265  22.381  10.549
20491W        W21355   2.971  24.772   9.017
20492W        W21356   0.297  23.517  10.679
20493W        W21357   3.180  22.061   7.806
20494W        W21358   3.240  24.413   7.603
20495W        W21359   1.524  23.335   8.013
20496W        W21360   2.811  22.259   7.441
20497W        W21361   2.816  22.949   9.814
20498W        W21362   0.500  23.635   8.809
20499W        W21363   0.917  24.408   8.430
20500W        W21364   2.499  22.986   8.537
20501W        W21365   1.705  22.554   9.345
20502W        W21366   3.514  24.421   9.785
20503W        W21367   3.378  22.516   9.452
20504W        W21368   0.123  25.130   8.760
20505W        W21369   0.458  24.348   8.186
20506W        W21370   0.609  22.234  10.856
20507W        W21371   1.452  24.836  10.904
20508W        W21372   3.538  23.874   8.866
20509W        W21373   2.804  23.979   7.656
20510W        W21374   2.207  25.590   9.753
20511W        W21375   2.928  24.123  10.834
20512W        W21376   1.606  21.878   8.011
20513W        W21377   2.323  22.752   8.949
20514W        W21378   0.233  24.427   9.385
20515W        W21379   1.292  22.314   7.897
20516W        W21380   1.217  23.778  10.590
20517W        W21381   2.073  22.680   8.484
20518W        W21382   2.480  24.309   9.642
20519W        W21383   0.702  24.974  10.403
20520W        W21384   1.066  24.688  10.593
20521W        W21385   0.965  22.708   7.695
20522W        W21386   2.448  22.725   8.068
20523W        W21387   2.345  24.873  10.357
20524W        W21388   1.078  23.518   8.828
20525W        W21389   0.679  24.974   9.892
20526W        W21390   3.453  25.275   7.334
20527W        W21391   0.421  24.020  10.521
20528W        W21392   2.000  24.261   9.455
20529W        W21393   0.847  23.929   8.223
20530W        W21394   1.141  24.909   9.682
20531W        W21395   1.499  22.222   8.862
20532W        W21396   0.071  24.336   7.832
20533W        W21397   1.737  23.075   7.595
20534W        W21398   0.356  23.838   8.347
20535W        W21399   1.503  22.449  10.166
20536W        W21400   3.296  22.131   7.312
20537W        W21401   3.330  23.879  10.604
20538W        W21402   2.096  25.223  10.707
20539W        W21403   3.544  24.229  10.261
20540W        W21404   3.098  24.964  10.808
20541W        W21405   0.832  25.307   9.520
20542W        W21406   3.564  24.190   8.448
20543W        W21407   2.026  23.127   8.736
20544W        W21408   1.825  22.000   8.519
20545W        W21409   1.014  24.938   8.501
20546W        W21410   1.547  22.805   9.777
20547W        W21411   1.193  21.982   9.238
20548W        W21412   0.429  25.465   7.500
20549W        W21413   1.780  23.998   8.515
20550W        W21414   1.177  25.023  10.189
20551W        W21415   0.468  23.975   7.856
20552W        W21416   0.377  22.407   8.984
20553W        W21417   1.675  24.298   9.036
20554W        W21418   0.050  22.302   8.048
20555W        W21419   2.772  23.475   9.848
20556W        W21420   2.658  22.751   7.519
20557W        W21421   3.181  24.457   9.363
20558W        W21422   1.835  24.802   9.103
20559W        W21423   1.149  25.081   8.027
20560W        W21424   2.415  21.916   7.311
20561W        W21425   0.391  25.175   9.229
20562W        W21426   2.309  22.880  10.669
20563W        W21427   0.608  22.741  10.944
20564W        W21428   0.398  23.019   8.331
20565W        W21429   1.061  23.215   7.827
20566W        W21430   2.436  23.384  10.689
20567W        W21431   0.870  23.784   9.226
20568W        W21432   2.351  22.015   8.709
20569W        W21433   1.573  25.271   8.942
20570W        W21434   2.808  24.881  10.002
20571W        W21435   2.570  25.085   9.138
20572W        W21436   2.283  23.983   8.659
20573W        W21437   1.810  22.287   7.764
20574W        W21438   3.503  22.045   8.629
20575W        W21439   1.126  23.508   7.386
20576W        W21440   3.307  22.864   8.595
20577W        W21441   2.034  23.862   7.498
20578W        W21442   3.020  24.215  10.319
20579W        W21443   2.745  25.046   7.403
20580W        W21444   1.455  22.825  10.542
20581W        W21445   1.202  23.230   9.741
20582W        W21446   3.244  24.690  10.225
20583W        W21447   2.268  22.443  10.266
20584W        W21448   0.243  23.185  10.292
20585W        W21449   1.971  23.597   9.974
20586W        W21450   0.400  24.241   8.701
20587W        W21451   0.454  23.465   9.306
20588W        W21452   2.713  23.980   9.971
20589W        W21453   2.636  25.190  10.646
20590W        W21454   2.405  22.937  10.161
20591W        W21455   2.869  25.497   8.959
20592W        W21456   1.629  25.054   9.953
20593W        W21457   1.097  25.048   9.154
20594W        W21458   2.985  24.416   9.836
20595W        W21459   1.940  24.293  10.908
20596W        W21460   0.666  24.282   9.164
20597W        W21461   3.071  24.095   8.973
20598W        W21462   2.590  25.257   9.619
20599W        W21463   0.692  24.785   9.385
20600W        W21464   1.839  23.003  10.848
20601W        W21465   1.634  24.978   7.910
20602W        W21466   1.408  24.322  10.747
20603W        W21467   1.388  24.670   8.302
20604W        W21468   0.775  23.144   7.361
20605W        W21469   0.156  25.636  14.346
20606W        W21470   0.533  24.441  13.961
20607W        W21471   3.049  23.805  11.730
20608W        W21472   3.432  25.235  13.664
20609W        W21473   1.285  25.227  11.219
20610W        W21474   1.104  23.312  12.038
20611W        W21475   0.683  23.156  12.285
20612W        W21476   1.635  23.912  11.694
20613W        W21477   1.617  25.152  14.030
20614W        W21478   0.284  22.682  13.930
20615W        W21479   0.833  21.784  13.835
20616W        W21480   2.586  22.417  12.877
20617W        W21481   2.003  23.093  11.324
20618W        W21482   2.708  22.745  14.300
20619W        W21483   0.336  22.320  13.563
20620W        W21484   0.339  25.071  14.453
20621W        W21485   1.537  24.207  11.260
20622W        W21486   0.144  22.976  13.016
20623W        W21487   1.217  23.206  14.299
20624W        W21488   3.420  22.898  12.748
20625W        W21489   3.260  23.936  13.573
20626W        W21490   1.704  23.390  12.710
20627W        W21491   2.312  24.724  13.032
20628W        W21492   0.646  24.127  13.256
20629W        W21493   0.059  23.514  12.977
20630W        W21494   1.082  23.471  13.882
20631W        W21495   3.341  23.343  14.256
20632W        W21496   0.937  24.730  12.612
20633W        W21497   2.049  24.533  13.721
20634W        W21498   1.401  23.017  12.951
20635W        W21499   1.620  23.906  12.645
20636W        W21500   2.350  24.795  14.498
20637W        W21501   1.660  23.968  14.483
20638W        W21502   1.674  23.748  14.007
20639W        W21503   0.276  22.942  14.427
20640W        W21504   2.821  24.627  14.204
20641W        W21505   0.507  22.153  12.165
20642W        W21506   1.013  24.460  13.111
20643W        W21507   3.356  24.412  12.543
20644W        W21508   3.069  22.595  12.998
20645W        W21509   3.229  22.663  10.985
20646W        W21510   3.640  23.357  13.440
20647W        W21511   1.518  25.194  13.174
20648W        W21512   3.459  24.892  11.530
20649W        W21513   0.505  25.627  11.695
20650W        W21514   0.858  25.407  12.015
20651W        W21515   0.814  22.143  13.460
20652W        W21516   3.215  23.197  13.709
20653W        W21517   2.611  23.636  12.395
20654W        W21518   2.456  23.296  11.195
20655W        W21519   1.872  24.517  13.194
20656W        W21520   1.620  22.777  12.485
20657W        W21521   2.310  24.929  13.496
20658W        W21522   3.082  23.729  12.255
20659W        W21523   2.126  22.343  11.834
20660W        W21524   0.682  25.072  11.644
20661W        W21525   0.124  22.525  12.183
20662W        W21526   2.515  23.234  12.669
20663W        W21527   0.422  24.720  12.592
20664W        W21528   1.350  24.682  11.422
20665W        W21529   2.916  23.121  10.965
20666W        W21530   0.256  24.956  13.307
20667W        W21531   1.011  24.526  13.778
20668W        W21532   1.263  23.805  12.050
20669W        W21533   1.286  22.330  13.274
20670W        W21534   3.530  22.085  12.843
20671W        W21535   0.729  23.702  11.282
20672W        W21536   0.594  22.948  11.429
20673W        W21537   0.588  24.764  12.105
20674W        W21538   1.504  24.233  12.215
20675W        W21539   3.044  25.119  13.982
20676W        W21540   1.802  22.691  11.555
20677W        W21541   3.259  25.380  12.442
20678W        W21542   2.861  23.209  14.097
20679W        W21543   3.669  24.728  12.292
20680W        W21544   2.195  24.029  13.794
20681W        W21545   0.161  23.595  11.944
20682W        W21546   1.134  24.100  13.450
20683W        W21547   2.331  23.205  11.707
20684W        W21548   2.237  23.563  12.058
20685W        W21549   0.608  23.152  13.186
20686W        W21550   0.716  23.151  14.205
20687W        W21551   0.639  21.974  12.650
20688W        W21552   2.142  22.338  13.155
20689W        W21553   1.863  22.484  14.219
20690W        W21554   2.398  22.298  11.341
20691W        W21555   3.530  25.051  14.156
20692W        W21556   2.188  22.055  14.153
20693W        W21557   3.297  24.444  14.351
20694W        W21558   2.812  22.570  13.830
20695W        W21559   2.483  22.550  12.153
20696W        W21560   2.927  23.611  14.454
20697W        W21561   0.660  25.154  12.436
20698W        W21562   1.389  22.910  11.781
20699W        W21563   0.990  22.191  14.175
20700W        W21564   2.876  22.801  11.942
20701W        W21565   3.184  23.214  11.879
20702W        W21566   1.108  25.231  14.289
20703W        W21567   1.042  21.972  11.504
20704W        W21568   3.287  22.427  12.565
20705W        W21569   3.556  24.786  11.022
20706W        W21570   0.318  23.939  12.698
20707W        W21571   2.384  22.377  10.784
20708W        W21572   3.452  24.869  12.787
20709W        W21573   3.308  22.122  13.329
20710W        W21574   1.982  23.326  14.101
20711W        W21575   1.760  24.417  11.694
20712W        W21576   2.487  23.826  14.644
20713W        W21577   2.010  22.093  12.695
20714W        W21578   0.738  22.854  12.757
20715W        W21579   0.371  24.020  13.669
20716W        W21580   2.350  25.097  12.674
20717W        W21581   3.328  23.003  13.238
20718W        W21582   2.093  25.229  13.863
20719W        W21583   3.265  23.914  11.169
20720W        W21584   1.749  23.696  12.173
20721W        W21585   3.476  21.994  13.810
20722W        W21586   1.737  24.111  13.558
20723W        W21587   1.932  22.954  12.858
20724W        W21588   2.736  23.451  11.926
20725W        W21589   2.800  23.114  11.529
20726W        W21590   3.043  24.997  11.843
20727W        W21591   2.634  24.324  12.932
20728W        W21592   2.470  23.696  11.547
20729W        W21593   2.113  23.695  12.566
20730W        W21594   3.010  23.568  12.771
20731W        W21595   0.492  22.632  13.177
20732W        W21596   3.039  23.657  13.942
20733W        W21597   3.466  25.250  13.135
20734W        W21598   1.430  24.808  12.470
20735W        W21599   2.608  25.290  13.755
20736W        W21600   2.405  22.646  13.516
20737W        W21601   1.718  25.480  13.584
20738W        W21602   3.154  22.375  12.078
20739W        W21603   3.136  23.504  13.300
20740W        W21604   0.250  22.960  13.511
20741W        W21605   2.840  22.735  12.505
20742W        W21606   3.198  22.832  14.072
20743W        W21607   2.242  24.559  12.558
20744W        W21608   1.517  25.199  12.104
20745W        W21609   0.709  22.409  11.345
20746W        W21610   1.683  21.989  13.112
20747W        W21611   0.852  24.999  11.063
20748W        W21612   1.147  23.771  11.553
20749W        W21613   1.825  24.248  14.085
20750W        W21614   1.650  22.489  12.004
20751W        W21615   2.798  22.223  12.429
20752W        W21616   2.590  25.558  12.737
20753W        W21617   2.031  25.174  13.127
20754W        W21618   1.487  24.167  13.083
20755W        W21619   3.286  24.819  13.362
20756W        W21620   0.918  22.348  11.860
20757W        W21621   1.430  24.717  12.973
20758W        W21622   1.071  22.433  10.968
20759W        W21623   1.723  23.264  13.267
20760W        W21624   2.535  21.990  13.193
20761W        W21625   0.141  23.994  13.193
20762W        W21626   1.557  23.634  11.257
20763W        W21627   1.009  21.893  10.997
20764W        W21628   1.580  23.204  12.202
20765W        W21629   2.454  22.150  13.704
20766W        W21630   1.347  24.149  13.926
20767W        W21631   2.112  23.820  14.281
20768W        W21632   2.603  23.902  14.133
20769W        W21633   1.902  22.256  14.673
20770W        W21634   1.198  22.581  12.737
20771W        W21635   0.676  22.636  12.270
20772W        W21636   0.365  25.222  12.011
20773W        W21637   1.932  24.759  14.197
20774W        W21638   0.845  24.191  11.460
20775W        W21639   2.522  23.801  12.867
20776W        W21640   2.652  23.391  13.137
20777W        W21641   1.849  23.793  13.124
20778W        W21642   2.458  24.290  10.993
20779W        W21643   2.011  22.459  12.349
20780W        W21644   3.368  22.715  11.763
20781W        W21645   0.364  25.338  13.954
20782W        W21646   0.597  24.587  13.472
20783W        W21647   0.094  25.336  11.597
20784W        W21648   1.956  22.789  13.334
20785W        W21649   1.033  24.494  11.067
20786W        W21650   3.205  25.315  11.427
20787W        W21651   1.971  23.540  11.586
20788W        W21652   0.874  22.888  11.857
20789W        W21653   2.061  22.615  11.106
20790W        W21654   2.317  24.343  14.222
20791W        W21655   2.722  22.297  11.775
20792W        W21656   0.230  22.135  11.194
20793W        W21657   1.427  24.529  13.461
20794W        W21658   1.233  24.315  12.657
20795W        W21659   0.631  24.169  11.006
20796W        W21660   0.199  24.822  11.657
20797W        W21661   0.776  23.676  14.439
20798W        W21662   1.445  22.227  14.403
20799W        W21663   1.956  22.357  13.680
20800W        W21664   1.329  22.083  12.032
20801W        W21665   2.050  21.832  11.716
20802W        W21666   0.353  22.103  13.087
20803W        W21667   0.274  22.891  12.514
20804W        W21668   2.988  22.077  12.918
20805W        W21669   0.467  22.574  11.786
20806W        W21670   2.823  22.362  13.365
20807W        W21671   3.355  23.422  11.003
20808W        W21672   0.833  22.318  12.976
20809W        W21673   1.924  22.863  13.850
20810W        W21674   0.223  22.621  11.292
20811W        W21675   0.848  24.013  13.860
20812W        W21676   2.153  23.400  12.990
20813W        W21677   1.794  25.202  11.137
20814W        W21678   0.265  23.840  11.089
20815W        W21679   0.967  24.228  14.296
20816W        W21680   0.585  23.592  13.951
20817W        W21681   1.417  23.688  13.549
20818W        W21682   2.946  22.021  13.732
20819W        W21683   3.558  23.636  13.874
20820W        W21684   3.396  23.516  11.500
20821W        W21685   2.122  24.006  11.814
20822W        W21686   2.986  25.445  10.957
20823W        W21687   2.096  23.465  14.690
20824W        W21688   0.180  24.309  14.613
20825W        W21689   3.615  22.373  14.416
20826W        W21690   2.956  23.074  12.884
20827W        W21691   1.519  25.478  14.431
20828W        W21692   1.447  22.110  11.153
20829W        W21693   2.885  24.576  11.077
20830W        W21694   0.699  22.620  14.204
20831W        W21695   1.500  24.650  13.951
20832W        W21696   3.263  22.590  13.566
20833W        W21697   2.773  25.586  11.416
20834W        W21698   2.908  23.949  13.164
20835W        W21699   1.631  23.463  14.458
20836W        W21700   0.937  24.641  11.732
20837W        W21701   2.628  23.961  11.989
20838W        W21702   0.730  22.649  13.655
20839W        W21703   1.850  24.633  12.217
20840W        W21704   3.441  23.337  12.436
20841W        W21705   1.704  22.014  14.007
20842W        W21706   2.811  24.771  13.151
20843W        W21707   3.003  25.162  12.850
20844W        W21708   1.831  24.681  11.221
20845W        W21709   0.103  24.677  14.266
20846W        W21710   0.999  22.778  13.210
20847W        W21711   0.988  22.231  12.399
20848W        W21712   2.433  22.909  13.070
20849W        W21713   1.124  23.977  11.056
20850W        W21714   3.415  23.957  13.087
20851W        W21715   0.591  24.588  14.443
20852W        W21716   3.155  25.507  11.936
20853W        W21717   1.203  22.639  12.189
20854W        W21718   0.937  23.955  12.437
20855W        W21719   1.172  25.421  13.476
20856W        W21720   3.271  25.477  14.267
20857W        W21721   2.332  23.746  13.345
20858W        W21722   0.308  23.415  11.443
20859W        W21723   3.507  25.125  12.026
20860W        W21724   2.945  22.637  11.443
20861W        W21725   1.268  22.038  13.740
20862W        W21726   3.168  24.869  12.346
20863W        W21727   2.944  23.232  12.364
20864W        W21728   1.155  23.046  12.491
20865W        W21729   1.555  23.246  13.806
20866W        W21730   2.573  24.387  13.788
20867W        W21731   1.128  22.941  13.860
20868W        W21732   1.157  25.386  12.428
20869W        W21733   0.646  25.445  14.355
20870W        W21734   0.596  24.634  11.332
20871W        W21735   3.360  24.576  11.926
20872W        W21736   0.700  23.172  13.682
20873W        W21737   3.280  23.031  11.352
20874W        W21738   1.259  24.245  11.750
20875W        W21739   2.358  23.557  13.853
20876W        W21740   2.250  23.210  13.460
20877W        W21741   0.839  23.661  13.474
20878W        W21742   3.000  25.388  13.350
20879W        W21743   2.702  22.209  14.202
20880W        W21744   0.498  22.145  14.025
20881W        W21745   0.965  23.343  12.880
20882W        W21746   1.086  22.956  10.893
20883W        W21747   0.248  24.856  13.810
20884W        W21748   1.381  23.595  13.044
20885W        W21749   1.542  22.623  11.078
20886W        W21750   0.691  23.519  11.804
20887W        W21751   0.325  25.462  13.472
20888W        W21752   2.909  23.551  11.286
20889W        W21753   3.197  22.316  14.092
20890W        W21754   2.932  24.379  12.257
20891W        W21755   0.302  23.489  14.396
20892W        W21756   3.179  22.194  11.497
20893W        W21757   2.959  24.312  11.747
20894W        W21758   1.492  23.414  11.724
20895W        W21759   2.832  22.314  11.055
20896W        W21760   2.848  22.904  13.399
20897W        W21761   0.461  23.317  12.712
20898W        W21762   1.000  24.424  12.198
20899W        W21763   2.498  23.066  12.175
20900W        W21764   1.676  22.501  12.946
20901W        W21765   3.537  24.374  13.443
20902W        W21766   3.564  22.542  13.113
20903W        W21767   0.113  25.107  12.431
20904W        W21768   0.482  24.397  11.781
20905W        W21769   0.633  22.212  14.555
20906W        W21770   1.512  24.942  14.490
20907W        W21771   3.481  23.846  12.590
20908W        W21772   2.792  24.060  11.331
20909W        W21773   2.240  25.518  13.441
20910W        W21774   2.874  24.146  14.481
20911W        W21775   1.549  21.886  11.615
20912W        W21776   2.327  22.770  12.586
20913W        W21777   0.314  24.474  13.044
20914W        W21778   1.371  22.387  11.583
20915W        W21779   1.238  23.766  14.270
20916W        W21780   2.046  22.852  12.001
20917W        W21781   2.322  24.275  13.345
20918W        W21782   0.685  24.965  14.090
20919W        W21783   1.084  24.724  14.265
20920W        W21784   1.088  22.763  11.376
20921W        W21785   2.441  22.718  11.646
20922W        W21786   2.404  24.838  13.990
20923W        W21787   1.264  23.552  12.500
20924W        W21788   0.676  25.080  13.594
20925W        W21789   3.493  25.294  11.001
20926W        W21790   0.438  24.006  14.232
20927W        W21791   2.133  24.146  12.866
20928W        W21792   0.804  24.014  11.943
20929W        W21793   1.096  24.915  13.337
20930W        W21794   1.525  22.255  12.490
20931W        W21795   0.189  24.298  11.363
20932W        W21796   1.475  23.115  11.253
20933W        W21797   0.525  23.676  12.294
20934W        W21798   1.453  22.507  13.891
20935W        W21799   3.318  22.136  11.006
20936W        W21800   3.327  23.896  14.296
20937W        W21801   2.007  25.239  14.396
20938W        W21802   3.549  24.196  13.927
20939W        W21803   3.106  24.986  14.477
20940W        W21804   0.757  25.359  13.183
20941W        W21805   3.418  24.110  12.143
20942W        W21806   2.061  23.195  12.404
20943W        W21807   1.832  22.003  12.164
20944W        W21808   1.046  24.956  12.166
20945W        W21809   1.469  22.835  13.460
20946W        W21810   1.226  22.020  12.846
20947W        W21811   0.492  25.330  11.254
20948W        W21812   2.005  24.133  12.322
20949W        W21813   1.156  25.030  13.827
20950W        W21814   0.420  23.916  11.619
20951W        W21815   0.416  22.430  12.676
20952W        W21816   1.734  24.405  12.676
20953W        W21817   0.075  22.270  11.671
20954W        W21818   2.747  23.365  13.622
20955W        W21819   2.551  22.779  11.136
20956W        W21820   3.159  24.419  13.011
20957W        W21821   1.876  24.882  12.746
20958W        W21822   1.194  25.103  11.706
20959W        W21823   2.397  21.892  10.984
20960W        W21824   0.378  25.217  12.862
20961W        W21825   2.201  22.931  14.371
20962W        W21826   0.689  22.718  14.707
20963W        W21827   0.380  23.107  11.871
20964W        W21828   1.024  23.262  11.501
20965W        W21829   2.453  23.402  14.328
20966W        W21830   1.015  23.933  12.955
20967W        W21831   2.342  22.056  12.238
20968W        W21832   1.595  25.310  12.674
20969W        W21833   2.810  24.822  13.654
20970W        W21834   2.748  24.737  12.636
20971W        W21835   2.505  24.129  12.468
20972W        W21836   1.884  22.215  11.388
20973W        W21837   3.608  22.082  12.316
20974W        W21838   1.119  23.457  11.025
20975W        W21839   3.279  22.856  12.261
20976W        W21840   2.010  23.940  11.274
20977W        W21841   3.022  24.186  13.977
20978W        W21842   2.719  25.070  11.168
20979W        W21843   1.201  22.679  14.327
20980W        W21844   1.158  23.249  13.392
20981W        W21845   3.266  24.648  13.869
20982W        W21846   2.323  22.543  14.008
20983W        W21847   0.251  23.195  13.968
20984W        W21848   1.920  23.592  13.602
20985W        W21849   0.454  24.254  12.280
20986W        W21850   0.560  23.667  13.056
20987W        W21851   2.717  23.913  13.633
20988W        W21852   2.640  25.202  14.291
20989W        W21853   2.426  23.033  13.907
20990W        W21854   2.771  25.229  12.370
20991W        W21855   1.761  24.937  13.559
20992W        W21856   1.103  25.138  12.866
20993W        W21857   2.994  24.370  13.487
20994W        W21858   1.938  24.401  14.580
20995W        W21859   0.694  24.295  12.743
20996W        W21860   2.992  24.059  12.659
20997W        W21861   2.555  25.224  13.142
20998W        W21862   0.683  24.852  13.036
20999W        W21863   1.669  22.955  14.315
21000W        W21864   1.701  25.002  11.630
21001W        W21865   1.447  24.417  14.418
21002W        W21866   1.412  24.691  11.953
21003W        W21867   0.610  23.272  11.037
21004W        W21868   0.228  25.626  18.012
21005W        W21869   0.525  24.459  17.563
21006W        W21870   3.161  24.076  15.361
21007W        W21871   3.464  25.244  17.308
21008W        W21872   1.230  25.262  14.808
21009W        W21873   1.152  23.439  15.680
21010W        W21874   0.657  23.302  15.978
21011W        W21875   1.741  23.988  15.345
21012W        W21876   1.608  25.123  17.789
21013W        W21877   0.277  22.705  17.607
21014W        W21878   0.844  21.788  17.500
21015W        W21879   2.640  22.341  16.398
21016W        W21880   2.271  23.162  15.074
21017W        W21881   2.737  22.742  17.891
21018W        W21882   0.300  22.342  17.104
21019W        W21883   0.369  25.130  18.086
21020W        W21884   1.551  24.252  14.905
21021W        W21885   0.227  23.133  16.642
21022W        W21886   1.035  23.084  17.970
21023W        W21887   3.432  22.870  16.381
21024W        W21888   3.249  23.969  17.102
21025W        W21889   1.557  23.310  16.135
21026W        W21890   2.238  24.688  16.605
21027W        W21891   0.575  23.992  16.793
21028W        W21892   0.015  23.595  16.526
21029W        W21893   1.124  23.554  17.531
21030W        W21894   3.294  23.392  17.761
21031W        W21895   0.902  24.744  16.178
21032W        W21896   1.948  24.549  17.340
21033W        W21897   1.274  23.080  16.518
21034W        W21898   1.446  23.932  16.231
21035W        W21899   2.422  24.685  18.064
21036W        W21900   1.598  23.919  18.121
21037W        W21901   1.624  23.746  17.600
21038W        W21902   0.071  23.068  18.162
21039W        W21903   2.807  24.670  17.720
21040W        W21904   0.537  21.974  15.885
21041W        W21905   1.062  24.495  16.779
21042W        W21906   3.365  24.304  16.179
21043W        W21907   3.008  22.634  16.631
21044W        W21908   3.155  22.592  14.540
21045W        W21909   3.524  23.381  17.055
21046W        W21910   1.594  25.206  16.776
21047W        W21911   3.524  24.907  15.137
21048W        W21912   0.535  25.634  15.301
21049W        W21913   0.872  25.475  15.672
21050W        W21914   0.791  22.143  17.134
21051W        W21915   3.128  23.164  17.301
21052W        W21916   2.543  23.566  15.849
21053W        W21917   2.651  23.361  14.806
21054W        W21918   1.956  24.320  16.846
21055W        W21919   1.515  22.749  16.119
21056W        W21920   2.227  24.934  17.072
21057W        W21921   3.113  23.673  15.723
21058W        W21922   2.165  22.514  15.693
21059W        W21923   0.755  25.132  15.309
21060W        W21924   0.255  22.409  15.858
21061W        W21925   2.505  23.208  16.237
21062W        W21926   0.394  24.747  16.232
21063W        W21927   1.427  24.764  14.993
21064W        W21928   3.008  23.073  14.563
21065W        W21929   0.264  24.922  16.911
21066W        W21930   0.995  24.588  17.340
21067W        W21931   1.339  23.911  15.730
21068W        W21932   1.289  22.302  17.033
21069W        W21933   3.541  22.044  16.413
21070W        W21934   0.749  23.697  14.957
21071W        W21935   0.509  22.955  15.124
21072W        W21936   0.603  24.797  15.733
21073W        W21937   1.549  24.352  15.877
21074W        W21938   3.020  25.124  17.555
21075W        W21939   1.930  22.896  15.359
21076W        W21940   3.288  25.226  16.056
21077W        W21941   2.807  23.204  17.688
21078W        W21942   3.538  24.759  15.998
21079W        W21943   2.194  24.078  17.257
21080W        W21944   0.170  23.587  15.623
21081W        W21945   0.992  24.117  17.092
21082W        W21946   2.165  23.298  15.573
21083W        W21947   2.164  23.807  15.587
21084W        W21948   0.666  23.138  16.973
21085W        W21949   0.516  23.116  17.872
21086W        W21950   0.786  21.871  16.362
21087W        W21951   2.275  22.410  16.775
21088W        W21952   1.867  22.531  17.864
21089W        W21953   2.316  22.329  15.011
21090W        W21954   3.513  24.990  17.780
21091W        W21955   2.368  22.067  17.711
21092W        W21956   3.220  24.429  17.923
21093W        W21957   2.827  22.699  17.380
21094W        W21958   2.662  22.480  15.828
21095W        W21959   2.884  23.644  17.937
21096W        W21960   0.662  25.181  16.061
21097W        W21961   1.449  22.821  15.198
21098W        W21962   1.025  22.221  17.766
21099W        W21963   2.906  22.815  15.516
21100W        W21964   3.251  23.215  15.510
21101W        W21965   1.278  25.405  18.090
21102W        W21966   1.008  21.894  15.147
21103W        W21967   3.248  22.421  16.215
21104W        W21968   3.577  24.803  14.626
21105W        W21969   0.283  24.030  16.356
21106W        W21970   2.334  22.446  14.502
21107W        W21971   3.441  24.923  16.467
21108W        W21972   3.452  22.039  16.953
21109W        W21973   1.903  23.317  17.791
21110W        W21974   1.816  24.517  15.254
21111W        W21975   2.498  23.776  18.236
21112W        W21976   2.169  22.013  16.480
21113W        W21977   0.720  23.042  16.434
21114W        W21978   0.361  24.030  17.269
21115W        W21979   2.142  25.197  16.058
21116W        W21980   3.317  22.975  16.862
21117W        W21981   2.035  25.237  17.461
21118W        W21982   3.205  23.932  14.824
21119W        W21983   1.704  23.540  15.674
21120W        W21984   3.553  21.993  17.467
21121W        W21985   1.693  24.082  17.220
21122W        W21986   1.881  22.976  16.405
21123W        W21987   2.656  23.279  15.426
21124W        W21988   2.980  23.091  15.083
21125W        W21989   3.116  24.934  15.654
21126W        W21990   2.694  24.414  16.348
21127W        W21991   2.416  23.676  15.146
21128W        W21992   1.914  23.943  16.018
21129W        W21993   2.929  23.593  16.241
21130W        W21994   0.495  22.668  16.736
21131W        W21995   3.019  23.662  17.438
21132W        W21996   3.486  25.378  16.693
21133W        W21997   1.408  24.823  16.080
21134W        W21998   2.546  25.287  17.392
21135W        W21999   2.364  22.755  17.141
21136W        W22000   1.703  25.552  17.231
21137W        W22001   3.144  22.375  15.678
21138W        W22002   3.040  23.522  16.916
21139W        W22003   0.221  22.938  17.138
21140W        W22004   2.829  22.792  16.182
21141W        W22005   3.205  22.858  17.709
21142W        W22006   2.208  24.560  16.099
21143W        W22007   1.520  25.215  15.755
21144W        W22008   0.657  22.317  15.069
21145W        W22009   1.727  22.156  16.756
21146W        W22010   0.822  24.993  14.652
21147W        W22011   1.163  23.769  15.251
21148W        W22012   1.743  24.233  17.717
21149W        W22013   1.650  22.549  15.644
21150W        W22014   2.911  22.082  16.040
21151W        W22015   2.517  25.435  16.377
21152W        W22016   2.110  25.206  16.620
21153W        W22017   1.477  24.146  16.744
21154W        W22018   3.187  24.974  16.938
21155W        W22019   0.864  22.244  15.538
21156W        W22020   1.516  24.695  16.651
21157W        W22021   1.100  22.408  14.784
21158W        W22022   1.666  23.183  16.828
21159W        W22023   2.617  22.038  16.823
21160W        W22024   0.059  24.015  16.832
21161W        W22025   1.559  23.725  14.917
21162W        W22026   1.078  21.912  14.643
21163W        W22027   1.486  23.042  15.675
21164W        W22028   2.518  22.274  17.257
21165W        W22029   1.280  24.158  17.514
21166W        W22030   2.063  23.848  17.892
21167W        W22031   2.546  23.887  17.592
21168W        W22032   1.989  22.120  18.184
21169W        W22033   1.051  22.647  16.338
21170W        W22034   0.674  22.732  15.985
21171W        W22035   0.386  25.264  15.638
21172W        W22036   1.925  24.724  17.841
21173W        W22037   0.871  24.189  15.128
21174W        W22038   2.412  23.720  16.320
21175W        W22039   2.590  23.418  16.704
21176W        W22040   1.869  23.871  16.523
21177W        W22041   2.425  24.333  14.731
21178W        W22042   1.901  22.463  16.389
21179W        W22043   3.409  22.691  15.374
21180W        W22044   0.415  25.328  17.603
21181W        W22045   0.591  24.477  17.042
21182W        W22046   0.072  25.349  15.231
21183W        W22047   1.917  22.743  16.883
21184W        W22048   1.042  24.508  14.748
21185W        W22049   3.088  25.171  15.122
21186W        W22050   1.928  23.525  15.188
21187W        W22051   0.851  23.021  15.586
21188W        W22052   2.063  22.748  14.842
21189W        W22053   2.240  24.317  17.747
21190W        W22054   2.729  22.297  15.352
21191W        W22055   0.284  22.005  14.905
21192W        W22056   1.454  24.514  17.125
21193W        W22057   1.246  24.391  16.315
21194W        W22058   0.654  24.138  14.683
21195W        W22059   0.280  24.865  15.316
21196W        W22060   0.804  23.547  17.952
21197W        W22061   1.494  22.199  18.035
21198W        W22062   1.995  22.364  17.255
21199W        W22063   1.358  22.127  15.751
21200W        W22064   1.965  21.937  15.078
21201W        W22065   0.438  22.022  16.721
21202W        W22066   0.238  22.759  16.281
21203W        W22067   3.061  22.066  16.568
21204W        W22068   0.529  22.619  15.493
21205W        W22069   3.010  22.316  17.027
21206W        W22070   3.280  23.423  14.811
21207W        W22071   0.879  22.302  16.662
21208W        W22072   1.886  22.851  17.444
21209W        W22073   0.219  22.548  14.880
21210W        W22074   0.796  23.977  17.551
21211W        W22075   2.086  23.406  16.579
21212W        W22076   1.732  25.358  14.872
21213W        W22077   0.266  23.833  14.789
21214W        W22078   0.963  24.441  17.830
21215W        W22079   0.528  23.516  17.520
21216W        W22080   1.340  23.730  17.090
21217W        W22081   2.952  22.041  17.450
21218W        W22082   3.573  23.708  17.427
21219W        W22083   3.442  23.651  15.283
21220W        W22084   2.277  24.180  15.239
21221W        W22085   2.947  25.444  14.668
21222W        W22086   2.129  23.384  18.278
21223W        W22087   0.230  24.291  18.301
21224W        W22088   3.678  22.383  18.064
21225W        W22089   3.004  23.160  16.493
21226W        W22090   1.735  25.302  18.292
21227W        W22091   1.491  22.060  14.894
21228W        W22092   2.909  24.581  14.742
21229W        W22093   0.765  22.673  17.805
21230W        W22094   1.449  24.645  17.624
21231W        W22095   3.343  22.641  17.257
21232W        W22096   2.666  25.502  15.101
21233W        W22097   2.793  23.959  16.598
21234W        W22098   1.103  22.617  17.423
21235W        W22099   1.406  23.429  17.935
21236W        W22100   0.975  24.672  15.295
21237W        W22101   2.684  23.941  15.527
21238W        W22102   0.648  22.675  17.242
21239W        W22103   1.863  24.808  15.800
21240W        W22104   3.373  23.285  16.085
21241W        W22105   1.857  22.016  17.697
21242W        W22106   2.738  24.767  16.721
21243W        W22107   2.975  25.163  16.482
21244W        W22108   1.918  24.870  14.807
21245W        W22109   0.107  24.734  17.875
21246W        W22110   1.019  22.765  16.871
21247W        W22111   0.951  22.242  16.045
21248W        W22112   2.353  22.934  16.650
21249W        W22113   1.147  23.987  14.730
21250W        W22114   3.329  24.008  16.605
21251W        W22115   0.551  24.637  18.091
21252W        W22116   3.168  25.447  15.586
21253W        W22117   1.149  22.625  15.737
21254W        W22118   0.949  24.038  16.086
21255W        W22119   1.232  25.465  17.068
21256W        W22120   3.287  25.445  17.831
21257W        W22121   2.307  23.832  16.821
21258W        W22122   0.326  23.428  15.121
21259W        W22123   3.608  25.088  15.622
21260W        W22124   3.019  22.587  15.051
21261W        W22125   1.363  21.853  17.643
21262W        W22126   3.041  24.760  16.151
21263W        W22127   2.904  23.209  15.890
21264W        W22128   1.103  23.055  16.034
21265W        W22129   1.677  23.321  17.317
21266W        W22130   2.563  24.397  17.368
21267W        W22131   1.382  23.030  17.594
21268W        W22132   1.149  25.402  16.089
21269W        W22133   0.786  25.418  17.946
21270W        W22134   0.566  24.599  14.959
21271W        W22135   3.148  24.430  15.741
21272W        W22136   0.859  23.098  17.473
21273W        W22137   3.417  22.902  14.877
21274W        W22138   1.313  24.272  15.365
21275W        W22139   2.125  23.595  17.415
21276W        W22140   2.140  23.215  17.054
21277W        W22141   0.818  23.639  17.123
21278W        W22142   3.022  25.516  16.871
21279W        W22143   2.841  22.200  17.948
21280W        W22144   0.538  22.232  17.579
21281W        W22145   0.954  23.443  16.680
21282W        W22146   1.159  22.955  14.771
21283W        W22147   0.245  24.882  17.416
21284W        W22148   1.446  23.582  16.601
21285W        W22149   1.565  22.633  14.720
21286W        W22150   0.676  23.517  15.496
21287W        W22151   0.390  25.417  17.100
21288W        W22152   2.942  23.619  15.176
21289W        W22153   3.285  22.355  17.721
21290W        W22154   2.663  24.549  15.850
21291W        W22155   0.294  23.538  18.063
21292W        W22156   3.102  22.050  15.063
21293W        W22157   3.113  24.600  15.240
21294W        W22158   1.448  23.339  15.251
21295W        W22159   2.759  22.293  14.730
21296W        W22160   2.787  23.005  16.949
21297W        W22161   0.523  23.557  16.426
21298W        W22162   1.033  24.458  15.775
21299W        W22163   2.469  22.953  15.784
21300W        W22164   1.474  22.617  16.643
21301W        W22165   3.469  24.536  17.008
21302W        W22166   3.503  22.503  16.752
21303W        W22167   0.124  25.161  16.074
21304W        W22168   0.517  24.402  15.442
21305W        W22169   0.570  22.298  18.093
21306W        W22170   1.636  24.801  18.264
21307W        W22171   3.425  23.792  16.147
21308W        W22172   2.755  24.081  15.022
21309W        W22173   2.196  25.524  17.038
21310W        W22174   2.700  24.220  17.948
21311W        W22175   1.487  21.816  15.346
21312W        W22176   2.310  22.685  16.188
21313W        W22177   0.269  24.468  16.649
21314W        W22178   1.299  22.332  15.281
21315W        W22179   1.120  23.942  17.957
21316W        W22180   1.948  22.947  15.892
21317W        W22181   2.494  24.325  16.863
21318W        W22182   0.724  24.929  17.715
21319W        W22183   1.189  24.887  17.999
21320W        W22184   0.955  22.709  15.195
21321W        W22185   2.442  22.742  15.306
21322W        W22186   2.344  24.832  17.569
21323W        W22187   1.080  23.549  16.195
21324W        W22188   0.701  24.995  17.192
21325W        W22189   3.446  25.292  14.741
21326W        W22190   0.425  24.009  17.900
21327W        W22191   2.252  24.185  16.437
21328W        W22192   0.840  24.003  15.597
21329W        W22193   1.174  24.951  16.984
21330W        W22194   1.423  22.258  16.266
21331W        W22195   0.121  24.301  15.122
21332W        W22196   1.712  23.134  14.855
21333W        W22197   0.501  23.797  15.944
21334W        W22198   1.528  22.366  17.511
21335W        W22199   3.213  22.091  14.562
21336W        W22200   3.323  23.920  17.817
21337W        W22201   2.119  25.202  17.958
21338W        W22202   3.523  24.240  17.437
21339W        W22203   3.085  24.926  18.066
21340W        W22204   0.819  25.320  16.794
21341W        W22205   3.540  24.081  15.737
21342W        W22206   2.061  23.437  16.058
21343W        W22207   1.850  22.162  15.973
21344W        W22208   1.053  25.003  15.750
21345W        W22209   1.479  22.794  17.135
21346W        W22210   1.245  21.951  16.639
21347W        W22211   0.443  25.213  14.923
21348W        W22212   2.026  24.311  15.678
21349W        W22213   1.166  25.059  17.490
21350W        W22214   0.436  23.922  15.289
21351W        W22215   0.509  22.324  16.303
21352W        W22216   1.773  24.355  16.342
21353W        W22217   0.166  22.268  15.340
21354W        W22218   2.603  23.432  17.235
21355W        W22219   2.597  22.812  14.807
21356W        W22220   3.155  24.508  16.593
21357W        W22221   1.855  24.870  16.321
21358W        W22222   1.267  25.146  15.305
21359W        W22223   2.291  21.931  14.641
21360W        W22224   0.394  25.218  16.507
21361W        W22225   2.219  22.934  18.009
21362W        W22226   0.485  22.783  18.261
21363W        W22227   0.343  23.109  15.601
21364W        W22228   0.949  23.252  15.147
21365W        W22229   2.397  23.469  17.839
21366W        W22230   1.042  23.944  16.585
21367W        W22231   2.376  22.106  16.017
21368W        W22232   1.626  25.328  16.266
21369W        W22233   2.749  24.850  17.220
21370W        W22234   2.550  24.924  16.261
21371W        W22235   2.417  24.090  15.955
21372W        W22236   1.800  22.426  15.157
21373W        W22237   3.436  21.994  15.904
21374W        W22238   1.162  23.471  14.733
21375W        W22239   3.255  22.829  15.889
21376W        W22240   2.023  23.954  14.857
21377W        W22241   2.999  24.182  17.518
21378W        W22242   2.671  25.046  14.810
21379W        W22243   1.295  22.643  17.918
21380W        W22244   1.195  23.228  17.090
21381W        W22245   3.233  24.673  17.440
21382W        W22246   2.321  22.581  17.623
21383W        W22247   0.107  23.216  17.568
21384W        W22248   1.847  23.658  16.979
21385W        W22249   0.514  24.320  15.953
21386W        W22250   0.334  23.555  16.951
21387W        W22251   2.725  23.937  17.114
21388W        W22252   2.633  25.142  17.890
21389W        W22253   2.331  23.090  17.522
21390W        W22254   2.793  25.286  15.965
21391W        W22255   1.630  24.994  17.259
21392W        W22256   1.170  25.068  16.483
21393W        W22257   2.972  24.410  17.054
21394W        W22258   1.922  24.343  18.191
21395W        W22259   0.715  24.340  16.434
21396W        W22260   2.928  24.060  16.031
21397W        W22261   2.593  25.241  16.859
21398W        W22262   0.704  24.830  16.657
21399W        W22263   1.661  22.973  18.083
21400W        W22264   1.778  25.047  15.304
21401W        W22265   1.398  24.386  18.083
21402W        W22266   1.432  24.730  15.544
21403W        W22267   0.649  23.243  14.714
21404W        W22268   0.188  25.538  21.643
21405W        W22269   0.551  24.447  21.272
21406W        W22270   3.191  24.060  19.233
21407W        W22271   3.186  25.226  21.013
21408W        W22272   1.283  25.099  18.508
21409W        W22273   1.259  23.312  19.334
21410W        W22274   0.900  23.092  19.667
21411W        W22275   1.583  23.870  18.698
21412W        W22276   1.546  25.093  21.411
21413W        W22277   0.275  22.713  21.260
21414W        W22278   0.811  21.842  21.024
21415W        W22279   2.529  22.341  19.955
21416W        W22280   2.309  22.991  18.581
21417W        W22281   2.710  22.758  21.614
21418W        W22282   0.225  22.405  20.819
21419W        W22283   0.260  25.035  21.746
21420W        W22284   1.567  24.392  18.595
21421W        W22285   0.173  23.037  20.263
21422W        W22286   1.068  23.148  21.527
21423W        W22287   3.266  22.945  20.028
21424W        W22288   3.178  24.095  20.814
21425W        W22289   1.726  23.327  19.953
21426W        W22290   2.459  24.595  20.302
21427W        W22291   0.642  24.039  20.468
21428W        W22292   0.048  23.500  20.082
21429W        W22293   1.128  23.553  21.202
21430W        W22294   3.371  23.466  21.464
21431W        W22295   1.020  24.713  19.909
21432W        W22296   1.981  24.476  20.948
21433W        W22297   1.396  23.007  20.285
21434W        W22298   1.584  23.840  19.908
21435W        W22299   2.318  24.701  21.835
21436W        W22300   1.619  23.909  21.723
21437W        W22301   1.689  23.674  21.229
21438W        W22302   0.085  22.997  21.721
21439W        W22303   2.703  24.640  21.517
21440W        W22304   0.546  22.059  19.392
21441W        W22305   1.017  24.518  20.443
21442W        W22306   3.528  24.415  19.987
21443W        W22307   2.856  22.821  20.295
21444W        W22308   3.170  22.595  18.184
21445W        W22309   3.569  23.410  20.751
21446W        W22310   1.672  25.032  20.504
21447W        W22311   3.266  24.638  18.740
21448W        W22312   0.626  25.460  18.926
21449W        W22313   0.922  25.229  19.330
21450W        W22314   0.667  22.207  20.642
21451W        W22315   3.162  23.258  21.013
21452W        W22316   2.564  23.510  19.648
21453W        W22317   2.604  23.214  18.220
21454W        W22318   1.910  24.372  20.445
21455W        W22319   1.786  22.688  19.740
21456W        W22320   2.274  24.825  20.717
21457W        W22321   3.031  23.641  19.467
21458W        W22322   2.200  22.283  19.106
21459W        W22323   0.864  25.026  18.823
21460W        W22324   0.225  22.432  19.494
21461W        W22325   2.578  23.147  20.001
21462W        W22326   0.411  24.700  19.923
21463W        W22327   1.749  25.028  18.750
21464W        W22328   3.087  23.116  18.140
21465W        W22329   0.223  24.818  20.439
21466W        W22330   1.019  24.539  21.015
21467W        W22331   1.257  23.838  19.463
21468W        W22332   1.108  22.328  20.413
21469W        W22333   3.525  22.122  20.245
21470W        W22334   0.665  23.731  18.419
21471W        W22335   0.518  22.883  18.755
21472W        W22336   0.692  24.767  19.501
21473W        W22337   1.483  24.308  19.485
21474W        W22338   2.850  25.115  21.372
21475W        W22339   1.955  22.699  18.890
21476W        W22340   3.133  25.421  19.726
21477W        W22341   2.848  23.220  21.410
21478W        W22342   3.673  24.723  19.577
21479W        W22343   2.226  24.028  21.084
21480W        W22344   0.319  23.240  19.111
21481W        W22345   1.072  24.103  20.726
21482W        W22346   2.186  23.165  19.076
21483W        W22347   2.205  23.641  19.301
21484W        W22348   0.574  23.135  20.609
21485W        W22349   0.546  23.104  21.509
21486W        W22350   0.374  22.052  19.859
21487W        W22351   2.039  22.429  20.112
21488W        W22352   1.869  22.499  21.570
21489W        W22353   2.357  22.457  18.626
21490W        W22354   3.383  24.983  21.473
21491W        W22355   2.331  21.981  21.378
21492W        W22356   3.176  24.514  21.627
21493W        W22357   2.806  22.518  21.161
21494W        W22358   2.574  22.471  19.438
21495W        W22359   2.936  23.616  21.707
21496W        W22360   0.733  25.168  19.832
21497W        W22361   1.454  22.872  18.880
21498W        W22362   0.996  22.198  21.442
21499W        W22363   2.944  22.746  19.217
21500W        W22364   3.172  23.206  19.183
21501W        W22365   1.183  25.354  21.714
21502W        W22366   1.031  22.069  18.819
21503W        W22367   3.382  22.453  19.880
21504W        W22368   3.527  24.715  18.263
21505W        W22369   0.350  23.923  19.992
21506W        W22370   2.393  22.428  18.113
21507W        W22371   3.487  24.871  20.221
21508W        W22372   3.186  22.122  20.630
21509W        W22373   1.946  23.200  21.397
21510W        W22374   1.792  24.182  19.057
21511W        W22375   2.494  23.732  21.927
21512W        W22376   2.165  21.954  19.978
21513W        W22377   0.635  22.980  20.085
21514W        W22378   0.418  24.076  20.926
21515W        W22379   2.217  25.092  19.740
21516W        W22380   3.206  23.111  20.526
21517W        W22381   2.046  25.161  21.526
21518W        W22382   3.043  24.011  18.251
21519W        W22383   1.712  23.544  19.479
21520W        W22384   3.451  21.965  21.034
21521W        W22385   1.793  24.016  20.816
21522W        W22386   1.885  22.904  20.197
21523W        W22387   2.665  23.383  19.155
21524W        W22388   2.840  23.097  18.753
21525W        W22389   2.945  24.910  19.060
21526W        W22390   2.706  24.333  19.945
21527W        W22391   2.463  23.488  18.686
21528W        W22392   2.098  23.672  19.855
21529W        W22393   2.907  23.866  19.907
21530W        W22394   0.466  22.654  20.452
21531W        W22395   3.047  23.729  21.179
21532W        W22396   3.461  25.283  20.544
21533W        W22397   1.541  24.734  19.797
21534W        W22398   2.175  25.402  21.049
21535W        W22399   2.367  22.636  20.845
21536W        W22400   1.698  25.436  20.836
21537W        W22401   3.253  22.332  19.276
21538W        W22402   3.054  23.622  20.628
21539W        W22403   0.316  23.204  21.062
21540W        W22404   2.868  22.701  19.792
21541W        W22405   3.179  22.842  21.340
21542W        W22406   2.268  24.544  19.803
21543W        W22407   1.660  25.049  19.407
21544W        W22408   0.657  22.373  18.591
21545W        W22409   1.802  22.034  20.355
21546W        W22410   0.810  25.019  18.308
21547W        W22411   1.027  23.698  18.850
21548W        W22412   1.817  24.186  21.339
21549W        W22413   1.725  22.394  19.321
21550W        W22414   2.953  22.203  19.674
21551W        W22415   2.645  25.382  19.939
21552W        W22416   2.126  25.281  20.502
21553W        W22417   1.475  24.075  20.396
21554W        W22418   3.118  24.908  20.606
21555W        W22419   1.022  22.313  19.270
21556W        W22420   1.489  24.600  20.279
21557W        W22421   0.974  22.697  18.324
21558W        W22422   1.729  23.021  20.690
21559W        W22423   2.370  22.240  20.443
21560W        W22424   0.152  23.892  20.526
21561W        W22425   1.647  23.486  18.369
21562W        W22426   1.044  22.183  18.295
21563W        W22427   1.700  23.024  19.315
21564W        W22428   2.518  22.150  20.933
21565W        W22429   1.356  24.095  21.162
21566W        W22430   2.095  23.801  21.548
21567W        W22431   2.588  23.816  21.379
21568W        W22432   1.924  22.164  21.959
21569W        W22433   1.057  22.706  20.036
21570W        W22434   0.731  22.568  19.630
21571W        W22435   0.437  25.043  19.156
21572W        W22436   1.998  24.659  21.426
21573W        W22437   0.759  24.147  18.754
21574W        W22438   2.520  23.654  20.152
21575W        W22439   2.662  23.279  20.488
21576W        W22440   1.914  23.819  20.325
21577W        W22441   2.404  24.264  18.379
21578W        W22442   2.134  22.317  19.623
21579W        W22443   3.463  22.738  19.036
21580W        W22444   0.322  25.437  21.135
21581W        W22445   0.566  24.548  20.730
21582W        W22446   0.098  25.392  18.920
21583W        W22447   1.932  22.544  20.591
21584W        W22448   1.080  24.594  18.448
21585W        W22449   3.154  25.140  18.648
21586W        W22450   1.960  23.523  18.793
21587W        W22451   1.205  22.795  19.317
21588W        W22452   1.970  22.638  18.354
21589W        W22453   2.355  24.261  21.525
21590W        W22454   2.722  22.274  18.980
21591W        W22455   0.324  22.006  18.465
21592W        W22456   1.481  24.446  20.779
21593W        W22457   1.261  24.249  19.959
21594W        W22458   0.754  24.206  18.242
21595W        W22459   0.153  24.709  18.897
21596W        W22460   0.688  23.580  21.679
21597W        W22461   1.441  22.207  21.684
21598W        W22462   2.015  22.236  20.998
21599W        W22463   1.402  22.000  19.447
21600W        W22464   2.348  21.964  18.711
21601W        W22465   0.240  22.160  20.342
21602W        W22466   0.377  22.956  19.601
21603W        W22467   2.985  22.297  20.179
21604W        W22468   0.564  22.459  19.083
21605W        W22469   2.801  22.456  20.636
21606W        W22470   2.923  23.533  18.451
21607W        W22471   0.697  22.345  20.120
21608W        W22472   1.920  22.761  21.102
21609W        W22473   0.156  22.502  18.577
21610W        W22474   0.854  24.035  21.185
21611W        W22475   2.143  23.335  20.287
21612W        W22476   2.107  25.418  18.653
21613W        W22477   0.158  23.817  18.471
21614W        W22478   1.017  24.397  21.512
21615W        W22479   0.601  23.601  21.167
21616W        W22480   1.382  23.714  20.797
21617W        W22481   2.950  21.981  21.151
21618W        W22482   3.544  23.830  21.102
21619W        W22483   3.210  24.109  18.717
21620W        W22484   2.246  23.950  18.878
21621W        W22485   2.975  25.393  18.239
21622W        W22486   1.981  23.397  21.885
21623W        W22487   0.336  24.413  21.767
21624W        W22488   3.778  22.150  21.392
21625W        W22489   3.023  23.412  20.132
21626W        W22490   1.705  25.397  21.799
21627W        W22491   1.449  21.966  18.530
21628W        W22492   2.895  24.512  18.347
21629W        W22493   0.804  22.672  21.442
21630W        W22494   1.478  24.593  21.301
21631W        W22495   3.228  22.592  20.892
21632W        W22496   2.729  25.448  18.699
21633W        W22497   2.761  24.049  20.382
21634W        W22498   1.065  22.304  20.937
21635W        W22499   1.509  23.405  21.652
21636W        W22500   1.009  24.569  18.982
21637W        W22501   2.673  23.907  19.194
21638W        W22502   0.667  22.668  20.931
21639W        W22503   1.906  24.585  19.441
21640W        W22504   3.469  23.355  19.801
21641W        W22505   1.806  21.990  21.399
21642W        W22506   3.060  24.566  20.217
21643W        W22507   3.079  25.178  20.165
21644W        W22508   2.130  24.950  18.399
21645W        W22509   0.121  24.714  21.384
21646W        W22510   0.971  22.814  20.540
21647W        W22511   0.936  22.093  19.738
21648W        W22512   2.356  22.796  20.359
21649W        W22513   1.185  24.073  18.466
21650W        W22514   3.267  24.076  20.286
21651W        W22515   0.705  24.792  21.659
21652W        W22516   3.046  25.437  19.143
21653W        W22517   1.316  22.456  19.682
21654W        W22518   0.816  23.850  19.746
21655W        W22519   1.213  25.371  20.659
21656W        W22520   3.190  25.473  21.494
21657W        W22521   2.330  23.693  20.634
21658W        W22522   0.321  23.346  18.572
21659W        W22523   3.332  25.077  19.370
21660W        W22524   3.051  22.591  18.742
21661W        W22525   1.311  21.904  21.160
21662W        W22526   3.194  24.808  19.780
21663W        W22527   2.983  23.186  19.670
21664W        W22528   1.390  22.996  19.757
21665W        W22529   1.492  23.168  21.178
21666W        W22530   2.499  24.475  21.068
21667W        W22531   1.166  22.786  21.075
21668W        W22532   1.240  25.169  19.760
21669W        W22533   0.659  25.306  21.513
21670W        W22534   0.576  24.611  18.611
21671W        W22535   3.267  24.571  19.289
21672W        W22536   0.827  23.155  21.058
21673W        W22537   3.345  22.962  18.552
21674W        W22538   1.265  24.135  19.019
21675W        W22539   2.192  23.528  21.110
21676W        W22540   2.240  23.139  20.761
21677W        W22541   0.867  23.606  20.715
21678W        W22542   2.951  25.451  20.596
21679W        W22543   2.770  22.217  21.575
21680W        W22544   0.514  22.233  21.222
21681W        W22545   0.977  23.304  20.287
21682W        W22546   1.297  23.086  18.434
21683W        W22547   0.073  24.943  20.907
21684W        W22548   1.461  23.529  20.335
21685W        W22549   1.465  22.560  18.430
21686W        W22550   0.767  23.454  19.300
21687W        W22551   0.436  25.231  20.674
21688W        W22552   3.053  23.650  18.937
21689W        W22553   3.265  22.323  21.390
21690W        W22554   2.782  24.601  19.486
21691W        W22555   0.195  23.470  21.508
21692W        W22556   3.223  22.112  18.801
21693W        W22557   2.862  24.382  18.990
21694W        W22558   1.461  23.387  18.851
21695W        W22559   2.804  22.220  18.463
21696W        W22560   2.799  22.934  20.848
21697W        W22561   0.507  23.425  19.803
21698W        W22562   0.981  24.336  19.534
21699W        W22563   2.559  22.997  19.468
21700W        W22564   1.532  22.510  20.176
21701W        W22565   3.842  24.427  20.888
21702W        W22566   3.331  22.601  20.398
21703W        W22567   0.238  25.128  19.650
21704W        W22568   0.535  24.442  19.129
21705W        W22569   0.576  22.286  21.744
21706W        W22570   1.737  24.829  21.846
21707W        W22571   3.417  23.865  19.834
21708W        W22572   2.720  23.964  18.670
21709W        W22573   2.055  25.778  20.611
21710W        W22574   2.813  24.117  21.750
21711W        W22575   1.669  21.907  19.010
21712W        W22576   2.289  22.773  19.840
21713W        W22577   0.268  24.340  20.292
21714W        W22578   1.430  22.361  18.914
21715W        W22579   1.131  23.881  21.588
21716W        W22580   2.127  22.743  19.359
21717W        W22581   2.348  24.229  20.636
21718W        W22582   0.537  24.952  21.140
21719W        W22583   1.227  24.846  21.739
21720W        W22584   0.996  22.646  18.851
21721W        W22585   2.496  22.760  18.999
21722W        W22586   2.384  24.945  21.234
21723W        W22587   1.211  23.480  19.850
21724W        W22588   0.893  24.973  20.754
21725W        W22589   3.471  25.224  18.255
21726W        W22590   0.404  23.967  21.463
21727W        W22591   2.271  24.123  20.129
21728W        W22592   0.793  23.977  19.236
21729W        W22593   1.381  24.950  20.922
21730W        W22594   1.702  22.162  19.835
21731W        W22595   0.218  24.184  18.817
21732W        W22596   1.809  23.070  18.579
21733W        W22597   0.357  23.749  19.417
21734W        W22598   1.531  22.386  21.171
21735W        W22599   3.289  22.103  18.274
21736W        W22600   3.305  24.000  21.556
21737W        W22601   2.120  25.105  22.059
21738W        W22602   3.422  24.365  21.187
21739W        W22603   2.984  24.956  21.833
21740W        W22604   0.782  25.405  20.341
21741W        W22605   3.608  24.207  19.505
21742W        W22606   2.108  23.208  19.614
21743W        W22607   1.923  21.880  19.466
21744W        W22608   1.200  24.787  19.416
21745W        W22609   1.434  22.606  20.685
21746W        W22610   1.319  21.975  20.115
21747W        W22611   0.400  25.109  18.618
21748W        W22612   1.926  24.034  19.534
21749W        W22613   1.032  25.013  21.289
21750W        W22614   0.496  23.712  18.907
21751W        W22615   0.281  22.607  19.975
21752W        W22616   1.800  24.314  19.949
21753W        W22617   0.125  22.205  19.014
21754W        W22618   2.668  23.434  20.976
21755W        W22619   2.717  22.741  18.394
21756W        W22620   3.418  24.493  20.592
21757W        W22621   1.983  24.804  20.152
21758W        W22622   1.324  25.114  19.028
21759W        W22623   2.464  21.910  18.202
21760W        W22624   0.339  25.211  20.147
21761W        W22625   2.243  22.923  21.735
21762W        W22626   0.456  22.738  22.013
21763W        W22627   0.718  22.921  19.224
21764W        W22628   0.988  23.172  18.868
21765W        W22629   2.395  23.385  21.564
21766W        W22630   1.043  23.830  20.227
21767W        W22631   2.498  21.956  19.570
21768W        W22632   1.723  25.209  19.936
21769W        W22633   2.713  25.055  20.870
21770W        W22634   2.697  24.862  19.930
21771W        W22635   2.440  24.011  19.648
21772W        W22636   1.878  22.241  18.675
21773W        W22637   3.528  22.031  19.612
21774W        W22638   1.148  23.574  18.356
21775W        W22639   3.317  22.823  19.535
21776W        W22640   2.024  23.878  18.415
21777W        W22641   2.916  24.227  21.260
21778W        W22642   2.678  25.001  18.402
21779W        W22643   1.351  22.704  21.547
21780W        W22644   1.235  23.219  20.736
21781W        W22645   3.030  24.708  21.109
21782W        W22646   2.326  22.498  21.328
21783W        W22647   1.847  23.507  20.729
21784W        W22648   0.488  24.244  19.600
21785W        W22649   0.524  23.554  20.309
21786W        W22650   2.694  23.953  20.885
21787W        W22651   2.514  25.191  21.740
21788W        W22652   2.417  22.997  21.224
21789W        W22653   2.772  25.141  19.494
21790W        W22654   1.883  24.980  21.029
21791W        W22655   1.200  25.035  20.272
21792W        W22656   2.833  24.472  20.679
21793W        W22657   1.940  24.329  21.816
21794W        W22658   0.744  24.297  20.040
21795W        W22659   3.136  24.282  19.697
21796W        W22660   2.602  25.105  20.377
21797W        W22661   0.705  24.888  20.290
21798W        W22662   1.732  22.945  21.778
21799W        W22663   2.111  25.212  19.144
21800W        W22664   1.443  24.388  21.788
21801W        W22665   1.533  24.635  19.059
21802W        W22666   0.772  23.204  18.387
21803W        W22667   0.108  25.675  25.202
21804W        W22668   0.564  24.403  24.779
21805W        W22669   2.942  24.236  22.738
21806W        W22670   3.476  25.321  24.517
21807W        W22671   1.419  25.148  22.134
21808W        W22672   1.146  23.295  22.938
21809W        W22673   0.702  23.192  23.244
21810W        W22674   1.660  23.906  22.675
21811W        W22675   1.550  25.106  25.030
21812W        W22676   0.178  22.669  24.821
21813W        W22677   0.813  21.839  24.698
21814W        W22678   2.606  22.401  23.615
21815W        W22679   2.241  23.134  22.251
21816W        W22680   2.758  22.708  25.352
21817W        W22681   0.208  22.341  24.371
21818W        W22682   0.349  24.986  25.326
21819W        W22683   1.658  24.184  22.228
21820W        W22684   0.236  23.093  23.921
21821W        W22685   0.999  23.093  25.149
21822W        W22686   3.267  22.902  23.766
21823W        W22687   3.212  23.945  24.392
21824W        W22688   1.576  23.251  23.506
21825W        W22689   2.102  24.804  23.896
21826W        W22690   0.594  23.917  24.064
21827W        W22691  29.000  23.525  23.787
21828W        W22692   1.170  23.473  24.778
21829W        W22693   3.273  23.382  25.193
21830W        W22694   0.871  24.619  23.418
21831W        W22695   1.929  24.517  24.611
21832W        W22696   1.357  22.903  23.835
21833W        W22697   1.501  23.882  23.473
21834W        W22698   2.392  25.099  25.223
21835W        W22699   1.613  23.813  25.403
21836W        W22700   1.640  23.724  24.880
21837W        W22701   0.102  23.093  25.453
21838W        W22702   2.795  24.894  24.989
21839W        W22703   0.455  22.015  23.084
21840W        W22704   1.076  24.551  24.022
21841W        W22705   3.311  24.473  23.476
21842W        W22706   2.832  22.707  23.975
21843W        W22707   3.151  22.613  21.820
21844W        W22708   3.428  23.457  24.424
21845W        W22709   1.808  25.181  24.096
21846W        W22710   2.987  24.705  22.491
21847W        W22711   0.512  25.571  22.570
21848W        W22712   0.891  25.472  22.930
21849W        W22713   0.719  22.204  24.354
21850W        W22714   3.094  23.185  24.721
21851W        W22715   2.501  23.632  23.197
21852W        W22716   2.671  23.192  21.940
21853W        W22717   1.924  24.374  24.109
21854W        W22718   1.593  22.702  23.366
21855W        W22719   2.182  24.928  24.392
21856W        W22720   2.824  23.700  22.769
21857W        W22721   2.174  22.347  22.834
21858W        W22722   0.700  25.098  22.618
21859W        W22723   0.334  22.530  23.022
21860W        W22724   2.488  23.284  23.577
21861W        W22725   0.327  24.672  23.450
21862W        W22726   1.413  24.643  22.269
21863W        W22727   3.171  23.134  21.811
21864W        W22728   0.325  24.885  24.309
21865W        W22729   1.000  24.599  24.533
21866W        W22730   1.239  23.822  22.970
21867W        W22731   1.234  22.264  24.199
21868W        W22732   3.387  22.029  23.681
21869W        W22733   0.686  23.640  22.219
21870W        W22734   0.511  23.141  22.410
21871W        W22735   0.564  24.770  23.006
21872W        W22736   1.455  24.272  23.112
21873W        W22737   3.021  25.240  24.708
21874W        W22738   1.844  22.777  22.591
21875W        W22739   3.164  25.447  23.534
21876W        W22740   2.788  23.177  25.134
21877W        W22741   3.585  24.835  23.199
21878W        W22742   2.234  24.111  24.737
21879W        W22743   0.196  23.552  22.872
21880W        W22744   1.023  24.104  24.278
21881W        W22745   2.084  23.205  22.757
21882W        W22746   2.109  23.702  22.875
21883W        W22747   0.680  23.129  24.171
21884W        W22748   0.482  23.118  25.085
21885W        W22749   0.714  21.874  23.617
21886W        W22750   2.137  22.425  23.824
21887W        W22751   1.898  22.598  25.211
21888W        W22752   2.338  22.293  22.327
21889W        W22753   3.415  25.059  25.008
21890W        W22754   2.200  22.075  25.127
21891W        W22755   3.151  24.579  25.210
21892W        W22756   2.803  22.755  24.825
21893W        W22757   2.558  22.565  23.103
21894W        W22758   2.872  23.621  25.397
21895W        W22759   0.652  25.076  23.441
21896W        W22760   1.341  22.910  22.586
21897W        W22761   0.975  22.256  25.034
21898W        W22762   2.912  22.890  22.895
21899W        W22763   3.148  23.308  22.657
21900W        W22764   0.997  25.288  25.150
21901W        W22765   1.031  21.967  22.458
21902W        W22766   3.113  22.465  23.563
21903W        W22767   3.359  24.756  22.133
21904W        W22768   0.329  23.924  23.625
21905W        W22769   2.354  22.414  21.818
21906W        W22770   3.392  24.987  23.659
21907W        W22771   3.285  22.148  24.487
21908W        W22772   1.926  23.246  25.065
21909W        W22773   1.749  24.431  22.671
21910W        W22774   2.421  23.812  25.566
21911W        W22775   1.952  21.983  23.599
21912W        W22776   0.774  22.919  23.703
21913W        W22777   0.352  23.996  24.515
21914W        W22778   2.188  25.338  23.303
21915W        W22779   3.190  23.019  24.255
21916W        W22780   2.024  25.184  24.849
21917W        W22781   3.235  24.219  22.059
21918W        W22782   1.655  23.555  23.087
21919W        W22783   3.529  22.093  24.931
21920W        W22784   1.795  24.032  24.470
21921W        W22785   1.888  22.885  23.734
21922W        W22786   2.632  23.233  22.587
21923W        W22787   3.006  22.938  22.305
21924W        W22788   2.809  25.072  22.808
21925W        W22789   2.831  24.302  23.629
21926W        W22790   2.436  23.705  22.441
21927W        W22791   2.015  23.758  23.391
21928W        W22792   2.872  23.660  23.589
21929W        W22793   0.442  22.624  23.989
21930W        W22794   3.068  23.686  24.827
21931W        W22795   3.383  25.394  23.999
21932W        W22796   1.376  24.776  23.363
21933W        W22797   2.506  25.235  24.706
21934W        W22798   2.389  22.654  24.494
21935W        W22799   1.688  25.472  24.535
21936W        W22800   3.051  22.385  23.045
21937W        W22801   2.934  23.515  24.322
21938W        W22802   0.243  23.083  24.484
21939W        W22803   2.838  22.903  23.446
21940W        W22804   3.214  22.881  25.117
21941W        W22805   2.277  24.609  23.453
21942W        W22806   1.462  25.247  23.072
21943W        W22807   0.681  22.303  22.254
21944W        W22808   1.650  21.954  24.049
21945W        W22809   0.906  25.033  22.125
21946W        W22810   1.120  23.750  22.484
21947W        W22811   1.760  24.212  24.984
21948W        W22812   1.670  22.428  22.926
21949W        W22813   2.913  22.015  23.457
21950W        W22814   2.689  25.547  23.743
21951W        W22815   2.194  25.456  23.861
21952W        W22816   1.476  24.102  24.023
21953W        W22817   3.175  24.984  24.288
21954W        W22818   0.792  22.325  22.782
21955W        W22819   1.574  24.683  23.852
21956W        W22820   1.035  22.501  21.894
21957W        W22821   1.697  23.140  24.129
21958W        W22822   2.489  22.259  24.156
21959W        W22823   0.063  23.952  24.088
21960W        W22824   1.549  23.659  22.162
21961W        W22825   0.951  21.994  21.951
21962W        W22826   1.611  23.052  22.998
21963W        W22827   2.509  22.167  24.689
21964W        W22828   1.339  24.125  24.678
21965W        W22829   2.077  23.858  25.170
21966W        W22830   2.596  23.892  25.036
21967W        W22831   1.893  22.205  25.536
21968W        W22832   1.157  22.517  23.566
21969W        W22833   0.757  22.662  23.260
21970W        W22834   0.411  25.277  23.013
21971W        W22835   1.876  24.711  25.105
21972W        W22836   0.790  24.161  22.357
21973W        W22837   2.396  23.766  23.742
21974W        W22838   2.453  23.455  24.141
21975W        W22839   1.923  23.917  23.866
21976W        W22840   2.381  24.233  22.049
21977W        W22841   2.006  22.398  23.333
21978W        W22842   3.360  22.772  22.681
21979W        W22843   0.335  25.294  24.903
21980W        W22844   0.594  24.409  24.261
21981W        W22845   0.041  25.360  22.558
21982W        W22846   1.955  22.688  24.225
21983W        W22847   0.973  24.506  22.020
21984W        W22848   3.139  25.203  22.412
21985W        W22849   1.962  23.546  22.413
21986W        W22850   0.834  22.908  22.803
21987W        W22851   2.030  22.668  22.128
21988W        W22852   2.319  24.341  25.186
21989W        W22853   2.813  22.496  22.564
21990W        W22854   0.257  22.025  22.115
21991W        W22855   1.480  24.503  24.345
21992W        W22856   1.272  24.328  23.603
21993W        W22857   0.730  24.076  21.848
21994W        W22858   0.243  24.876  22.601
21995W        W22859   0.786  23.567  25.113
21996W        W22860   1.436  22.286  25.294
21997W        W22861   2.009  22.327  24.683
21998W        W22862   1.305  22.040  22.906
21999W        W22863   2.165  21.883  22.621
22000W        W22864   0.365  22.060  23.961
22001W        W22865   0.305  22.795  23.506
22002W        W22866   2.975  22.185  23.961
22003W        W22867   0.455  22.652  22.536
22004W        W22868   2.880  22.451  24.422
22005W        W22869   3.350  23.684  21.990
22006W        W22870   0.817  22.306  23.867
22007W        W22871   1.889  22.836  24.735
22008W        W22872   0.039  22.484  22.213
22009W        W22873   0.830  23.933  24.738
22010W        W22874   2.025  23.389  23.795
22011W        W22875   1.841  25.447  22.284
22012W        W22876   0.256  23.881  21.968
22013W        W22877   1.019  24.364  24.994
22014W        W22878   0.470  23.506  24.706
22015W        W22879   1.391  23.702  24.375
22016W        W22880   2.942  21.948  24.855
22017W        W22881   3.600  23.806  24.762
22018W        W22882   3.232  23.871  22.491
22019W        W22883   2.110  24.106  22.496
22020W        W22884   2.899  25.425  22.020
22021W        W22885   2.011  23.493  25.555
22022W        W22886   0.478  24.253  25.638
22023W        W22887   3.637  22.462  25.264
22024W        W22888   2.883  23.230  23.894
22025W        W22889   1.437  25.422  25.404
22026W        W22890   1.444  22.071  22.171
22027W        W22891   2.804  24.531  22.042
22028W        W22892   0.691  22.673  24.982
22029W        W22893   1.444  24.612  24.846
22030W        W22894   3.292  22.675  24.655
22031W        W22895   2.677  25.467  22.473
22032W        W22896   2.798  23.941  24.028
22033W        W22897   1.048  22.536  24.614
22034W        W22898   1.449  23.343  25.204
22035W        W22899   0.934  24.653  22.517
22036W        W22900   2.472  24.066  22.860
22037W        W22901   0.574  22.689  24.478
22038W        W22902   1.826  24.663  23.148
22039W        W22903   3.278  23.349  23.532
22040W        W22904   1.716  22.005  24.982
22041W        W22905   2.613  24.708  23.983
22042W        W22906   2.944  25.129  23.866
22043W        W22907   2.009  24.595  22.251
22044W        W22908   0.208  24.489  25.279
22045W        W22909   0.976  22.715  24.136
22046W        W22910   0.940  22.167  23.261
22047W        W22911   2.361  22.949  23.983
22048W        W22912   1.199  24.035  22.070
22049W        W22913   3.270  24.170  23.930
22050W        W22914   0.702  24.601  25.327
22051W        W22915   2.985  25.569  22.872
22052W        W22916   1.200  22.584  23.021
22053W        W22917   0.950  24.034  23.329
22054W        W22918   1.200  25.457  24.334
22055W        W22919   3.280  25.531  25.149
22056W        W22920   2.280  23.939  24.246
22057W        W22921   0.313  23.367  21.994
22058W        W22922   3.221  25.174  23.101
22059W        W22923   3.265  22.443  22.290
22060W        W22924   1.288  22.050  24.682
22061W        W22925   2.925  24.836  23.442
22062W        W22926   2.935  23.347  23.150
22063W        W22927   1.162  22.993  23.353
22064W        W22928   1.663  23.296  24.613
22065W        W22929   2.698  24.398  24.820
22066W        W22930   1.310  22.962  24.761
22067W        W22931   1.072  25.398  23.406
22068W        W22932   0.547  25.466  25.351
22069W        W22933   0.511  24.670  22.198
22070W        W22934   3.136  24.668  22.991
22071W        W22935   0.810  23.109  24.667
22072W        W22936   3.500  22.875  22.126
22073W        W22937   1.263  24.239  22.586
22074W        W22938   2.123  23.594  24.718
22075W        W22939   2.143  23.149  24.412
22076W        W22940   0.870  23.581  24.345
22077W        W22941   2.951  25.510  24.269
22078W        W22942   2.688  22.196  25.234
22079W        W22943   0.469  22.210  24.834
22080W        W22944   1.057  23.327  23.854
22081W        W22945   1.266  23.010  22.000
22082W        W22946   0.235  24.786  24.823
22083W        W22947   1.519  23.577  23.896
22084W        W22948   1.528  22.572  22.084
22085W        W22949   0.694  23.462  22.764
22086W        W22950   0.371  25.410  24.394
22087W        W22951   2.903  23.535  22.244
22088W        W22952   3.134  22.384  25.081
22089W        W22953   2.681  24.477  23.132
22090W        W22954   0.307  23.551  25.295
22091W        W22955   3.143  21.939  22.340
22092W        W22956   2.520  24.459  22.494
22093W        W22957   1.507  23.413  22.614
22094W        W22958   2.812  22.280  22.081
22095W        W22959   2.691  23.052  24.389
22096W        W22960   0.567  23.455  23.719
22097W        W22961   0.956  24.415  22.968
22098W        W22962   2.485  23.099  23.078
22099W        W22963   1.607  22.433  23.831
22100W        W22964   3.413  24.513  24.308
22101W        W22965   3.340  22.536  24.145
22102W        W22966   0.126  25.172  23.458
22103W        W22967   0.461  24.396  22.673
22104W        W22968   0.573  22.315  25.356
22105W        W22969   1.568  24.875  25.532
22106W        W22970   3.320  23.911  23.491
22107W        W22971   2.792  24.045  22.280
22108W        W22972   2.166  25.455  24.390
22109W        W22973   2.832  24.159  25.401
22110W        W22974   1.648  21.824  22.579
22111W        W22975   2.320  22.808  23.487
22112W        W22976   0.271  24.367  23.865
22113W        W22977   1.286  22.409  22.531
22114W        W22978   1.201  23.884  25.111
22115W        W22979   2.055  22.798  23.053
22116W        W22980   2.390  24.437  24.370
22117W        W22981   0.730  24.910  24.901
22118W        W22982   1.157  24.814  25.219
22119W        W22983   0.915  22.762  22.316
22120W        W22984   2.377  22.781  22.635
22121W        W22985   2.325  24.744  24.847
22122W        W22986   1.106  23.532  23.390
22123W        W22987   0.813  25.074  24.277
22124W        W22988   3.385  25.250  21.949
22125W        W22989   0.480  24.040  25.142
22126W        W22990   2.356  24.275  23.857
22127W        W22991   0.757  23.967  22.833
22128W        W22992   1.319  24.983  24.186
22129W        W22993   1.507  22.173  23.366
22130W        W22994   0.101  24.308  22.258
22131W        W22995   1.709  23.125  22.247
22132W        W22996   0.554  23.691  23.228
22133W        W22997   1.525  22.482  24.822
22134W        W22998   3.312  22.129  21.879
22135W        W22999   3.339  23.893  25.230
22136W        W23000   1.929  25.239  25.373
22137W        W23001   3.653  24.321  24.721
22138W        W23002   3.063  25.094  25.378
22139W        W23003   0.901  25.439  23.895
22140W        W23004   3.358  24.213  23.050
22141W        W23005   2.044  23.253  23.288
22142W        W23006   1.871  21.962  23.053
22143W        W23007   1.008  24.991  23.066
22144W        W23008   1.460  22.716  24.333
22145W        W23009   1.211  22.006  23.753
22146W        W23010   0.400  25.196  22.210
22147W        W23011   1.969  24.160  23.058
22148W        W23012   1.179  25.059  24.685
22149W        W23013   0.360  23.915  22.506
22150W        W23014   0.451  22.311  23.505
22151W        W23015   1.821  24.317  23.554
22152W        W23016   0.156  22.220  22.647
22153W        W23017   2.617  23.461  24.715
22154W        W23018   2.563  22.736  22.148
22155W        W23019   3.111  24.647  23.912
22156W        W23020   1.782  25.079  23.564
22157W        W23021   1.200  25.104  22.590
22158W        W23022   2.392  21.915  21.878
22159W        W23023   0.438  25.225  23.899
22160W        W23024   2.263  22.959  25.370
22161W        W23025   0.528  22.785  25.630
22162W        W23026   0.338  23.047  22.892
22163W        W23027   1.021  23.261  22.410
22164W        W23028   2.377  23.452  25.184
22165W        W23029   1.067  23.849  23.816
22166W        W23030   2.387  22.056  23.257
22167W        W23031   1.823  25.610  23.559
22168W        W23032   2.716  24.828  24.480
22169W        W23033   2.475  25.069  23.645
22170W        W23034   2.395  24.112  23.368
22171W        W23035   1.824  22.288  22.449
22172W        W23036   3.699  21.786  23.334
22173W        W23037   1.113  23.520  21.960
22174W        W23038   3.319  22.787  23.239
22175W        W23039   2.020  23.878  22.046
22176W        W23040   3.162  24.192  24.837
22177W        W23041   2.632  24.999  22.221
22178W        W23042   1.433  22.807  25.220
22179W        W23043   1.211  23.185  24.315
22180W        W23044   3.170  24.694  24.711
22181W        W23045   2.366  22.555  25.004
22182W        W23046   0.021  23.275  24.944
22183W        W23047   1.905  23.586  24.256
22184W        W23048   0.488  24.248  23.201
22185W        W23049   0.336  23.514  24.201
22186W        W23050   2.708  23.952  24.539
22187W        W23051   2.767  25.431  25.109
22188W        W23052   2.363  23.043  24.858
22189W        W23053   2.741  25.316  23.276
22190W        W23054   1.679  24.956  24.546
22191W        W23055   1.081  24.982  23.731
22192W        W23056   2.914  24.377  24.317
22193W        W23057   1.916  24.241  25.490
22194W        W23058   0.752  24.261  23.742
22195W        W23059   2.889  23.999  23.198
22196W        W23060   2.545  25.210  24.160
22197W        W23061   0.624  24.756  23.873
22198W        W23062   1.762  23.043  25.525
22199W        W23063   1.715  24.979  22.532
22200W        W23064   1.425  24.374  25.340
22201W        W23065   1.368  24.705  22.842
22202W        W23066   0.773  23.138  21.965
22203W        W23067   0.305  25.624  28.842
22204W        W23068   0.614  24.402  28.484
22205W        W23069   2.925  23.555  26.418
22206W        W23070   3.481  25.149  28.346
22207W        W23071   1.202  25.210  25.821
22208W        W23072   1.324  23.352  26.597
22209W        W23073   0.855  23.104  26.859
22210W        W23074   1.737  23.978  26.404
22211W        W23075   1.653  25.083  28.379
22212W        W23076   0.324  22.689  28.573
22213W        W23077   0.861  21.810  28.306
22214W        W23078   2.646  22.360  27.283
22215W        W23079   2.102  23.147  25.942
22216W        W23080   2.902  22.531  28.859
22217W        W23081   0.263  22.389  28.012
22218W        W23082   0.323  24.963  28.912
22219W        W23083   1.575  24.386  25.847
22220W        W23084   0.386  23.163  27.506
22221W        W23085   1.150  23.109  28.804
22222W        W23086   3.449  22.871  27.386
22223W        W23087   3.318  23.960  28.113
22224W        W23088   1.736  23.380  27.237
22225W        W23089   2.312  24.822  27.593
22226W        W23090   0.674  24.112  27.723
22227W        W23091   0.059  23.495  27.272
22228W        W23092   1.248  23.482  28.434
22229W        W23093   3.405  23.316  28.733
22230W        W23094   0.919  24.699  27.080
22231W        W23095   2.077  24.654  28.228
22232W        W23096   1.452  22.996  27.492
22233W        W23097   1.593  23.939  27.181
22234W        W23098   2.350  24.788   0.052
22235W        W23099   1.735  23.952  28.969
22236W        W23100   1.788  23.797  28.474
22237W        W23101   0.154  23.043  28.983
22238W        W23102   2.814  24.614  28.819
22239W        W23103   0.478  22.141  26.640
22240W        W23104   1.028  24.507  27.673
22241W        W23105   3.551  24.426  27.227
22242W        W23106   2.819  22.707  27.619
22243W        W23107   3.233  22.620  25.558
22244W        W23108   3.715  23.386  27.986
22245W        W23109   1.549  25.267  27.584
22246W        W23110   3.521  24.442  26.370
22247W        W23111   0.527  25.586  26.164
22248W        W23112   0.894  25.534  26.574
22249W        W23113   0.818  22.212  27.970
22250W        W23114   3.393  23.093  28.271
22251W        W23115   2.584  23.576  26.860
22252W        W23116   2.535  23.299  25.655
22253W        W23117   1.956  24.482  27.719
22254W        W23118   1.711  22.713  27.049
22255W        W23119   2.433  25.014  28.051
22256W        W23120   3.042  23.835  26.821
22257W        W23121   2.190  22.322  26.561
22258W        W23122   0.769  25.130  26.164
22259W        W23123   0.205  22.553  26.741
22260W        W23124   2.661  23.264  27.274
22261W        W23125   0.387  24.685  27.072
22262W        W23126   1.451  24.832  26.057
22263W        W23127   3.033  23.097  25.577
22264W        W23128   0.093  24.841  27.492
22265W        W23129   1.057  24.550  28.237
22266W        W23130   1.274  23.892  26.688
22267W        W23131   1.390  22.250  27.833
22268W        W23132   3.569  22.069  27.393
22269W        W23133   0.660  23.792  25.567
22270W        W23134   0.674  23.109  26.052
22271W        W23135   0.650  24.784  26.624
22272W        W23136   1.527  24.320  26.779
22273W        W23137   2.998  25.023  28.539
22274W        W23138   1.950  22.754  26.317
22275W        W23139   3.385  25.444  27.094
22276W        W23140   2.950  23.181  28.504
22277W        W23141   3.688  24.677  26.801
22278W        W23142   2.280  23.979  28.319
22279W        W23143   0.352  23.439  26.304
22280W        W23144   1.131  24.096  27.965
22281W        W23145   2.218  23.190  26.455
22282W        W23146   2.165  23.699  26.562
22283W        W23147   0.745  23.137  27.866
22284W        W23148   0.614  23.105  28.738
22285W        W23149   0.340  21.942  27.084
22286W        W23150   2.293  22.523  27.617
22287W        W23151   1.898  22.474  28.776
22288W        W23152   2.361  22.330  26.010
22289W        W23153   3.580  24.953  28.810
22290W        W23154   2.319  21.914  28.666
22291W        W23155   3.325  24.493  28.891
22292W        W23156   2.984  22.685  28.344
22293W        W23157   2.629  22.516  26.795
22294W        W23158   3.023  23.581   0.002
22295W        W23159   0.677  25.127  27.142
22296W        W23160   1.449  22.856  26.494
22297W        W23161   1.000  22.166  28.685
22298W        W23162   2.998  22.809  26.527
22299W        W23163   3.231  23.183  26.239
22300W        W23164   1.174  25.375  28.982
22301W        W23165   1.024  22.013  26.051
22302W        W23166   3.375  22.476  27.080
22303W        W23167   3.484  24.846  25.531
22304W        W23168   0.358  23.921  27.187
22305W        W23169   2.336  22.459  25.499
22306W        W23170   3.638  24.843  27.519
22307W        W23171   3.526  22.033  27.932
22308W        W23172   2.146  23.075  28.870
22309W        W23173   1.755  24.500  26.341
22310W        W23174   2.562  23.751   0.164
22311W        W23175   2.285  22.022  27.497
22312W        W23176   0.871  22.760  27.248
22313W        W23177   0.470  23.980  28.160
22314W        W23178   2.313  25.193  27.210
22315W        W23179   3.252  22.805  27.882
22316W        W23180   2.130  25.306  28.332
22317W        W23181   3.182  23.897  25.722
22318W        W23182   1.709  23.638  26.787
22319W        W23183   3.657  21.998  28.423
22320W        W23184   1.866  24.088  28.041
22321W        W23185   1.992  22.962  27.413
22322W        W23186   2.693  23.145  26.217
22323W        W23187   2.989  22.785  25.994
22324W        W23188   3.186  24.766  26.627
22325W        W23189   2.624  24.375  27.463
22326W        W23190   2.404  23.557  26.101
22327W        W23191   2.116  23.733  27.094
22328W        W23192   3.051  23.602  27.274
22329W        W23193   0.527  22.663  27.640
22330W        W23194   3.118  23.683  28.494
22331W        W23195   3.430  25.324  27.876
22332W        W23196   1.416  24.841  27.087
22333W        W23197   2.641  25.379  28.411
22334W        W23198   2.534  22.638  28.062
22335W        W23199   1.721  25.485  28.062
22336W        W23200   3.315  22.396  26.568
22337W        W23201   3.138  23.478  28.017
22338W        W23202   0.207  22.925  27.944
22339W        W23203   2.962  22.811  27.111
22340W        W23204   3.361  22.785  28.683
22341W        W23205   2.264  24.594  27.131
22342W        W23206   1.505  25.302  26.820
22343W        W23207   0.635  22.317  25.863
22344W        W23208   1.768  21.997  27.539
22345W        W23209   0.807  25.053  25.557
22346W        W23210   0.865  23.612  25.990
22347W        W23211   1.876  24.293  28.538
22348W        W23212   1.678  22.408  26.611
22349W        W23213   2.989  22.164  26.947
22350W        W23214   2.891  25.541  27.315
22351W        W23215   2.092  25.310  27.683
22352W        W23216   1.519  24.184  27.641
22353W        W23217   3.311  24.817  27.914
22354W        W23218   0.940  22.295  26.462
22355W        W23219   1.492  24.705  27.583
22356W        W23220   0.989  22.638  25.411
22357W        W23221   1.781  23.266  27.786
22358W        W23222   2.673  22.196  27.783
22359W        W23223   0.216  23.866  27.699
22360W        W23224   1.539  23.448  25.796
22361W        W23225   1.021  22.145  25.544
22362W        W23226   1.784  23.137  26.745
22363W        W23227   2.711  22.199  28.331
22364W        W23228   1.410  24.133  28.387
22365W        W23229   2.210  23.953  28.822
22366W        W23230   2.674  23.866  28.660
22367W        W23231   1.977  22.093   0.105
22368W        W23232   1.307  22.510  27.362
22369W        W23233   0.708  22.603  26.786
22370W        W23234   0.432  25.271  26.600
22371W        W23235   1.947  24.798  28.708
22372W        W23236   0.881  24.220  25.964
22373W        W23237   2.580  23.787  27.352
22374W        W23238   2.660  23.479  27.765
22375W        W23239   1.845  23.779  27.614
22376W        W23240   2.399  24.303  25.706
22377W        W23241   2.127  22.392  27.133
22378W        W23242   3.577  22.819  26.345
22379W        W23243   0.284  25.261  28.464
22380W        W23244   0.583  24.545  27.990
22381W        W23245   0.041  25.371  26.193
22382W        W23246   2.017  22.808  27.932
22383W        W23247   1.105  24.629  25.707
22384W        W23248   3.109  25.233  25.960
22385W        W23249   1.770  23.427  26.285
22386W        W23250   0.948  22.846  26.416
22387W        W23251   1.980  22.660  25.798
22388W        W23252   2.385  24.404  28.609
22389W        W23253   2.858  22.354  26.273
22390W        W23254   0.194  22.029  25.802
22391W        W23255   1.560  24.512  28.061
22392W        W23256   1.252  24.344  27.216
22393W        W23257   0.961  24.179  25.459
22394W        W23258   0.292  24.913  26.221
22395W        W23259   0.849  23.563  28.833
22396W        W23260   1.514  22.129  28.789
22397W        W23261   1.937  22.281  27.956
22398W        W23262   1.308  22.030  26.731
22399W        W23263   2.212  21.893  26.286
22400W        W23264   0.338  22.125  27.572
22401W        W23265   0.391  22.934  27.051
22402W        W23266   3.118  22.300  27.487
22403W        W23267   0.505  22.561  26.287
22404W        W23268   3.111  22.320  28.009
22405W        W23269   3.421  23.415  25.688
22406W        W23270   0.856  22.294  27.477
22407W        W23271   1.959  22.853  28.441
22408W        W23272   0.135  22.532  25.868
22409W        W23273   0.919  23.934  28.425
22410W        W23274   2.208  23.441  27.510
22411W        W23275   1.704  25.301  25.846
22412W        W23276   0.103  23.891  25.647
22413W        W23277   1.072  24.340  28.731
22414W        W23278   0.615  23.504  28.380
22415W        W23279   1.506  23.709  28.038
22416W        W23280   3.121  21.849  28.268
22417W        W23281   3.655  23.689  28.404
22418W        W23282   3.738  23.301  26.127
22419W        W23283   2.218  24.041  26.149
22420W        W23284   2.958  25.556  25.576
22421W        W23285   2.082  23.533   0.093
22422W        W23286   0.356  24.423  28.946
22423W        W23287   3.643  22.376  28.825
22424W        W23288   3.076  23.187  27.575
22425W        W23289   1.651  25.210  28.884
22426W        W23290   1.468  22.094  25.803
22427W        W23291   2.658  24.664  25.414
22428W        W23292   0.822  22.647  28.662
22429W        W23293   1.474  24.632  28.552
22430W        W23294   3.510  22.528  28.257
22431W        W23295   2.689  25.571  26.003
22432W        W23296   2.974  23.879  27.706
22433W        W23297   1.129  22.519  28.247
22434W        W23298   1.629  23.446  28.828
22435W        W23299   0.982  24.661  26.231
22436W        W23300   2.614  23.955  26.494
22437W        W23301   0.646  22.695  28.153
22438W        W23302   1.844  24.742  26.814
22439W        W23303   3.494  23.343  27.152
22440W        W23304   1.870  22.019  28.445
22441W        W23305   2.787  24.765  27.776
22442W        W23306   3.126  25.122  27.525
22443W        W23307   2.145  24.744  25.533
22444W        W23308   0.203  24.734  28.450
22445W        W23309   1.032  22.713  27.763
22446W        W23310   0.863  22.120  26.993
22447W        W23311   2.426  23.021  27.695
22448W        W23312   1.294  23.967  25.785
22449W        W23313   3.406  24.137  27.615
22450W        W23314   0.787  24.755  28.850
22451W        W23315   3.191  25.538  26.486
22452W        W23316   1.220  22.539  26.851
22453W        W23317   0.845  23.883  26.968
22454W        W23318   1.211  25.475  27.924
22455W        W23319   3.274  25.370  28.776
22456W        W23320   2.374  23.928  27.797
22457W        W23321   0.351  23.477  25.808
22458W        W23322   3.515  25.167  26.670
22459W        W23323   3.350  22.430  26.051
22460W        W23324   1.339  22.017  28.313
22461W        W23325   3.317  24.897  27.103
22462W        W23326   3.028  23.286  26.871
22463W        W23327   1.329  23.037  27.005
22464W        W23328   1.755  23.314  28.308
22465W        W23329   2.777  24.633  28.285
22466W        W23330   1.429  22.943  28.391
22467W        W23331   1.077  25.514  27.064
22468W        W23332   0.715  25.266  28.764
22469W        W23333   0.590  24.700  25.858
22470W        W23334   3.300  24.288  26.815
22471W        W23335   0.934  23.074  28.337
22472W        W23336   3.490  22.936  25.855
22473W        W23337   1.298  24.240  26.279
22474W        W23338   2.188  23.497  28.560
22475W        W23339   2.325  23.126  28.199
22476W        W23340   0.957  23.611  27.990
22477W        W23341   2.984  25.626  27.820
22478W        W23342   2.832  21.977  28.787
22479W        W23343   0.559  22.233  28.418
22480W        W23344   0.972  23.238  27.399
22481W        W23345   1.224  23.067  25.624
22482W        W23346   0.275  24.967  27.975
22483W        W23347   1.375  23.530  27.576
22484W        W23348   1.466  22.601  25.696
22485W        W23349   0.832  23.447  26.481
22486W        W23350   0.392  25.485  28.007
22487W        W23351   2.945  23.479  25.909
22488W        W23352   3.207  22.256  28.554
22489W        W23353   2.872  24.517  26.979
22490W        W23354   0.320  23.510  28.841
22491W        W23355   3.191  21.954  25.995
22492W        W23356   3.119  24.061  26.360
22493W        W23357   1.326  23.705  26.217
22494W        W23358   2.824  22.335  25.737
22495W        W23359   2.824  23.064  28.024
22496W        W23360   0.557  23.446  27.087
22497W        W23361   1.012  24.371  26.699
22498W        W23362   2.603  23.041  26.761
22499W        W23363   1.782  22.514  27.529
22500W        W23364   3.602  24.397  28.047
22501W        W23365   3.605  22.485  27.719
22502W        W23366   0.170  25.210  27.064
22503W        W23367   0.526  24.404  26.293
22504W        W23368   0.542  22.267  28.934
22505W        W23369   1.806  24.809   0.205
22506W        W23370   3.467  23.894  27.123
22507W        W23371   2.727  23.947  25.974
22508W        W23372   2.446  25.571  27.969
22509W        W23373   2.976  24.112  28.989
22510W        W23374   1.520  21.901  26.270
22511W        W23375   2.443  22.813  27.210
22512W        W23376   0.251  24.348  27.474
22513W        W23377   1.362  22.434  26.192
22514W        W23378   1.270  23.854  28.801
22515W        W23379   2.155  22.778  26.786
22516W        W23380   2.441  24.412  27.957
22517W        W23381   0.671  24.917  28.357
22518W        W23382   1.283  24.854  28.986
22519W        W23383   0.989  22.699  25.926
22520W        W23384   2.469  22.714  26.350
22521W        W23385   2.432  24.916  28.551
22522W        W23386   1.244  23.550  27.076
22523W        W23387   0.780  25.101  27.886
22524W        W23388   3.473  25.370  25.618
22525W        W23389   0.453  23.959  28.677
22526W        W23390   2.158  24.145  27.383
22527W        W23391   0.836  23.969  26.419
22528W        W23392   1.286  24.965  27.998
22529W        W23393   1.632  22.210  27.090
22530W        W23394   0.117  24.340  25.982
22531W        W23395   1.607  22.978  26.014
22532W        W23396   0.428  23.761  26.686
22533W        W23397   1.634  22.455  28.335
22534W        W23398   3.324  22.130  25.525
22535W        W23399   3.470  23.833  28.853
22536W        W23400   2.168  25.256  28.861
22537W        W23401   3.570  24.219  28.534
22538W        W23402   3.134  24.941   0.075
22539W        W23403   0.858  25.466  27.523
22540W        W23404   3.612  23.960  26.575
22541W        W23405   2.204  23.241  27.017
22542W        W23406   1.843  21.920  26.683
22543W        W23407   1.033  25.087  26.781
22544W        W23408   1.518  22.739  27.927
22545W        W23409   1.263  21.971  27.388
22546W        W23410   0.383  25.219  25.807
22547W        W23411   2.008  24.164  26.842
22548W        W23412   1.141  25.033  28.524
22549W        W23413   0.459  23.932  26.061
22550W        W23414   0.453  22.436  27.184
22551W        W23415   1.762  24.438  27.231
22552W        W23416   0.088  22.251  26.301
22553W        W23417   2.636  23.522  28.279
22554W        W23418   2.502  22.812  25.831
22555W        W23419   3.132  24.579  27.464
22556W        W23420   1.878  24.942  27.336
22557W        W23421   1.245  25.213  26.341
22558W        W23422   2.382  21.971  25.610
22559W        W23423   0.392  25.256  27.545
22560W        W23424   2.539  22.829   0.100
22561W        W23425   0.565  22.745   0.124
22562W        W23426   0.455  22.998  26.535
22563W        W23427   1.173  23.214  26.122
22564W        W23428   2.590  23.338  28.832
22565W        W23429   1.075  23.924  27.451
22566W        W23430   2.449  22.024  26.941
22567W        W23431   1.875  25.519  27.222
22568W        W23432   2.946  25.159  28.044
22569W        W23433   2.736  24.897  27.275
22570W        W23434   2.519  24.123  26.983
22571W        W23435   1.858  22.269  26.126
22572W        W23436   3.603  22.065  26.876
22573W        W23437   1.121  23.572  25.518
22574W        W23438   3.411  22.941  26.826
22575W        W23439   1.802  23.882  25.888
22576W        W23440   3.049  24.225  28.499
22577W        W23441   2.656  25.119  25.687
22578W        W23442   1.318  22.588  28.727
22579W        W23443   1.279  23.200  27.961
22580W        W23444   3.308  24.652  28.397
22581W        W23445   2.226  22.389  28.389
22582W        W23446   0.210  23.161  28.412
22583W        W23447   2.104  23.578  28.041
22584W        W23448   0.513  24.264  26.791
22585W        W23449   0.651  23.616  27.565
22586W        W23450   2.762  23.999  28.149
22587W        W23451   2.687  25.187  28.901
22588W        W23452   2.524  22.815  28.576
22589W        W23453   2.964  25.228  26.895
22590W        W23454   1.817  24.953  27.905
22591W        W23455   1.088  25.007  27.471
22592W        W23456   3.060  24.364  27.942
22593W        W23457   2.018  24.383   0.018
22594W        W23458   0.722  24.287  27.262
22595W        W23459   3.019  24.116  27.253
22596W        W23460   2.626  25.245  27.632
22597W        W23461   0.608  24.766  27.523
22598W        W23462   1.655  22.933  28.870
22599W        W23463   1.745  25.093  26.399
22600W        W23464   1.501  24.402   0.009
22601W        W23465   1.363  24.756  26.572
22602W        W23466   0.719  23.256  25.544
22603W        W23467   0.182   0.161   3.441
22604W        W23468   0.553  28.007   2.998
22605W        W23469   3.209  27.621   0.841
22606W        W23470   3.462  28.729   2.749
22607W        W23471   1.382  28.724   0.347
22608W        W23472   1.133  26.985   1.122
22609W        W23473   0.819  26.715   1.416
22610W        W23474   1.795  27.625   0.854
22611W        W23475   1.625  28.739   3.109
22612W        W23476   0.259  26.324   2.960
22613W        W23477   0.863  25.450   2.857
22614W        W23478   2.626  25.874   1.744
22615W        W23479   2.276  26.714   0.456
22616W        W23480   2.867  26.274   3.423
22617W        W23481   0.287  25.979   2.561
22618W        W23482   0.276  28.664   3.524
22619W        W23483   1.712  27.958   0.468
22620W        W23484   0.281  26.755   2.077
22621W        W23485   1.070  26.751   3.338
22622W        W23486   3.296  26.445   1.841
22623W        W23487   3.299  27.512   2.635
22624W        W23488   1.817  26.830   1.489
22625W        W23489   2.202  28.299   2.101
22626W        W23490   0.733  27.623   2.363
22627W        W23491   0.014  27.228   2.019
22628W        W23492   1.193  27.163   2.960
22629W        W23493   3.370  26.948   3.281
22630W        W23494   0.962  28.263   1.716
22631W        W23495   2.134  28.089   2.767
22632W        W23496   1.482  26.487   2.077
22633W        W23497   1.574  27.448   1.721
22634W        W23498   2.368  28.401   3.529
22635W        W23499   1.619  27.488   3.547
22636W        W23500   1.687  27.325   3.066
22637W        W23501   0.097  26.660   3.581
22638W        W23502   2.810  28.179   3.319
22639W        W23503   0.507  25.758   1.229
22640W        W23504   1.071  28.006   2.195
22641W        W23505   3.427  27.892   1.599
22642W        W23506   2.841  26.264   2.047
22643W        W23507   3.171  26.255   0.076
22644W        W23508   3.751  26.987   2.554
22645W        W23509   1.645  28.820   2.153
22646W        W23510   3.335  28.148   0.753
22647W        W23511   0.560   0.111   0.674
22648W        W23512   0.836  28.923   1.111
22649W        W23513   0.765  25.788   2.470
22650W        W23514   3.349  26.679   2.750
22651W        W23515   2.706  27.119   1.441
22652W        W23516   2.701  26.909   0.255
22653W        W23517   1.943  27.930   2.320
22654W        W23518   1.687  26.310   1.563
22655W        W23519   2.270  28.539   2.555
22656W        W23520   3.210  27.241   1.206
22657W        W23521   2.175  25.993   0.979
22658W        W23522   0.822  28.660   0.643
22659W        W23523   0.201  26.190   1.260
22660W        W23524   2.774  26.733   1.836
22661W        W23525   0.452  28.358   1.714
22662W        W23526   1.728  28.466   0.621
22663W        W23527   3.162  26.764   0.094
22664W        W23528   0.160  28.208   2.100
22665W        W23529   0.970  28.023   2.694
22666W        W23530   1.271  27.476   1.240
22667W        W23531   1.349  25.825   2.377
22668W        W23532   3.528  25.499   1.775
22669W        W23533   0.819  27.642   0.064
22670W        W23534   0.447  26.396   0.388
22671W        W23535   0.664  28.419   1.265
22672W        W23536   1.609  27.843   1.329
22673W        W23537   3.020  28.639   3.033
22674W        W23538   1.959  26.432   0.771
22675W        W23539   3.339  28.892   1.625
22676W        W23540   2.942  26.722   3.077
22677W        W23541   3.630  28.145   1.187
22678W        W23542   2.231  27.584   2.844
22679W        W23543   0.234  27.256   1.120
22680W        W23544   1.204  27.587   2.555
22681W        W23545   2.295  26.823   0.971
22682W        W23546   2.283  27.285   1.176
22683W        W23547   0.770  26.689   2.294
22684W        W23548   0.543  26.701   3.314
22685W        W23549   0.584  25.522   1.675
22686W        W23550   2.343  26.004   2.148
22687W        W23551   1.964  26.085   3.326
22688W        W23552   2.387  25.983   0.511
22689W        W23553   3.513  28.572   3.246
22690W        W23554   2.293  25.677   3.229
22691W        W23555   3.317  28.086   3.384
22692W        W23556   2.905  26.196   2.929
22693W        W23557   2.566  26.083   1.272
22694W        W23558   3.006  27.237   3.612
22695W        W23559   0.816  28.762   1.632
22696W        W23560   1.445  26.465   0.656
22697W        W23561   1.066  25.831   3.254
22698W        W23562   3.007  26.412   1.032
22699W        W23563   3.358  26.808   0.975
22700W        W23564   1.192  28.930   3.349
22701W        W23565   1.071  25.509   0.609
22702W        W23566   3.418  25.971   1.563
22703W        W23567   3.565  28.318   0.311
22704W        W23568   0.439  27.447   1.792
22705W        W23569   2.461  26.063   0.012
22706W        W23570   3.539  28.471   1.907
22707W        W23571   3.390  25.706   2.443
22708W        W23572   2.094  27.014   3.114
22709W        W23573   2.039  28.096   0.861
22710W        W23574   2.515  27.435   3.677
22711W        W23575   2.164  25.611   1.839
22712W        W23576   0.885  26.432   1.847
22713W        W23577   0.335  27.628   2.699
22714W        W23578   2.468  28.421   1.248
22715W        W23579   3.311  26.346   2.335
22716W        W23580   2.144  28.846   2.951
22717W        W23581   3.276  27.642   0.333
22718W        W23582   1.762  27.295   1.247
22719W        W23583   3.633  25.700   2.960
22720W        W23584   1.724  27.609   2.649
22721W        W23585   1.971  26.545   1.921
22722W        W23586   2.835  26.935   0.980
22723W        W23587   3.035  26.687   0.587
22724W        W23588   2.947  28.432   1.010
22725W        W23589   2.828  28.158   1.600
22726W        W23590   2.526  27.199   0.659
22727W        W23591   2.075  27.303   1.683
22728W        W23592   3.094  27.146   1.791
22729W        W23593   0.487  26.256   2.153
22730W        W23594   3.024  27.269   3.100
22731W        W23595   3.500  28.868   2.214
22732W        W23596   1.490  28.309   1.576
22733W        W23597   2.641  28.859   2.768
22734W        W23598   2.470  26.249   2.602
22735W        W23599   1.763   0.020   2.641
22736W        W23600   3.313  25.977   1.051
22737W        W23601   2.963  27.355   2.243
22738W        W23602   0.371  26.714   2.596
22739W        W23603   2.963  26.240   1.531
22740W        W23604   3.377  26.443   3.206
22741W        W23605   2.325  28.074   1.635
22742W        W23606   1.670  28.721   1.270
22743W        W23607   0.660  25.945   0.525
22744W        W23608   1.739  25.548   2.149
22745W        W23609   0.836  28.658   0.141
22746W        W23610   1.134  27.359   0.725
22747W        W23611   1.827  27.836   3.121
22748W        W23612   1.683  26.087   1.073
22749W        W23613   3.002  25.670   1.460
22750W        W23614   2.649   0.024   1.823
22751W        W23615   2.181  28.887   2.023
22752W        W23616   1.509  27.721   2.178
22753W        W23617   3.279  28.416   2.373
22754W        W23618   0.925  25.920   0.975
22755W        W23619   1.535  28.269   2.103
22756W        W23620   1.103  26.266  28.949
22757W        W23621   1.765  26.749   2.410
22758W        W23622   2.700  25.629   2.217
22759W        W23623   0.203  27.687   2.201
22760W        W23624   1.607  27.323   0.432
22761W        W23625   1.092  25.857   0.233
22762W        W23626   1.527  26.583   1.144
22763W        W23627   2.578  25.779   2.771
22764W        W23628   1.334  27.717   3.026
22765W        W23629   2.116  27.479   3.357
22766W        W23630   2.618  27.561   3.189
22767W        W23631   1.982  25.757   3.724
22768W        W23632   1.287  26.083   1.846
22769W        W23633   0.734  26.205   1.380
22770W        W23634   0.401  28.680   0.923
22771W        W23635   1.996  28.381   3.160
22772W        W23636   0.848  27.850   0.567
22773W        W23637   2.564  27.245   1.916
22774W        W23638   2.649  26.950   2.325
22775W        W23639   1.895  27.405   2.177
22776W        W23640   2.466  27.951   0.265
22777W        W23641   2.077  25.982   1.500
22778W        W23642   3.603  26.381   0.839
22779W        W23643   0.345  28.838   3.031
22780W        W23644   0.507  28.064   2.472
22781W        W23645   0.039  28.966   0.707
22782W        W23646   2.003  26.298   2.393
22783W        W23647   1.287  28.237   0.510
22784W        W23648   3.183  28.636   0.575
22785W        W23649   2.020  27.174   0.704
22786W        W23650   1.024  26.470   0.984
22787W        W23651   2.030  26.284   0.265
22788W        W23652   2.310  27.968   3.246
22789W        W23653   2.823  25.951   0.838
22790W        W23654   0.234  25.668   0.360
22791W        W23655   1.474  28.048   2.579
22792W        W23656   1.304  27.878   1.756
22793W        W23657   0.954  28.139   0.150
22794W        W23658   0.069  28.435   0.634
22795W        W23659   0.758  27.176   3.276
22796W        W23660   1.505  25.920   3.516
22797W        W23661   2.061  25.914   2.782
22798W        W23662   1.356  25.661   1.118
22799W        W23663   2.195  25.548   0.708
22800W        W23664   0.379  25.688   2.129
22801W        W23665   0.398  26.506   1.641
22802W        W23666   3.109  25.829   1.964
22803W        W23667   0.549  26.286   0.892
22804W        W23668   2.954  25.996   2.466
22805W        W23669   3.463  27.175   0.221
22806W        W23670   0.829  25.896   1.971
22807W        W23671   1.955  26.416   2.906
22808W        W23672  28.999  26.115   0.433
22809W        W23673   0.823  27.562   2.906
22810W        W23674   2.163  26.976   2.138
22811W        W23675   1.982  28.852   0.362
22812W        W23676   0.201  27.509   0.197
22813W        W23677   1.021  28.100   3.188
22814W        W23678   0.507  27.157   2.817
22815W        W23679   1.479  27.184   2.414
22816W        W23680   3.077  25.657   2.852
22817W        W23681   3.645  27.278   2.971
22818W        W23682   3.531  27.229   0.734
22819W        W23683   2.334  27.667   0.816
22820W        W23684   2.991  28.959   0.191
22821W        W23685   2.167  27.022   3.633
22822W        W23686   0.282  28.146   3.438
22823W        W23687   3.737  26.089   3.504
22824W        W23688   3.160  26.824   2.196
22825W        W23689   1.623  28.928   3.605
22826W        W23690   1.554  25.644   0.240
22827W        W23691   2.980  28.116   0.368
22828W        W23692   0.813  26.297   3.154
22829W        W23693   1.510  28.231   3.060
22830W        W23694   3.391  26.121   2.774
22831W        W23695   2.746  28.983   0.647
22832W        W23696   2.783  27.755   1.971
22833W        W23697   1.091  26.020   2.782
22834W        W23698   1.631  26.957   3.448
22835W        W23699   0.954  28.238   0.890
22836W        W23700   2.763  27.463   1.054
22837W        W23701   0.680  26.300   2.648
22838W        W23702   1.954  28.272   1.337
22839W        W23703   3.544  26.847   1.648
22840W        W23704   1.803  25.619   3.133
22841W        W23705   2.715  28.248   2.118
22842W        W23706   3.030  28.632   1.948
22843W        W23707   2.186  28.365   0.434
22844W        W23708   0.195  28.360   2.938
22845W        W23709   1.059  26.251   2.302
22846W        W23710   0.998  25.768   1.498
22847W        W23711   2.422  26.526   2.170
22848W        W23712   1.275  27.706   0.322
22849W        W23713   3.350  27.635   2.055
22850W        W23714   0.674  28.470   3.262
22851W        W23715   3.091  28.975   1.032
22852W        W23716   1.251  26.173   1.332
22853W        W23717   0.901  27.616   1.606
22854W        W23718   1.246   0.075   2.433
22855W        W23719   3.260   0.015   3.304
22856W        W23720   2.383  27.388   2.384
22857W        W23721   0.637  27.265   0.374
22858W        W23722   3.443  28.598   1.040
22859W        W23723   3.196  26.205   0.584
22860W        W23724   1.362  25.574   2.866
22861W        W23725   3.269  28.388   1.483
22862W        W23726   3.083  26.776   1.425
22863W        W23727   1.304  26.650   1.611
22864W        W23728   1.630  26.834   2.909
22865W        W23729   2.655  27.986   2.866
22866W        W23730   1.264  26.467   2.969
22867W        W23731   1.330  28.925   1.612
22868W        W23732   0.685  28.987   3.371
22869W        W23733   0.537  28.280   0.431
22870W        W23734   3.119  27.975   1.196
22871W        W23735   0.835  26.759   2.862
22872W        W23736   3.538  26.733   0.469
22873W        W23737   1.308  27.830   0.843
22874W        W23738   2.522  27.112   2.829
22875W        W23739   2.247  26.730   2.601
22876W        W23740   0.940  27.146   2.496
22877W        W23741   3.055  28.876   2.455
22878W        W23742   2.789  25.771   3.291
22879W        W23743   0.582  25.864   2.987
22880W        W23744   1.172  26.903   2.063
22881W        W23745   1.287  26.683   0.184
22882W        W23746   0.283  28.542   2.455
22883W        W23747   1.667  26.986   1.953
22884W        W23748   1.524  26.171   0.236
22885W        W23749   0.680  27.120   0.867
22886W        W23750   0.334   0.037   2.566
22887W        W23751   3.042  27.205   0.542
22888W        W23752   3.263  25.961   3.238
22889W        W23753   2.598  27.934   1.183
22890W        W23754   0.263  27.143   3.453
22891W        W23755   3.290  25.700   0.568
22892W        W23756   2.579  28.167   0.725
22893W        W23757   1.546  26.989   0.819
22894W        W23758   2.868  25.897   0.310
22895W        W23759   2.879  26.546   2.545
22896W        W23760   0.702  26.979   1.854
22897W        W23761   1.111  28.001   1.303
22898W        W23762   2.617  26.600   1.318
22899W        W23763   1.818  26.034   1.979
22900W        W23764   3.526  27.979   2.489
22901W        W23765   3.578  26.006   2.058
22902W        W23766   0.322  28.794   1.415
22903W        W23767   0.431  28.111   0.905
22904W        W23768   0.612  25.966   3.509
22905W        W23769   1.668  28.418   3.545
22906W        W23770   3.510  27.379   1.607
22907W        W23771   2.783  27.662   0.552
22908W        W23772   2.264   0.084   2.493
22909W        W23773   2.963  27.735   3.551
22910W        W23774   1.636  25.466   0.731
22911W        W23775   2.409  26.333   1.705
22912W        W23776   0.133  27.890   1.701
22913W        W23777   1.344  25.952   0.679
22914W        W23778   0.978  27.641   3.402
22915W        W23779   2.114  26.441   1.274
22916W        W23780   2.468  27.900   2.404
22917W        W23781   0.692  28.471   2.749
22918W        W23782   1.159  28.450   3.541
22919W        W23783   0.982  26.337   0.458
22920W        W23784   2.509  26.380   0.839
22921W        W23785   2.485  28.444   3.022
22922W        W23786   1.149  27.145   1.615
22923W        W23787   0.780  28.835   2.388
22924W        W23788   3.527  28.833   0.217
22925W        W23789   0.438  27.608   3.306
22926W        W23790   2.262  27.698   1.977
22927W        W23791   0.824  27.639   1.061
22928W        W23792   1.167  28.465   2.488
22929W        W23793   1.583  25.774   1.570
22930W        W23794   0.114  27.933   0.496
22931W        W23795   1.761  26.770   0.386
22932W        W23796   0.687  27.213   1.373
22933W        W23797   1.557  26.050   3.015
22934W        W23798   3.337  25.781   0.058
22935W        W23799   3.422  27.491   3.390
22936W        W23800   2.094  28.825   3.464
22937W        W23801   3.614  27.817   2.974
22938W        W23802   3.094  28.556   3.554
22939W        W23803   0.930   0.137   1.996
22940W        W23804   3.612  27.621   1.165
22941W        W23805   2.307  26.845   1.649
22942W        W23806   1.880  25.612   1.176
22943W        W23807   1.150  28.547   1.302
22944W        W23808   1.523  26.286   2.559
22945W        W23809   1.250  25.563   1.945
22946W        W23810   0.368  28.763   0.352
22947W        W23811   2.101  27.760   1.280
22948W        W23812   1.134  28.565   2.999
22949W        W23813   0.442  27.596   0.733
22950W        W23814   0.385  25.993   1.711
22951W        W23815   1.835  27.952   1.793
22952W        W23816   0.192  25.881   0.840
22953W        W23817   3.024  27.052   2.651
22954W        W23818   2.695  26.385   0.352
22955W        W23819   3.183  28.112   1.979
22956W        W23820   1.894  28.546   1.768
22957W        W23821   1.292  28.669   0.841
22958W        W23822   2.485  25.549   0.207
22959W        W23823   0.434  28.799   1.986
22960W        W23824   2.492  26.591   3.578
22961W        W23825   0.580  26.408   3.766
22962W        W23826   0.388  26.744   1.116
22963W        W23827   1.068  26.845   0.626
22964W        W23828   2.605  27.046   3.341
22965W        W23829   1.106  27.426   2.055
22966W        W23830   2.380  25.593   1.335
22967W        W23831   1.826   0.071   1.705
22968W        W23832   2.813  28.401   2.604
22969W        W23833   2.491  28.545   1.760
22970W        W23834   2.507  27.587   1.540
22971W        W23835   1.850  25.924   0.585
22972W        W23836   3.633  25.585   1.221
22973W        W23837   1.130  27.187   0.233
22974W        W23838   3.434  26.437   1.335
22975W        W23839   2.078  27.600   0.380
22976W        W23840   3.090  27.771   3.043
22977W        W23841   2.689  28.554   0.339
22978W        W23842   1.527  26.433   3.417
22979W        W23843   1.248  26.723   2.531
22980W        W23844   3.257  28.222   2.865
22981W        W23845   2.421  26.147   3.096
22982W        W23846   0.139  26.831   3.028
22983W        W23847   1.978  27.165   2.635
22984W        W23848   0.551  27.933   1.398
22985W        W23849   0.469  27.191   2.282
22986W        W23850   2.777  27.527   2.690
22987W        W23851   2.651  28.832   3.341
22988W        W23852   2.439  26.641   3.061
22989W        W23853   2.864  28.711   1.445
22990W        W23854   1.759  28.484   2.661
22991W        W23855   1.157  28.657   2.016
22992W        W23856   3.006  27.928   2.445
22993W        W23857   1.939  27.947   3.628
22994W        W23858   0.611  27.921   1.946
22995W        W23859   3.015  27.590   1.532
22996W        W23860   2.615  28.739   2.247
22997W        W23861   0.720  28.393   2.157
22998W        W23862   2.014  26.590   3.399
22999W        W23863   2.084  28.621   0.954
23000W        W23864   1.417  27.963   3.489
23001W        W23865   1.517  28.257   1.042
23002W        W23866   0.760  26.776   0.213
23003W        W23867   0.165   0.153   7.027
23004W        W23868   0.531  28.052   6.574
23005W        W23869   3.216  27.544   4.439
23006W        W23870   3.427  28.802   6.439
23007W        W23871   1.114  28.890   3.860
23008W        W23872   1.235  26.925   4.698
23009W        W23873   0.846  26.782   5.053
23010W        W23874   1.527  27.448   4.473
23011W        W23875   1.588  28.687   6.852
23012W        W23876   0.312  26.288   6.663
23013W        W23877   0.816  25.394   6.524
23014W        W23878   2.659  25.979   5.376
23015W        W23879   2.283  26.679   4.050
23016W        W23880   2.784  26.333   6.956
23017W        W23881   0.310  25.960   6.220
23018W        W23882   0.301  28.644   7.194
23019W        W23883   1.532  28.116   3.975
23020W        W23884   0.221  26.663   5.719
23021W        W23885   1.031  26.721   6.919
23022W        W23886   3.424  26.535   5.397
23023W        W23887   3.266  27.582   6.177
23024W        W23888   1.702  26.990   5.385
23025W        W23889   2.316  28.358   5.698
23026W        W23890   0.616  27.592   5.893
23027W        W23891  28.971  27.096   5.549
23028W        W23892   1.119  27.123   6.590
23029W        W23893   3.313  26.963   6.846
23030W        W23894   0.939  28.358   5.321
23031W        W23895   2.077  28.133   6.351
23032W        W23896   1.434  26.634   5.659
23033W        W23897   1.554  27.495   5.336
23034W        W23898   2.372  28.376   7.180
23035W        W23899   1.628  27.450   7.194
23036W        W23900   1.625  27.347   6.692
23037W        W23901   0.038  26.740   7.225
23038W        W23902   2.802  28.214   6.908
23039W        W23903   0.476  25.639   4.974
23040W        W23904   1.000  28.031   5.816
23041W        W23905   3.551  27.919   5.312
23042W        W23906   3.059  26.252   5.637
23043W        W23907   3.287  26.299   3.708
23044W        W23908   3.648  27.032   6.036
23045W        W23909   1.612  28.709   5.882
23046W        W23910   3.346  28.115   4.459
23047W        W23911   0.630   0.098   3.855
23048W        W23912   0.856   0.058   4.720
23049W        W23913   0.782  25.746   6.140
23050W        W23914   3.263  26.846   6.342
23051W        W23915   2.456  27.188   4.880
23052W        W23916   2.644  26.991   3.876
23053W        W23917   1.889  28.084   5.840
23054W        W23918   1.738  26.339   5.198
23055W        W23919   2.232  28.606   6.173
23056W        W23920   2.938  27.099   4.667
23057W        W23921   2.248  25.906   4.599
23058W        W23922   0.711  28.673   4.357
23059W        W23923   0.283  26.108   4.809
23060W        W23924   2.609  26.912   5.293
23061W        W23925   0.415  28.328   5.339
23062W        W23926   1.533  28.641   4.027
23063W        W23927   3.015  26.728   3.612
23064W        W23928   0.209  28.403   5.839
23065W        W23929   0.986  28.088   6.330
23066W        W23930   1.238  27.563   4.897
23067W        W23931   1.372  25.915   6.027
23068W        W23932   3.564  25.653   5.493
23069W        W23933   0.716  27.403   3.777
23070W        W23934   0.562  26.674   4.227
23071W        W23935   0.523  28.401   4.829
23072W        W23936   1.293  28.073   4.856
23073W        W23937   2.966  28.682   6.674
23074W        W23938   1.921  26.453   4.345
23075W        W23939   3.191  28.822   5.109
23076W        W23940   2.820  26.807   6.717
23077W        W23941   3.657  28.195   4.888
23078W        W23942   2.230  27.641   6.443
23079W        W23943   0.243  26.998   4.468
23080W        W23944   1.095  27.623   6.090
23081W        W23945   2.210  26.852   4.542
23082W        W23946   2.035  27.354   4.612
23083W        W23947   0.696  26.681   5.989
23084W        W23948   0.501  26.684   6.999
23085W        W23949   0.764  25.533   5.424
23086W        W23950   2.215  26.113   5.654
23087W        W23951   1.905  26.162   6.932
23088W        W23952   2.403  25.975   4.079
23089W        W23953   3.475  28.565   6.917
23090W        W23954   2.313  25.592   6.733
23091W        W23955   3.269  28.096   7.076
23092W        W23956   2.840  26.188   6.486
23093W        W23957   2.630  26.137   4.877
23094W        W23958   2.896  27.198   7.057
23095W        W23959   0.676  28.777   5.143
23096W        W23960   1.409  26.555   4.347
23097W        W23961   0.988  25.722   6.920
23098W        W23962   2.978  26.411   4.547
23099W        W23963   1.136  28.863   7.038
23100W        W23964   1.109  25.598   4.288
23101W        W23965   3.354  26.052   5.235
23102W        W23966   3.582  28.334   3.767
23103W        W23967   0.364  27.459   5.449
23104W        W23968   2.426  26.071   3.587
23105W        W23969   3.555  28.433   5.601
23106W        W23970   3.430  25.754   6.041
23107W        W23971   1.967  26.944   6.786
23108W        W23972   1.740  27.963   4.440
23109W        W23973   2.474  27.430   7.303
23110W        W23974   2.218  25.610   5.491
23111W        W23975   0.783  26.470   5.492
23112W        W23976   0.346  27.641   6.325
23113W        W23977   2.022  28.690   5.037
23114W        W23978   3.385  26.616   5.896
23115W        W23979   2.074  28.854   6.620
23116W        W23980   3.309  27.527   3.904
23117W        W23981   1.629  27.167   4.905
23118W        W23982   3.612  25.738   6.551
23119W        W23983   1.769  27.705   6.208
23120W        W23984   1.996  26.598   5.555
23121W        W23985   2.718  26.784   4.329
23122W        W23986   3.210  26.634   4.107
23123W        W23987   3.019  28.399   4.808
23124W        W23988   2.551  27.927   5.504
23125W        W23989   2.527  27.259   4.349
23126W        W23990   2.030  27.342   5.160
23127W        W23991   2.996  27.274   5.415
23128W        W23992   0.474  26.224   5.822
23129W        W23993   3.039  27.278   6.555
23130W        W23994   3.507  28.883   5.897
23131W        W23995   1.418  28.474   5.192
23132W        W23996   2.579  28.922   6.426
23133W        W23997   2.500  26.185   6.077
23134W        W23998   1.745   0.071   6.277
23135W        W23999   3.234  26.000   4.711
23136W        W24000   3.153  27.149   5.921
23137W        W24001   0.255  26.507   6.211
23138W        W24002   2.923  26.444   5.183
23139W        W24003   3.228  26.482   6.707
23140W        W24004   2.185  28.167   5.215
23141W        W24005   1.545  28.766   4.799
23142W        W24006   0.807  25.902   3.990
23143W        W24007   1.769  25.669   5.744
23144W        W24008   0.711  28.590   3.772
23145W        W24009   1.046  27.381   4.248
23146W        W24010   1.833  27.836   6.727
23147W        W24011   1.761  26.077   4.728
23148W        W24012   2.999  25.703   5.080
23149W        W24013   2.775   0.045   5.400
23150W        W24014   2.099  28.847   5.723
23151W        W24015   1.466  27.768   5.762
23152W        W24016   3.264  28.449   6.058
23153W        W24017   0.917  25.985   4.602
23154W        W24018   1.400  28.290   5.665
23155W        W24019   1.074  26.238   3.606
23156W        W24020   1.755  26.889   5.964
23157W        W24021   2.595  25.725   5.818
23158W        W24022   0.098  27.484   5.903
23159W        W24023   1.479  27.174   3.999
23160W        W24024   1.098  25.554   3.730
23161W        W24025   1.691  26.630   4.786
23162W        W24026   2.604  25.753   6.335
23163W        W24027   1.341  27.735   6.526
23164W        W24028   2.110  27.437   6.912
23165W        W24029   2.613  27.520   6.782
23166W        W24030   1.852  25.779   7.259
23167W        W24031   1.250  26.220   5.413
23168W        W24032   0.746  26.265   5.015
23169W        W24033   0.368  28.875   4.715
23170W        W24034   1.970  28.352   6.817
23171W        W24035   0.785  27.825   4.110
23172W        W24036   2.510  27.433   5.370
23173W        W24037   2.657  27.132   5.765
23174W        W24038   1.813  27.374   5.796
23175W        W24039   2.519  27.946   3.724
23176W        W24040   2.128  25.997   5.146
23177W        W24041   3.547  26.394   4.446
23178W        W24042   0.323  28.774   6.652
23179W        W24043   0.521  28.063   6.054
23180W        W24044  28.975  28.921   4.396
23181W        W24045   2.078  26.477   6.038
23182W        W24046   1.063  28.343   4.052
23183W        W24047   3.163  28.791   4.146
23184W        W24048   2.062  27.167   4.111
23185W        W24049   0.921  26.518   4.593
23186W        W24050   2.029  26.282   3.828
23187W        W24051   2.336  27.928   6.911
23188W        W24052   2.790  25.922   4.425
23189W        W24053   0.308  25.742   3.942
23190W        W24054   1.468  28.123   6.155
23191W        W24055   1.184  27.900   5.329
23192W        W24056   0.782  28.081   3.650
23193W        W24057   0.162  28.441   4.452
23194W        W24058   0.751  27.161   6.978
23195W        W24059   1.437  25.934   6.959
23196W        W24060   1.967  25.991   6.125
23197W        W24061   1.382  25.703   4.757
23198W        W24062   2.182  25.519   4.152
23199W        W24063   0.406  25.654   5.791
23200W        W24064   0.297  26.447   5.246
23201W        W24065   3.079  25.720   5.616
23202W        W24066   0.524  26.178   4.326
23203W        W24067   2.977  25.976   6.050
23204W        W24068   3.439  27.021   3.788
23205W        W24069   0.886  25.957   5.672
23206W        W24070   1.925  26.484   6.529
23207W        W24071   0.121  26.241   3.943
23208W        W24072   0.831  27.580   6.539
23209W        W24073   2.183  27.074   5.572
23210W        W24074   1.979  28.925   3.991
23211W        W24075   0.208  27.543   3.811
23212W        W24076   0.994  27.985   6.830
23213W        W24077   0.484  27.188   6.523
23214W        W24078   1.448  27.282   6.208
23215W        W24079   3.100  25.652   6.432
23216W        W24080   3.567  27.335   6.515
23217W        W24081   3.598  27.238   4.224
23218W        W24082   2.267  27.646   4.085
23219W        W24083   2.972   0.044   3.726
23220W        W24084   2.022  27.118   7.305
23221W        W24085   0.289  28.102   7.320
23222W        W24086   3.702  26.059   6.990
23223W        W24087   3.000  26.772   5.597
23224W        W24088   1.562  28.980   7.279
23225W        W24089   1.522  25.697   3.981
23226W        W24090   3.180  28.025   3.941
23227W        W24091   0.811  26.258   6.825
23228W        W24092   1.478  28.210   6.671
23229W        W24093   3.382  26.233   6.276
23230W        W24094   2.763   0.139   4.197
23231W        W24095   2.864  27.619   5.803
23232W        W24096   1.102  25.962   6.484
23233W        W24097   1.485  26.974   7.012
23234W        W24098   0.864  28.181   4.500
23235W        W24099   2.856  27.525   4.960
23236W        W24100   0.716  26.250   6.298
23237W        W24101   1.770  28.269   4.866
23238W        W24102   3.693  26.842   5.082
23239W        W24103   1.808  25.631   6.754
23240W        W24104   2.842  28.278   5.752
23241W        W24105   3.107  28.714   5.619
23242W        W24106   2.002  28.396   3.929
23243W        W24107   0.167  28.284   6.857
23244W        W24108   1.088  26.345   5.934
23245W        W24109   1.029  25.850   5.124
23246W        W24110   2.514  26.607   5.743
23247W        W24111   1.231  27.664   3.865
23248W        W24112   3.371  27.535   5.644
23249W        W24113   0.683  28.434   6.889
23250W        W24114   3.138   0.050   4.611
23251W        W24115   1.291  26.241   4.871
23252W        W24116   0.753  27.476   5.104
23253W        W24117   1.258   0.062   6.047
23254W        W24118   3.246   0.022   6.956
23255W        W24119   2.300  27.464   5.939
23256W        W24120   0.300  27.025   3.951
23257W        W24121   3.454  28.625   4.681
23258W        W24122   3.207  26.108   4.183
23259W        W24123   1.327  25.515   6.607
23260W        W24124   3.165  28.292   5.294
23261W        W24125   3.161  26.913   5.103
23262W        W24126   1.338  26.673   5.157
23263W        W24127   1.553  26.845   6.485
23264W        W24128   2.593  28.010   6.487
23265W        W24129   1.157  26.479   6.464
23266W        W24130   1.174  28.948   5.135
23267W        W24131   0.651  28.951   7.006
23268W        W24132   0.489  28.250   4.099
23269W        W24133   3.221  27.904   4.907
23270W        W24134   0.687  26.717   6.515
23271W        W24135   3.737  26.715   4.089
23272W        W24136   1.241  27.864   4.358
23273W        W24137   2.399  27.136   6.528
23274W        W24138   2.279  26.944   6.061
23275W        W24139   0.845  27.179   6.144
23276W        W24140   3.020  28.923   6.104
23277W        W24141   2.775  25.767   6.842
23278W        W24142   0.564  25.827   6.648
23279W        W24143   0.900  26.965   5.604
23280W        W24144   1.281  26.707   3.805
23281W        W24145   0.176  28.376   6.351
23282W        W24146   1.357  27.165   5.718
23283W        W24147   1.521  26.255   3.922
23284W        W24148   0.738  27.091   4.626
23285W        W24149   0.275  28.847   6.116
23286W        W24150   3.068  27.133   4.151
23287W        W24151   3.230  25.984   6.788
23288W        W24152   2.723  28.054   5.043
23289W        W24153   0.229  27.166   6.978
23290W        W24154   3.225  25.598   4.123
23291W        W24155   2.845  27.883   4.550
23292W        W24156   1.708  26.966   4.414
23293W        W24157   2.874  25.918   3.829
23294W        W24158   2.918  26.507   6.083
23295W        W24159   0.441  26.948   5.327
23296W        W24160   0.795  27.994   4.983
23297W        W24161   2.608  26.674   4.830
23298W        W24162   1.697  26.181   5.697
23299W        W24163   3.557  28.025   6.189
23300W        W24164   3.574  26.153   5.750
23301W        W24165   0.147  28.732   5.141
23302W        W24166   0.394  27.961   4.574
23303W        W24167   0.600  25.911   7.176
23304W        W24168   1.649  28.450   7.318
23305W        W24169   3.400  27.445   5.131
23306W        W24170   2.822  27.600   4.061
23307W        W24171   2.225   0.153   6.115
23308W        W24172   2.884  27.737   7.159
23309W        W24173   1.713  25.498   4.411
23310W        W24174   2.403  26.429   5.267
23311W        W24175   0.155  27.927   5.600
23312W        W24176   1.379  26.040   4.367
23313W        W24177   1.158  27.496   6.972
23314W        W24178   2.153  26.395   4.818
23315W        W24179   2.457  27.956   6.006
23316W        W24180   0.666  28.506   6.303
23317W        W24181   1.183  28.366   7.113
23318W        W24182   0.993  26.366   4.105
23319W        W24183   2.461  26.353   4.419
23320W        W24184   2.438  28.476   6.654
23321W        W24185   1.184  27.157   5.208
23322W        W24186   0.765  28.929   5.967
23323W        W24187   3.492  28.838   3.748
23324W        W24188   0.405  27.635   6.863
23325W        W24189   2.076  27.719   5.509
23326W        W24190   0.807  27.647   4.610
23327W        W24191   1.147  28.534   6.082
23328W        W24192   1.571  25.851   5.225
23329W        W24193   0.031  27.943   4.192
23330W        W24194   1.785  26.741   3.914
23331W        W24195   0.327  27.433   4.762
23332W        W24196   1.613  26.051   6.494
23333W        W24197   3.368  25.794   3.692
23334W        W24198   3.314  27.477   6.959
23335W        W24199   2.035  28.782   7.154
23336W        W24200   3.547  27.867   6.701
23337W        W24201   3.042  28.584   7.192
23338W        W24202   0.780   0.148   5.482
23339W        W24203   3.639  27.675   4.703
23340W        W24204   2.108  26.835   5.081
23341W        W24205   1.911  25.600   4.890
23342W        W24206   1.039  28.553   4.817
23343W        W24207   1.566  26.426   6.138
23344W        W24208   1.266  25.610   5.599
23345W        W24209   0.295  28.752   4.043
23346W        W24210   1.748  27.709   4.898
23347W        W24211   1.104  28.543   6.609
23348W        W24212   0.507  27.405   4.258
23349W        W24213   0.462  25.975   5.362
23350W        W24214   1.684  28.009   5.322
23351W        W24215   0.067  25.931   4.367
23352W        W24216   2.774  26.978   6.229
23353W        W24217   2.760  26.395   3.978
23354W        W24218   3.288  28.021   5.751
23355W        W24219   1.851  28.472   5.478
23356W        W24220   1.210  28.841   4.393
23357W        W24221   2.478  25.582   3.705
23358W        W24222   0.396  28.816   5.588
23359W        W24223   2.287  26.513   6.914
23360W        W24224   0.591  26.365   7.403
23361W        W24225   0.436  26.623   4.769
23362W        W24226   1.031  26.881   4.218
23363W        W24227   2.429  26.996   7.014
23364W        W24228   1.001  27.496   5.575
23365W        W24229   2.472  25.629   5.010
23366W        W24230   1.659  28.944   5.329
23367W        W24231   2.759  28.461   6.239
23368W        W24232   2.684  28.520   5.324
23369W        W24233   2.328  27.713   4.972
23370W        W24234   1.890  25.958   4.219
23371W        W24235   3.536  25.627   4.924
23372W        W24236   1.176  27.198   3.587
23373W        W24237   3.353  26.484   4.898
23374W        W24238   1.740  27.630   4.031
23375W        W24239   3.036  27.793   6.647
23376W        W24240   2.680  28.649   3.868
23377W        W24241   1.483  26.455   6.868
23378W        W24242   1.211  26.828   6.087
23379W        W24243   3.237  28.265   6.551
23380W        W24244   2.297  26.105   6.569
23381W        W24245   0.144  26.802   6.622
23382W        W24246   1.943  27.225   6.314
23383W        W24247   0.305  27.849   5.095
23384W        W24248   0.447  27.110   5.825
23385W        W24249   2.706  27.532   6.271
23386W        W24250   2.601  28.819   7.023
23387W        W24251   2.455  26.589   6.411
23388W        W24252   2.723  28.854   4.906
23389W        W24253   1.729  28.545   6.363
23390W        W24254   1.147  28.763   5.612
23391W        W24255   2.985  28.001   6.165
23392W        W24256   1.948  28.033   7.212
23393W        W24257   0.664  27.892   5.468
23394W        W24258   3.033  27.794   5.362
23395W        W24259   2.612  28.763   5.826
23396W        W24260   0.721  28.457   5.773
23397W        W24261   1.846  26.632   7.200
23398W        W24262   1.872  28.581   4.427
23399W        W24263   1.458  27.928   7.092
23400W        W24264   1.396  28.365   4.454
23401W        W24265   0.775  26.888   3.755
23402W        W24266   0.163   0.110  10.699
23403W        W24267   0.514  27.967  10.314
23404W        W24268   3.037  27.822   8.263
23405W        W24269   3.422  28.885  10.159
23406W        W24270   1.223  28.758   7.596
23407W        W24271   1.140  27.026   8.379
23408W        W24272   0.730  26.810   8.640
23409W        W24273   1.775  27.587   8.146
23410W        W24274   1.666  28.657  10.370
23411W        W24275   0.358  26.288  10.328
23412W        W24276   0.868  25.417  10.092
23413W        W24277   2.703  25.971   9.060
23414W        W24278   2.153  26.733   7.628
23415W        W24279   2.821  26.387  10.736
23416W        W24280   0.309  26.039   9.878
23417W        W24281   0.247  28.574  10.777
23418W        W24282   1.641  27.964   7.607
23419W        W24283   0.176  26.697   9.408
23420W        W24284   1.013  26.756  10.597
23421W        W24285   3.367  26.443   9.103
23422W        W24286   3.360  27.614   9.931
23423W        W24287   1.657  26.844   8.834
23424W        W24288   2.265  28.312   9.368
23425W        W24289   0.651  27.637   9.549
23426W        W24290   0.013  27.149   9.219
23427W        W24291   1.153  27.109  10.222
23428W        W24292   3.350  27.035  10.592
23429W        W24293   0.997  28.313   9.002
23430W        W24294   2.023  28.101  10.053
23431W        W24295   1.463  26.600   9.248
23432W        W24296   1.614  27.516   9.003
23433W        W24297   2.405  28.393  10.883
23434W        W24298   1.583  27.447  10.744
23435W        W24299   1.741  27.268  10.272
23436W        W24300   0.063  26.650  10.957
23437W        W24301   2.830  28.220  10.611
23438W        W24302   0.506  25.643   8.597
23439W        W24303   1.106  27.999   9.397
23440W        W24304   3.574  28.000   9.043
23441W        W24305   2.903  26.344   9.334
23442W        W24306   3.250  26.279   7.197
23443W        W24307   3.582  27.085   9.839
23444W        W24308   1.595  28.779   9.403
23445W        W24309   3.043  28.214   7.919
23446W        W24310   0.686   0.037   7.558
23447W        W24311   0.846  28.925   8.369
23448W        W24312   0.759  25.780   9.755
23449W        W24313   3.200  26.806  10.054
23450W        W24314   2.573  27.226   8.668
23451W        W24315   2.621  26.950   7.482
23452W        W24316   1.940  27.962   9.543
23453W        W24317   1.609  26.328   8.773
23454W        W24318   2.363  28.440   9.872
23455W        W24319   3.042  27.389   8.561
23456W        W24320   2.122  25.900   8.154
23457W        W24321   0.792  28.682   7.921
23458W        W24322   0.238  26.074   8.467
23459W        W24323   2.607  26.808   9.051
23460W        W24324   0.469  28.315   8.933
23461W        W24325   1.578  28.426   7.831
23462W        W24326   3.007  26.725   7.221
23463W        W24327   0.173  28.255   9.412
23464W        W24328   1.004  28.230   9.845
23465W        W24329   1.271  27.536   8.435
23466W        W24330   1.283  25.917   9.603
23467W        W24331   3.413  25.538   9.107
23468W        W24332   0.758  27.476   7.395
23469W        W24333   0.554  26.701   7.816
23470W        W24334   0.606  28.448   8.412
23471W        W24335   1.674  27.833   8.584
23472W        W24336   2.999  28.713  10.421
23473W        W24337   2.017  26.388   7.997
23474W        W24338   3.270  28.915   8.997
23475W        W24339   2.881  26.852  10.480
23476W        W24340   3.668  28.373   8.702
23477W        W24341   2.285  27.664  10.155
23478W        W24342   0.162  27.235   8.242
23479W        W24343   1.097  27.711   9.812
23480W        W24344   2.216  26.853   8.140
23481W        W24345   2.174  27.322   8.343
23482W        W24346   0.708  26.742   9.680
23483W        W24347   0.527  26.607  10.707
23484W        W24348   0.698  25.549   9.081
23485W        W24349   2.181  26.042   9.176
23486W        W24350   1.990  26.189  10.558
23487W        W24351   2.443  26.144   7.789
23488W        W24352   3.488  28.634  10.616
23489W        W24353   2.324  25.620  10.473
23490W        W24354   3.296  28.072  10.775
23491W        W24355   2.904  26.374  10.202
23492W        W24356   2.435  26.291   8.309
23493W        W24357   2.924  27.232  10.842
23494W        W24358   0.755  28.755   8.859
23495W        W24359   1.519  26.465   7.831
23496W        W24360   1.131  25.828  10.632
23497W        W24361   2.919  26.545   8.307
23498W        W24362   3.273  26.938   8.265
23499W        W24363   1.124  28.743  10.724
23500W        W24364   1.028  25.559   7.881
23501W        W24365   3.208  25.978   8.864
23502W        W24366   3.376  28.347   7.530
23503W        W24367   0.421  27.458   9.098
23504W        W24368   2.377  26.017   7.092
23505W        W24369   3.581  28.526   9.225
23506W        W24370   3.432  25.754   9.789
23507W        W24371   1.978  26.810  10.454
23508W        W24372   1.895  28.080   8.065
23509W        W24373   2.459  27.422  10.982
23510W        W24374   1.906  25.674   8.980
23511W        W24375   0.774  26.482   9.079
23512W        W24376   0.307  27.599   9.987
23513W        W24377   2.396  28.557   8.481
23514W        W24378   3.317  26.463   9.640
23515W        W24379   2.126  28.808  10.194
23516W        W24380   3.222  27.828   7.575
23517W        W24381   1.708  27.276   8.563
23518W        W24382   3.659  25.796  10.284
23519W        W24383   1.841  27.614   9.899
23520W        W24384   1.978  26.521   9.082
23521W        W24385   2.741  27.028   8.216
23522W        W24386   3.043  26.888   7.782
23523W        W24387   2.877  28.585   8.237
23524W        W24388   2.820  28.016   9.129
23525W        W24389   2.526  27.298   7.835
23526W        W24390   2.099  27.538   8.827
23527W        W24391   2.957  27.249   9.073
23528W        W24392   0.496  26.299   9.475
23529W        W24393   3.099  27.298  10.247
23530W        W24394   3.499  28.949   9.510
23531W        W24395   1.488  28.284   8.833
23532W        W24396   2.625  28.926  10.127
23533W        W24397   2.443  26.295   9.908
23534W        W24398   1.736  28.937   9.900
23535W        W24399   3.308  25.993   8.344
23536W        W24400   3.086  27.230   9.711
23537W        W24401   0.261  26.573   9.902
23538W        W24402   2.910  26.407   8.821
23539W        W24403   3.295  26.531  10.487
23540W        W24404   2.330  28.184   8.862
23541W        W24405   1.623  28.700   8.553
23542W        W24406   0.776  25.941   7.667
23543W        W24407   1.719  25.615   9.453
23544W        W24408   0.784  28.560   7.386
23545W        W24409   1.088  27.374   7.923
23546W        W24410   1.849  27.793  10.415
23547W        W24411   1.657  26.124   8.284
23548W        W24412   2.800  25.973   8.543
23549W        W24413   2.779   0.024   9.165
23550W        W24414   2.110  28.799   9.417
23551W        W24415   1.513  27.684   9.474
23552W        W24416   3.347  28.521   9.803
23553W        W24417   0.822  25.936   8.250
23554W        W24418   1.553  28.252   9.350
23555W        W24419   1.065  26.140   7.269
23556W        W24420   1.860  26.619   9.590
23557W        W24421   2.528  25.965   9.543
23558W        W24422   0.110  27.590   9.516
23559W        W24423   1.563  27.443   7.706
23560W        W24424   0.925  25.520   7.379
23561W        W24425   1.496  26.632   8.345
23562W        W24426   2.611  25.805  10.033
23563W        W24427   1.401  27.649  10.219
23564W        W24428   2.125  27.426  10.596
23565W        W24429   2.644  27.449  10.454
23566W        W24430   1.962  25.699  11.003
23567W        W24431   1.204  26.209   9.047
23568W        W24432   0.682  26.304   8.591
23569W        W24433   0.349  28.875   8.191
23570W        W24434   1.994  28.283  10.553
23571W        W24435   0.834  27.820   7.818
23572W        W24436   2.439  27.323   9.143
23573W        W24437   2.655  27.040   9.505
23574W        W24438   1.975  27.462   9.366
23575W        W24439   2.410  27.930   7.447
23576W        W24440   2.028  26.063   8.652
23577W        W24441   3.334  26.395   8.008
23578W        W24442   0.316  28.820  10.298
23579W        W24443   0.507  28.053   9.810
23580W        W24444  28.883  28.801   7.943
23581W        W24445   2.003  26.108   9.658
23582W        W24446   1.151  28.224   7.623
23583W        W24447   3.118  28.740   7.802
23584W        W24448   2.017  27.222   7.837
23585W        W24449   0.905  26.570   8.204
23586W        W24450   2.067  26.231   7.456
23587W        W24451   2.374  27.912  10.607
23588W        W24452   2.875  26.116   8.050
23589W        W24453   0.256  25.943   7.567
23590W        W24454   1.514  28.039   9.848
23591W        W24455   1.237  27.844   8.921
23592W        W24456   0.799  28.017   7.308
23593W        W24457   0.188  28.391   8.091
23594W        W24458   0.698  27.138  10.507
23595W        W24459   1.586  26.024  10.817
23596W        W24460   2.105  25.930  10.127
23597W        W24461   1.265  25.702   8.363
23598W        W24462   2.181  25.726   7.647
23599W        W24463   0.352  25.784   9.424
23600W        W24464   0.295  26.501   8.901
23601W        W24465   2.942  25.674   9.447
23602W        W24466   0.472  26.218   7.993
23603W        W24467   2.985  26.082   9.778
23604W        W24468   3.359  27.098   7.339
23605W        W24469   0.849  25.971   9.299
23606W        W24470   1.976  26.438  10.083
23607W        W24471   0.136  26.442   7.629
23608W        W24472   0.779  27.523  10.165
23609W        W24473   2.149  26.954   9.333
23610W        W24474   1.860  28.833   7.665
23611W        W24475   0.244  27.582   7.378
23612W        W24476   1.018  27.981  10.317
23613W        W24477   0.468  27.110  10.033
23614W        W24478   1.426  27.305   9.824
23615W        W24479   3.107  25.744  10.166
23616W        W24480   3.618  27.354  10.288
23617W        W24481   3.053  27.374   8.021
23618W        W24482   2.247  27.721   7.934
23619W        W24483   2.927   0.034   7.405
23620W        W24484   1.939  27.075  10.921
23621W        W24485   0.235  28.041  10.759
23622W        W24486   3.678  26.110  10.765
23623W        W24487   3.105  26.834   9.354
23624W        W24488   1.542   0.001  10.787
23625W        W24489   1.364  25.754   7.512
23626W        W24490   2.864  28.171   7.433
23627W        W24491   0.881  26.268  10.452
23628W        W24492   1.508  28.170  10.351
23629W        W24493   3.399  26.208  10.092
23630W        W24494   2.708   0.052   7.886
23631W        W24495   2.751  27.585   9.454
23632W        W24496   1.113  25.936  10.105
23633W        W24497   1.497  26.949  10.603
23634W        W24498   0.980  28.235   8.113
23635W        W24499   2.616  27.557   8.270
23636W        W24500   0.752  26.273   9.935
23637W        W24501   1.934  28.285   8.557
23638W        W24502   3.404  26.937   8.948
23639W        W24503   1.821  25.652  10.483
23640W        W24504   2.750  28.271   9.557
23641W        W24505   3.077  28.641   9.383
23642W        W24506   2.067  28.334   7.627
23643W        W24507   0.157  28.330  10.314
23644W        W24508   1.057  26.391   9.523
23645W        W24509   0.930  25.879   8.765
23646W        W24510   2.393  26.469   9.405
23647W        W24511   1.203  27.713   7.475
23648W        W24512   3.201  27.679   9.238
23649W        W24513   0.684  28.369  10.615
23650W        W24514   3.054   0.086   8.282
23651W        W24515   1.192  26.219   8.483
23652W        W24516   0.876  27.503   8.797
23653W        W24517   1.223   0.002   9.733
23654W        W24518   3.268   0.088  10.629
23655W        W24519   2.342  27.383   9.716
23656W        W24520   0.405  27.085   7.446
23657W        W24521   3.345  28.724   8.511
23658W        W24522   2.978  26.383   7.625
23659W        W24523   1.343  25.509  10.297
23660W        W24524   3.181  28.378   8.934
23661W        W24525   2.974  26.894   8.685
23662W        W24526   1.186  26.651   8.784
23663W        W24527   1.604  26.804  10.089
23664W        W24528   2.628  28.055  10.157
23665W        W24529   1.149  26.559  10.107
23666W        W24530   1.285  28.769   8.967
23667W        W24531   0.642  28.896  10.687
23668W        W24532   0.568  28.250   7.744
23669W        W24533   3.253  28.239   8.427
23670W        W24534   0.670  26.693  10.217
23671W        W24535   3.437  26.619   7.539
23672W        W24536   1.329  27.844   8.000
23673W        W24537   2.234  27.152  10.170
23674W        W24538   2.305  26.792   9.804
23675W        W24539   0.917  27.215   9.745
23676W        W24540   3.045  28.967   9.780
23677W        W24541   2.799  25.719  10.572
23678W        W24542   0.612  25.849  10.261
23679W        W24543   1.007  26.917   9.259
23680W        W24544   1.304  26.635   7.358
23681W        W24545   0.220  28.514   9.834
23682W        W24546   1.562  27.114   9.335
23683W        W24547   1.571  26.211   7.363
23684W        W24548   0.668  27.058   8.169
23685W        W24549   0.299   0.017   9.827
23686W        W24550   2.948  27.368   7.527
23687W        W24551   3.194  26.045  10.576
23688W        W24552   2.786  28.228   8.638
23689W        W24553   0.275  27.100  10.789
23690W        W24554   3.234  25.912   7.745
23691W        W24555   2.582  28.098   8.179
23692W        W24556   1.568  27.099   8.094
23693W        W24557   2.851  25.980   7.321
23694W        W24558   2.813  26.619   9.755
23695W        W24559   0.495  26.944   9.072
23696W        W24560   0.875  28.014   8.581
23697W        W24561   2.501  26.735   8.550
23698W        W24562   1.665  26.105   9.255
23699W        W24563   3.610  28.088   9.863
23700W        W24564   3.331  26.007   9.364
23701W        W24565   0.270  28.726   8.679
23702W        W24566   0.492  27.986   8.190
23703W        W24567   0.655  25.970  10.810
23704W        W24568   1.603  28.486  10.859
23705W        W24569   3.501  27.462   8.860
23706W        W24570   2.760  27.773   7.804
23707W        W24571   2.249   0.126   9.798
23708W        W24572   2.847  27.749  10.833
23709W        W24573   1.534  25.509   7.963
23710W        W24574   2.408  26.347   8.850
23711W        W24575   0.153  27.895   9.061
23712W        W24576   1.251  26.026   7.955
23713W        W24577   1.065  27.518  10.590
23714W        W24578   2.005  26.564   8.526
23715W        W24579   2.417  27.911   9.717
23716W        W24580   0.631  28.444  10.123
23717W        W24581   1.151  28.221  10.771
23718W        W24582   0.994  26.407   7.717
23719W        W24583   2.603  26.618   7.900
23720W        W24584   2.461  28.480  10.376
23721W        W24585   1.259  27.169   8.870
23722W        W24586   0.724  28.733   9.712
23723W        W24587   3.440  28.855   7.419
23724W        W24588   0.388  27.552  10.571
23725W        W24589   2.337  27.815   9.219
23726W        W24590   0.763  27.559   8.292
23727W        W24591   1.409  28.547   9.893
23728W        W24592   1.442  25.814   8.833
23729W        W24593   0.136  27.934   7.799
23730W        W24594   1.643  26.933   7.599
23731W        W24595   0.475  27.245   8.631
23732W        W24596   1.597  26.050  10.243
23733W        W24597   3.353  25.780   7.256
23734W        W24598   3.311  27.536  10.674
23735W        W24599   2.056  28.786  10.717
23736W        W24600   3.586  27.871  10.346
23737W        W24601   3.067  28.563  10.910
23738W        W24602   0.904   0.005   9.307
23739W        W24603   3.615  27.877   8.547
23740W        W24604   2.138  27.005   8.812
23741W        W24605   1.771  25.636   8.466
23742W        W24606   1.105  28.513   8.549
23743W        W24607   1.507  26.332   9.809
23744W        W24608   1.219  25.555   9.245
23745W        W24609   0.314  28.708   7.692
23746W        W24610   2.196  27.852   8.438
23747W        W24611   1.110  28.492  10.295
23748W        W24612   0.485  27.437   7.853
23749W        W24613   0.458  26.016   8.963
23750W        W24614   1.877  27.983   9.032
23751W        W24615   0.060  25.864   8.026
23752W        W24616   2.708  27.054  10.027
23753W        W24617   2.530  26.454   7.379
23754W        W24618   3.271  28.158   9.425
23755W        W24619   1.911  28.523   9.024
23756W        W24620   1.284  28.721   8.123
23757W        W24621   2.441  25.527   7.242
23758W        W24622   0.422  28.730   9.266
23759W        W24623   2.307  26.528  10.764
23760W        W24624   0.559  26.375  11.156
23761W        W24625   0.345  26.655   8.330
23762W        W24626   1.162  26.871   7.843
23763W        W24627   2.419  27.021  10.641
23764W        W24628   1.083  27.461   9.289
23765W        W24629   2.383  25.706   8.752
23766W        W24630   1.849   0.054   8.995
23767W        W24631   2.867  28.497   9.989
23768W        W24632   2.666  28.506   9.104
23769W        W24633   2.609  27.730   8.761
23770W        W24634   1.748  25.973   7.790
23771W        W24635   3.720  25.661   8.510
23772W        W24636   1.210  27.186   7.409
23773W        W24637   3.357  26.493   8.578
23774W        W24638   2.015  27.604   7.489
23775W        W24639   3.048  27.816  10.347
23776W        W24640   2.650  28.620   7.566
23777W        W24641   1.401  26.423  10.542
23778W        W24642   1.284  26.828   9.687
23779W        W24643   3.270  28.289  10.282
23780W        W24644   2.491  26.151  10.396
23781W        W24645   0.175  26.778  10.374
23782W        W24646   1.894  27.110   9.768
23783W        W24647   0.422  27.763   8.651
23784W        W24648   0.437  27.165   9.528
23785W        W24649   2.773  27.585   9.963
23786W        W24650   2.599  28.845  10.704
23787W        W24651   2.450  26.655  10.275
23788W        W24652   2.861  28.760   8.713
23789W        W24653   1.874  28.453   9.711
23790W        W24654   1.137  28.553   9.443
23791W        W24655   3.069  28.029   9.876
23792W        W24656   1.981  28.159  11.068
23793W        W24657   0.706  27.888   9.089
23794W        W24658   3.144  27.858   8.764
23795W        W24659   2.602  28.785   9.583
23796W        W24660   0.686  28.307   9.412
23797W        W24661   1.777  26.576  10.862
23798W        W24662   1.959  28.598   8.142
23799W        W24663   1.584  27.956  10.822
23800W        W24664   1.471  28.245   8.309
23801W        W24665   0.837  26.825   7.396
23802W        W24666   0.180   0.153  14.311
23803W        W24667   0.415  28.041  13.860
23804W        W24668   2.906  27.843  11.850
23805W        W24669   3.385  28.808  13.686
23806W        W24670   1.297  28.755  11.216
23807W        W24671   1.147  26.850  11.984
23808W        W24672   0.747  26.760  12.290
23809W        W24673   1.685  27.603  11.779
23810W        W24674   1.590  28.725  14.068
23811W        W24675   0.269  26.302  13.965
23812W        W24676   0.856  25.467  13.885
23813W        W24677   2.533  26.068  12.595
23814W        W24678   2.181  26.723  11.244
23815W        W24679   2.819  26.293  14.330
23816W        W24680   0.263  25.994  13.497
23817W        W24681   0.305  28.646  14.440
23818W        W24682   1.614  27.884  11.332
23819W        W24683   0.163  26.736  13.037
23820W        W24684   1.073  26.817  14.164
23821W        W24685   3.398  26.412  12.676
23822W        W24686   3.186  27.531  13.490
23823W        W24687   1.660  26.934  12.632
23824W        W24688   2.169  28.251  12.905
23825W        W24689   0.535  27.675  13.110
23826W        W24690  28.989  27.149  12.752
23827W        W24691   1.026  27.274  13.927
23828W        W24692   3.299  26.982  14.156
23829W        W24693   0.980  28.349  12.680
23830W        W24694   2.024  28.093  13.736
23831W        W24695   1.386  26.635  12.975
23832W        W24696   1.524  27.495  12.659
23833W        W24697   2.347  28.326  14.473
23834W        W24698   1.652  27.514  14.491
23835W        W24699   1.547  27.393  13.958
23836W        W24700   0.122  26.689  14.529
23837W        W24701   2.757  28.180  14.168
23838W        W24702   0.506  25.674  12.278
23839W        W24703   0.944  28.057  13.123
23840W        W24704   3.416  27.936  12.554
23841W        W24705   2.949  26.215  12.894
23842W        W24706   3.259  26.292  11.069
23843W        W24707   3.671  26.951  13.391
23844W        W24708   1.519  28.752  13.177
23845W        W24709   3.023  28.322  11.662
23846W        W24710   0.566   0.130  11.565
23847W        W24711   0.805  28.913  12.011
23848W        W24712   0.743  25.786  13.475
23849W        W24713   3.215  26.805  13.649
23850W        W24714   2.557  27.117  12.269
23851W        W24715   2.640  26.831  11.048
23852W        W24716   1.811  28.127  13.241
23853W        W24717   1.666  26.347  12.521
23854W        W24718   2.237  28.420  13.421
23855W        W24719   3.045  27.252  12.090
23856W        W24720   2.149  25.992  11.815
23857W        W24721   0.747  28.618  11.587
23858W        W24722   0.232  26.080  12.109
23859W        W24723   2.682  26.615  12.643
23860W        W24724   0.330  28.343  12.534
23861W        W24725   1.642  28.404  11.373
23862W        W24726   3.125  26.762  10.943
23863W        W24727   0.097  28.475  13.171
23864W        W24728   0.906  28.221  13.753
23865W        W24729   1.234  27.332  11.856
23866W        W24730   1.240  25.920  13.367
23867W        W24731   3.583  25.587  12.774
23868W        W24732   0.707  27.403  10.972
23869W        W24733   0.717  26.856  11.613
23870W        W24734   0.605  28.414  12.084
23871W        W24735   1.334  27.712  12.192
23872W        W24736   2.944  28.692  13.935
23873W        W24737   1.917  26.418  11.570
23874W        W24738   3.165  28.944  12.602
23875W        W24739   2.844  26.754  14.048
23876W        W24740   3.638  28.387  12.351
23877W        W24741   2.165  27.611  13.711
23878W        W24742   0.292  27.074  11.803
23879W        W24743   0.840  27.744  13.524
23880W        W24744   2.162  26.864  11.759
23881W        W24745   2.106  27.341  11.964
23882W        W24746   0.644  26.752  13.267
23883W        W24747   0.576  26.825  14.302
23884W        W24748   0.749  25.556  12.719
23885W        W24749   2.069  26.031  12.834
23886W        W24750   1.967  26.152  14.199
23887W        W24751   2.353  25.896  11.353
23888W        W24752   3.451  28.554  14.142
23889W        W24753   2.341  25.611  14.107
23890W        W24754   3.238  28.024  14.289
23891W        W24755   2.902  26.259  13.796
23892W        W24756   2.583  26.099  12.073
23893W        W24757   2.876  27.188  14.376
23894W        W24758   0.669  28.722  12.495
23895W        W24759   1.435  26.539  11.706
23896W        W24760   1.062  25.739  14.340
23897W        W24761   2.926  26.439  11.892
23898W        W24762   3.224  26.860  11.773
23899W        W24763   1.119  28.981  14.476
23900W        W24764   1.018  25.565  11.562
23901W        W24765   3.347  25.939  12.502
23902W        W24766   3.389  28.374  11.269
23903W        W24767   0.266  27.593  12.648
23904W        W24768   2.384  25.982  10.845
23905W        W24769   3.482  28.422  12.835
23906W        W24770   3.436  25.694  13.401
23907W        W24771   1.940  26.849  14.053
23908W        W24772   1.996  28.095  11.619
23909W        W24773   2.433  27.389  14.545
23910W        W24774   2.057  25.549  12.641
23911W        W24775   0.764  26.519  12.774
23912W        W24776   0.317  27.607  13.591
23913W        W24777   2.279  28.560  12.105
23914W        W24778   3.400  26.491  13.252
23915W        W24779   2.063  28.848  13.898
23916W        W24780   3.254  27.703  11.167
23917W        W24781   1.641  27.259  12.213
23918W        W24782   3.602  25.671  13.903
23919W        W24783   1.671  27.757  13.570
23920W        W24784   1.892  26.532  12.963
23921W        W24785   2.710  26.901  11.791
23922W        W24786   2.940  26.582  11.400
23923W        W24787   2.657  28.665  11.775
23924W        W24788   2.700  28.011  12.633
23925W        W24789   2.467  27.152  11.418
23926W        W24790   2.016  27.343  12.579
23927W        W24791   2.961  27.152  12.628
23928W        W24792   0.457  26.288  13.121
23929W        W24793   2.981  27.241  13.861
23930W        W24794   3.427  28.864  13.095
23931W        W24795   1.416  28.194  12.406
23932W        W24796   2.529  28.864  13.670
23933W        W24797   2.446  26.250  13.510
23934W        W24798   1.652   0.002  13.628
23935W        W24799   3.242  26.011  12.003
23936W        W24800   2.926  27.226  13.154
23937W        W24801   0.206  26.538  13.517
23938W        W24802   2.973  26.279  12.379
23939W        W24803   3.287  26.482  14.061
23940W        W24804   2.253  28.127  12.413
23941W        W24805   1.578  28.664  12.184
23942W        W24806   0.842  25.989  11.346
23943W        W24807   1.786  25.643  13.085
23944W        W24808   0.823  28.541  11.082
23945W        W24809   0.861  27.352  11.477
23946W        W24810   1.741  27.844  14.083
23947W        W24811   1.661  26.113  11.966
23948W        W24812   2.896  25.755  12.351
23949W        W24813   2.657  28.999  12.743
23950W        W24814   1.996  28.714  13.009
23951W        W24815   1.413  27.779  13.120
23952W        W24816   3.255  28.440  13.346
23953W        W24817   0.837  25.930  11.924
23954W        W24818   1.417  28.279  12.939
23955W        W24819   1.087  26.232  10.940
23956W        W24820   1.693  26.807  13.361
23957W        W24821   2.527  25.883  13.138
23958W        W24822   0.045  27.512  13.148
23959W        W24823   1.479  27.376  11.346
23960W        W24824   0.915  25.555  11.053
23961W        W24825   1.609  26.708  12.161
23962W        W24826   2.620  25.796  13.672
23963W        W24827   1.239  27.802  13.846
23964W        W24828   2.041  27.390  14.164
23965W        W24829   2.550  27.469  14.041
23966W        W24830   1.949  25.739  14.568
23967W        W24831   1.182  26.232  12.701
23968W        W24832   0.690  26.257  12.309
23969W        W24833   0.323  28.775  11.858
23970W        W24834   1.912  28.335  14.170
23971W        W24835   0.740  27.852  11.336
23972W        W24836   2.498  27.311  12.759
23973W        W24837   2.546  26.889  13.057
23974W        W24838   1.873  27.563  13.075
23975W        W24839   2.439  27.928  11.121
23976W        W24840   2.035  26.006  12.329
23977W        W24841   3.782  26.537  11.756
23978W        W24842   0.312  28.959  13.849
23979W        W24843   0.467  28.110  13.363
23980W        W24844  28.988  28.968  11.533
23981W        W24845   1.975  26.167  13.312
23982W        W24846   1.173  28.204  11.298
23983W        W24847   3.118  28.785  11.479
23984W        W24848   1.968  27.240  11.425
23985W        W24849   0.860  26.437  11.862
23986W        W24850   2.020  26.215  11.109
23987W        W24851   2.294  27.902  14.159
23988W        W24852   2.825  26.084  11.548
23989W        W24853   0.371  25.826  11.222
23990W        W24854   1.338  28.168  13.459
23991W        W24855   1.146  27.845  12.685
23992W        W24856   0.739  27.889  10.798
23993W        W24857   0.080  28.446  11.555
23994W        W24858   0.714  27.324  14.399
23995W        W24859   1.510  26.000  14.359
23996W        W24860   2.091  25.911  13.735
23997W        W24861   1.305  25.696  12.020
23998W        W24862   2.047  25.499  11.503
23999W        W24863   0.386  25.728  13.054
24000W        W24864   0.304  26.581  12.534
24001W        W24865   3.072  25.686  12.893
24002W        W24866   0.455  26.183  11.643
24003W        W24867   3.004  25.977  13.358
24004W        W24868   3.426  27.193  11.073
24005W        W24869   0.842  25.973  12.987
24006W        W24870   1.913  26.429  13.751
24007W        W24871   0.081  26.239  11.283
24008W        W24872   0.767  27.719  14.038
24009W        W24873   2.001  27.040  13.009
24010W        W24874   1.830  28.863  11.195
24011W        W24875   0.228  27.604  11.083
24012W        W24876   1.013  28.122  14.263
24013W        W24877   0.499  27.255  13.936
24014W        W24878   1.280  27.405  13.493
24015W        W24879   3.087  25.627  13.799
24016W        W24880   3.533  27.301  13.793
24017W        W24881   3.200  27.448  11.639
24018W        W24882   2.265  27.649  11.524
24019W        W24883   2.935   0.040  11.051
24020W        W24884   2.012  27.069  14.577
24021W        W24885   0.088  27.946  14.598
24022W        W24886   3.704  25.971  14.390
24023W        W24887   3.089  26.754  12.930
24024W        W24888   1.613  28.931  14.534
24025W        W24889   1.328  25.813  11.211
24026W        W24890   2.920  28.130  11.180
24027W        W24891   0.766  26.352  14.143
24028W        W24892   1.424  28.258  13.974
24029W        W24893   3.407  26.154  13.667
24030W        W24894   2.682   0.092  11.495
24031W        W24895   2.714  27.696  13.048
24032W        W24896   1.037  25.988  13.866
24033W        W24897   1.544  27.023  14.322
24034W        W24898   0.952  28.179  11.768
24035W        W24899   2.618  27.415  11.841
24036W        W24900   0.666  26.290  13.615
24037W        W24901   1.853  28.227  12.127
24038W        W24902   3.396  26.886  12.508
24039W        W24903   1.835  25.641  14.075
24040W        W24904   2.627  28.221  13.102
24041W        W24905   2.970  28.620  12.961
24042W        W24906   2.195  28.528  11.361
24043W        W24907   0.070  28.251  14.178
24044W        W24908   1.012  26.387  13.232
24045W        W24909   1.001  25.864  12.408
24046W        W24910   2.415  26.380  13.016
24047W        W24911   1.175  27.716  11.059
24048W        W24912   3.238  27.621  12.961
24049W        W24913   0.518  28.155  14.370
24050W        W24914   2.996   0.068  11.915
24051W        W24915   1.230  26.281  12.177
24052W        W24916   0.769  27.563  12.416
24053W        W24917   1.195   0.098  13.402
24054W        W24918   3.220   0.011  14.219
24055W        W24919   2.316  27.351  13.248
24056W        W24920   0.395  27.157  11.302
24057W        W24921   3.274  28.697  12.144
24058W        W24922   3.341  26.318  11.605
24059W        W24923   1.345  25.575  13.943
24060W        W24924   3.065  28.396  12.516
24061W        W24925   2.969  26.787  12.256
24062W        W24926   1.212  26.699  12.493
24063W        W24927   1.454  26.912  13.807
24064W        W24928   2.532  28.003  13.717
24065W        W24929   1.116  26.501  13.747
24066W        W24930   1.329  28.725  12.661
24067W        W24931   0.663  28.976  14.250
24068W        W24932   0.414  28.240  11.203
24069W        W24933   3.241  28.166  12.100
24070W        W24934   0.677  26.791  13.784
24071W        W24935   3.459  26.730  11.329
24072W        W24936   1.189  27.752  11.581
24073W        W24937   2.252  27.113  13.724
24074W        W24938   2.195  26.697  13.381
24075W        W24939   0.756  27.237  13.464
24076W        W24940   2.966  28.914  13.380
24077W        W24941   2.811  25.740  14.255
24078W        W24942   0.525  25.853  13.966
24079W        W24943   0.977  26.981  12.883
24080W        W24944   1.291  26.697  11.009
24081W        W24945   0.127  28.461  13.682
24082W        W24946   1.473  27.179  13.066
24083W        W24947   1.512  26.309  11.247
24084W        W24948   0.757  27.196  12.013
24085W        W24949   0.287  28.950  13.337
24086W        W24950   2.982  27.092  11.347
24087W        W24951   3.247  25.982  14.141
24088W        W24952   2.716  28.258  12.138
24089W        W24953   0.204  27.184  14.374
24090W        W24954   3.275  25.821  11.504
24091W        W24955   2.534  28.166  11.581
24092W        W24956   1.645  27.033  11.764
24093W        W24957   2.858  25.948  11.042
24094W        W24958   2.860  26.503  13.324
24095W        W24959   0.483  27.127  12.517
24096W        W24960   0.930  28.046  12.265
24097W        W24961   2.502  26.607  12.160
24098W        W24962   1.572  26.101  12.984
24099W        W24963   3.437  27.966  13.353
24100W        W24964   3.445  26.029  13.018
24101W        W24965   0.157  28.796  12.334
24102W        W24966   0.432  28.086  11.717
24103W        W24967   0.602  25.939  14.479
24104W        W24968   1.778  28.415  14.662
24105W        W24969   3.391  27.396  12.501
24106W        W24970   2.777  27.607  11.364
24107W        W24971   2.117   0.012  13.401
24108W        W24972   2.832  27.707  14.420
24109W        W24973   1.530  25.494  11.598
24110W        W24974   2.186  26.467  12.550
24111W        W24975   0.162  28.019  12.933
24112W        W24976   1.254  26.064  11.652
24113W        W24977   1.178  27.602  14.316
24114W        W24978   2.038  26.445  12.058
24115W        W24979   2.270  27.884  13.288
24116W        W24980   0.536  28.521  14.001
24117W        W24981   1.327  28.493  14.454
24118W        W24982   1.020  26.477  11.386
24119W        W24983   2.438  26.429  11.673
24120W        W24984   2.376  28.441  13.943
24121W        W24985   1.150  27.206  12.387
24122W        W24986   0.619  28.584  13.488
24123W        W24987   3.445  28.888  11.087
24124W        W24988   0.304  27.667  14.226
24125W        W24989   2.256  27.761  12.787
24126W        W24990   0.791  27.699  11.906
24127W        W24991   1.251  28.648  13.638
24128W        W24992   1.541  25.830  12.486
24129W        W24993   0.002  27.935  11.431
24130W        W24994   1.681  26.816  11.310
24131W        W24995   0.327  27.450  12.138
24132W        W24996   1.577  26.023  13.820
24133W        W24997   3.350  25.794  11.000
24134W        W24998   3.271  27.490  14.221
24135W        W24999   2.079  28.774  14.416
24136W        W25000   3.475  27.823  13.863
24137W        W25001   3.032  28.538  14.432
24138W        W25002   0.781  28.988  12.940
24139W        W25003   3.351  27.671  12.084
24140W        W25004   2.070  26.917  12.282
24141W        W25005   1.830  25.624  12.027
24142W        W25006   1.086  28.545  12.211
24143W        W25007   1.496  26.356  13.430
24144W        W25008   1.254  25.648  12.905
24145W        W25009   0.377  28.773  11.236
24146W        W25010   1.873  27.730  12.268
24147W        W25011   1.024  28.633  14.084
24148W        W25012   0.391  27.577  11.612
24149W        W25013   0.381  26.045  12.650
24150W        W25014   1.767  27.955  12.729
24151W        W25015   0.037  25.852  11.638
24152W        W25016   2.700  26.942  13.552
24153W        W25017   2.542  26.341  11.180
24154W        W25018   3.103  28.108  12.954
24155W        W25019   1.813  28.471  12.598
24156W        W25020   1.282  28.590  11.726
24157W        W25021   2.455  25.506  11.003
24158W        W25022   0.286  28.833  12.830
24159W        W25023   2.300  26.521  14.363
24160W        W25024   0.569  26.421  14.647
24161W        W25025   0.365  26.589  11.985
24162W        W25026   1.203  26.957  11.465
24163W        W25027   2.409  27.005  14.205
24164W        W25028   1.004  27.475  13.046
24165W        W25029   2.395  25.643  12.252
24166W        W25030   1.741   0.050  12.623
24167W        W25031   2.762  28.440  13.532
24168W        W25032   2.557  28.495  12.661
24169W        W25033   2.417  27.623  12.311
24170W        W25034   1.768  25.930  11.471
24171W        W25035   3.635  25.640  12.195
24172W        W25036   1.179  27.188  10.969
24173W        W25037   3.382  26.510  12.128
24174W        W25038   1.977  27.628  11.056
24175W        W25039   2.959  27.767  13.911
24176W        W25040   2.690  28.609  11.257
24177W        W25041   1.499  26.473  14.101
24178W        W25042   1.150  26.887  13.382
24179W        W25043   3.161  28.240  13.818
24180W        W25044   2.450  26.142  14.011
24181W        W25045   0.178  26.818  13.979
24182W        W25046   1.810  27.272  13.504
24183W        W25047   0.426  27.937  12.226
24184W        W25048   0.461  27.177  13.026
24185W        W25049   2.674  27.526  13.546
24186W        W25050   2.579  28.802  14.280
24187W        W25051   2.387  26.626  13.855
24188W        W25052   2.762  28.770  12.280
24189W        W25053   1.749  28.501  13.611
24190W        W25054   1.038  28.579  13.163
24191W        W25055   2.941  27.971  13.424
24192W        W25056   1.962  27.950  14.534
24193W        W25057   0.635  27.970  12.707
24194W        W25058   2.945  27.639  12.408
24195W        W25059   2.505  28.738  13.147
24196W        W25060   0.576  28.435  12.978
24197W        W25061   1.797  26.600  14.494
24198W        W25062   1.884  28.591  11.772
24199W        W25063   1.456  28.005  14.497
24200W        W25064   1.478  28.113  11.802
24201W        W25065   0.785  26.868  11.087
24202W        W25066   0.147   0.147  18.008
24203W        W25067   0.585  27.995  17.538
24204W        W25068   3.129  27.692  15.580
24205W        W25069   3.391  28.764  17.339
24206W        W25070   1.250  28.729  14.895
24207W        W25071   1.124  27.021  15.642
24208W        W25072   0.637  26.890  15.803
24209W        W25073   1.761  27.547  15.360
24210W        W25074   1.570  28.700  17.702
24211W        W25075   0.366  26.309  17.609
24212W        W25076   0.848  25.459  17.401
24213W        W25077   2.550  25.949  16.243
24214W        W25078   2.157  26.681  14.902
24215W        W25079   2.805  26.299  17.940
24216W        W25080   0.369  25.982  17.199
24217W        W25081   0.259  28.611  18.109
24218W        W25082   1.673  27.869  14.956
24219W        W25083   0.232  26.688  16.654
24220W        W25084   1.098  26.759  17.871
24221W        W25085   3.271  26.541  16.359
24222W        W25086   3.332  27.569  17.232
24223W        W25087   1.770  27.032  16.293
24224W        W25088   2.223  28.279  16.563
24225W        W25089   0.573  27.740  16.779
24226W        W25090  28.972  27.114  16.459
24227W        W25091   1.173  27.152  17.535
24228W        W25092   3.312  26.976  17.944
24229W        W25093   0.948  28.308  16.288
24230W        W25094   2.066  28.098  17.383
24231W        W25095   1.423  26.699  16.490
24232W        W25096   1.663  27.530  16.266
24233W        W25097   2.409  28.383  18.098
24234W        W25098   1.715  27.525  18.134
24235W        W25099   1.659  27.324  17.606
24236W        W25100   0.216  26.668  18.224
24237W        W25101   2.797  28.192  17.774
24238W        W25102   0.492  25.726  15.879
24239W        W25103   1.022  27.991  16.697
24240W        W25104   3.565  27.979  16.299
24241W        W25105   2.901  26.195  16.542
24242W        W25106   3.276  26.281  14.559
24243W        W25107   3.509  27.090  17.126
24244W        W25108   1.520  28.784  16.775
24245W        W25109   3.170  28.247  15.108
24246W        W25110   0.694   0.008  14.781
24247W        W25111   0.797  28.886  15.638
24248W        W25112   0.799  25.788  17.007
24249W        W25113   3.223  26.672  17.289
24250W        W25114   2.547  27.151  15.861
24251W        W25115   2.564  26.881  14.676
24252W        W25116   1.838  28.191  16.901
24253W        W25117   1.677  26.354  16.077
24254W        W25118   2.314  28.395  17.069
24255W        W25119   2.980  27.388  15.979
24256W        W25120   2.144  25.924  15.466
24257W        W25121   0.792  28.626  15.103
24258W        W25122   0.146  26.097  15.856
24259W        W25123   2.608  26.821  16.243
24260W        W25124   0.384  28.297  16.222
24261W        W25125   1.512  28.332  15.110
24262W        W25126   3.049  26.732  14.540
24263W        W25127   0.117  28.392  16.723
24264W        W25128   0.873  28.258  17.145
24265W        W25129   1.251  27.511  15.782
24266W        W25130   1.293  25.979  16.932
24267W        W25131   3.526  25.640  16.248
24268W        W25132   0.787  27.365  14.913
24269W        W25133   0.508  26.596  15.148
24270W        W25134   0.665  28.337  15.805
24271W        W25135   1.602  27.860  15.860
24272W        W25136   2.946  28.681  17.610
24273W        W25137   1.887  26.367  15.218
24274W        W25138   3.210  28.943  16.208
24275W        W25139   2.875  26.788  17.718
24276W        W25140   3.691  28.321  15.918
24277W        W25141   2.228  27.607  17.389
24278W        W25142   0.216  27.042  15.418
24279W        W25143   0.958  27.739  17.132
24280W        W25144   2.205  26.808  15.408
24281W        W25145   2.188  27.300  15.539
24282W        W25146   0.680  26.758  16.907
24283W        W25147   0.582  26.723  17.855
24284W        W25148   0.718  25.582  16.352
24285W        W25149   2.144  26.084  16.541
24286W        W25150   1.971  26.095  17.873
24287W        W25151   2.349  25.913  14.989
24288W        W25152   3.420  28.569  17.844
24289W        W25153   2.299  25.627  17.716
24290W        W25154   3.241  28.061  17.986
24291W        W25155   2.882  26.296  17.435
24292W        W25156   2.509  26.135  15.753
24293W        W25157   2.888  27.214  18.112
24294W        W25158   0.761  28.763  16.151
24295W        W25159   1.424  26.560  15.390
24296W        W25160   1.088  25.854  17.915
24297W        W25161   2.924  26.407  15.516
24298W        W25162   3.229  26.810  15.387
24299W        W25163   1.048  28.957  18.089
24300W        W25164   1.083  25.611  15.232
24301W        W25165   3.249  26.059  16.125
24302W        W25166   3.470  28.303  14.651
24303W        W25167   0.332  27.488  16.317
24304W        W25168   2.402  25.977  14.476
24305W        W25169   3.536  28.443  16.526
24306W        W25170   3.459  25.721  17.071
24307W        W25171   1.980  26.906  17.716
24308W        W25172   1.860  28.049  15.419
24309W        W25173   2.440  27.401  18.295
24310W        W25174   2.044  25.628  16.321
24311W        W25175   0.720  26.510  16.381
24312W        W25176   0.436  27.572  17.246
24313W        W25177   2.383  28.521  15.780
24314W        W25178   3.373  26.354  16.853
24315W        W25179   2.109  28.876  17.575
24316W        W25180   3.267  27.808  14.776
24317W        W25181   1.737  27.299  15.822
24318W        W25182   3.612  25.716  17.559
24319W        W25183   1.770  27.727  17.163
24320W        W25184   1.954  26.581  16.450
24321W        W25185   2.726  26.964  15.396
24322W        W25186   2.887  26.630  15.036
24323W        W25187   2.854  28.531  15.440
24324W        W25188   2.714  27.931  16.336
24325W        W25189   2.460  27.257  15.049
24326W        W25190   2.150  27.360  16.124
24327W        W25191   3.041  27.062  16.369
24328W        W25192   0.507  26.249  16.771
24329W        W25193   3.083  27.240  17.555
24330W        W25194   3.428  28.863  16.788
24331W        W25195   1.425  28.256  16.125
24332W        W25196   2.543  28.842  17.284
24333W        W25197   2.451  26.228  17.101
24334W        W25198   1.647   0.036  17.266
24335W        W25199   3.256  25.987  15.559
24336W        W25200   3.056  27.307  16.890
24337W        W25201   0.270  26.510  17.146
24338W        W25202   2.852  26.381  16.057
24339W        W25203   3.273  26.463  17.754
24340W        W25204   2.296  28.094  16.090
24341W        W25205   1.587  28.754  15.891
24342W        W25206   0.707  26.044  14.999
24343W        W25207   1.731  25.707  16.724
24344W        W25208   0.809  28.549  14.561
24345W        W25209   1.141  27.406  15.286
24346W        W25210   1.827  27.789  17.693
24347W        W25211   1.688  26.071  15.629
24348W        W25212   2.880  25.799  15.856
24349W        W25213   2.670  28.956  16.330
24350W        W25214   2.020  28.705  16.783
24351W        W25215   1.485  27.740  16.715
24352W        W25216   3.260  28.411  16.974
24353W        W25217   0.878  25.986  15.525
24354W        W25218   1.419  28.283  16.630
24355W        W25219   1.054  26.196  14.572
24356W        W25220   1.782  26.886  16.831
24357W        W25221   2.581  25.803  16.754
24358W        W25222   0.112  27.501  16.818
24359W        W25223   1.540  27.305  14.946
24360W        W25224   0.814  25.573  14.808
24361W        W25225   1.563  26.798  15.855
24362W        W25226   2.598  25.779  17.290
24363W        W25227   1.349  27.722  17.493
24364W        W25228   2.127  27.398  17.855
24365W        W25229   2.622  27.453  17.737
24366W        W25230   2.030  25.706  18.219
24367W        W25231   1.212  26.275  16.290
24368W        W25232   0.662  26.316  15.884
24369W        W25233   0.407  28.600  15.444
24370W        W25234   1.975  28.389  17.793
24371W        W25235   0.838  27.831  15.146
24372W        W25236   2.610  27.355  16.371
24373W        W25237   2.692  26.968  16.731
24374W        W25238   1.906  27.417  16.708
24375W        W25239   2.430  27.870  14.722
24376W        W25240   2.056  26.015  16.007
24377W        W25241   3.541  26.386  15.367
24378W        W25242   0.157  28.804  17.643
24379W        W25243   0.365  28.091  17.094
24380W        W25244  28.998  28.930  15.271
24381W        W25245   2.000  26.395  16.934
24382W        W25246   1.076  28.196  14.839
24383W        W25247   3.126  28.759  15.057
24384W        W25248   1.979  27.126  15.101
24385W        W25249   0.901  26.564  15.498
24386W        W25250   2.033  26.222  14.726
24387W        W25251   2.351  27.915  17.807
24388W        W25252   2.760  25.955  15.329
24389W        W25253   0.302  25.712  14.846
24390W        W25254   1.359  28.065  17.097
24391W        W25255   1.217  27.776  16.260
24392W        W25256   0.769  27.795  14.612
24393W        W25257  28.985  28.401  15.253
24394W        W25258   0.822  27.193  17.942
24395W        W25259   1.559  25.876  18.137
24396W        W25260   2.044  25.923  17.353
24397W        W25261   1.315  25.731  15.714
24398W        W25262   2.125  25.481  15.179
24399W        W25263   0.377  25.736  16.707
24400W        W25264   0.249  26.509  16.161
24401W        W25265   2.983  25.659  16.346
24402W        W25266   0.409  26.145  15.417
24403W        W25267   2.994  26.008  17.023
24404W        W25268   3.400  27.127  14.637
24405W        W25269   0.899  25.998  16.561
24406W        W25270   1.949  26.436  17.467
24407W        W25271   0.186  26.221  14.949
24408W        W25272   0.854  27.560  17.590
24409W        W25273   2.220  27.022  16.533
24410W        W25274   1.767  28.799  15.002
24411W        W25275   0.324  27.537  14.753
24412W        W25276   1.065  28.125  17.632
24413W        W25277   0.527  27.157  17.538
24414W        W25278   1.388  27.372  17.115
24415W        W25279   3.079  25.624  17.392
24416W        W25280   3.597  27.330  17.592
24417W        W25281   3.284  27.426  15.167
24418W        W25282   2.278  27.738  15.250
24419W        W25283   2.917  28.987  14.642
24420W        W25284   2.004  27.082  18.259
24421W        W25285   0.315  28.081  18.179
24422W        W25286   3.673  26.041  18.000
24423W        W25287   3.205  26.832  16.795
24424W        W25288   1.545  28.935  18.167
24425W        W25289   1.333  25.782  14.809
24426W        W25290   2.870  28.136  14.698
24427W        W25291   0.860  26.292  17.763
24428W        W25292   1.568  28.208  17.537
24429W        W25293   3.385  26.161  17.334
24430W        W25294   2.693   0.027  15.134
24431W        W25295   2.700  27.691  16.781
24432W        W25296   1.066  25.943  17.412
24433W        W25297   1.529  27.028  17.998
24434W        W25298   1.000  28.271  15.390
24435W        W25299   2.684  27.475  15.465
24436W        W25300   0.772  26.309  17.213
24437W        W25301   1.893  28.327  15.904
24438W        W25302   3.455  26.966  16.103
24439W        W25303   1.798  25.599  17.768
24440W        W25304   2.690  28.212  16.767
24441W        W25305   3.021  28.623  16.574
24442W        W25306   2.107  28.184  14.985
24443W        W25307   0.191  28.282  17.698
24444W        W25308   1.053  26.435  16.772
24445W        W25309   0.957  25.903  16.040
24446W        W25310   2.445  26.506  16.642
24447W        W25311   1.216  27.677  14.832
24448W        W25312   3.077  27.575  16.458
24449W        W25313   0.681  28.349  17.920
24450W        W25314   3.052   0.026  15.543
24451W        W25315   1.235  26.267  15.776
24452W        W25316   0.818  27.365  16.125
24453W        W25317   1.150   0.032  17.036
24454W        W25318   3.187   0.025  17.903
24455W        W25319   2.366  27.335  16.933
24456W        W25320   0.346  27.055  14.900
24457W        W25321   3.358  28.678  15.755
24458W        W25322   3.161  26.198  15.073
24459W        W25323   1.327  25.532  17.589
24460W        W25324   3.190  28.382  16.142
24461W        W25325   2.991  26.872  15.865
24462W        W25326   1.063  26.693  16.036
24463W        W25327   1.584  26.861  17.355
24464W        W25328   2.581  27.980  17.336
24465W        W25329   1.249  26.448  17.455
24466W        W25330   1.273  28.738  16.319
24467W        W25331   0.611  28.886  17.856
24468W        W25332   0.510  28.196  14.900
24469W        W25333   3.230  28.195  15.640
24470W        W25334   0.843  26.776  17.404
24471W        W25335   3.418  26.646  14.913
24472W        W25336   1.339  27.870  15.364
24473W        W25337   2.368  27.127  17.440
24474W        W25338   2.280  26.823  17.027
24475W        W25339   0.840  27.238  17.128
24476W        W25340   2.982  28.870  17.035
24477W        W25341   2.791  25.651  17.831
24478W        W25342   0.593  25.836  17.667
24479W        W25343   0.962  26.962  16.504
24480W        W25344   1.274  26.673  14.612
24481W        W25345   0.119  28.523  17.214
24482W        W25346   1.430  27.210  16.632
24483W        W25347   1.523  26.275  14.828
24484W        W25348   0.719  27.052  15.311
24485W        W25349   0.260   0.050  17.207
24486W        W25350   2.951  27.126  14.909
24487W        W25351   3.195  25.960  17.780
24488W        W25352   2.763  28.177  15.857
24489W        W25353   0.294  27.140  18.015
24490W        W25354   3.160  25.686  15.127
24491W        W25355   2.769  27.999  15.357
24492W        W25356   1.575  27.060  15.403
24493W        W25357   2.832  25.931  14.770
24494W        W25358   2.852  26.510  16.961
24495W        W25359   0.461  26.976  16.269
24496W        W25360   1.071  28.011  15.831
24497W        W25361   2.537  26.646  15.750
24498W        W25362   1.628  26.199  16.582
24499W        W25363   3.575  28.037  17.126
24500W        W25364   3.328  25.906  16.626
24501W        W25365   0.305  28.748  15.926
24502W        W25366   0.456  28.047  15.418
24503W        W25367   0.658  25.871  18.197
24504W        W25368   1.670  28.431  18.199
24505W        W25369   3.461  27.474  16.144
24506W        W25370   2.816  27.635  14.971
24507W        W25371   2.141   0.098  17.096
24508W        W25372   2.810  27.760  18.082
24509W        W25373   1.603  25.542  15.345
24510W        W25374   2.327  26.411  16.153
24511W        W25375   0.177  27.932  16.513
24512W        W25376   1.331  26.060  15.263
24513W        W25377   1.245  27.481  17.938
24514W        W25378   2.062  26.418  15.700
24515W        W25379   2.248  27.878  16.946
24516W        W25380   0.568  28.535  17.454
24517W        W25381   1.169  28.438  18.098
24518W        W25382   1.040  26.442  15.022
24519W        W25383   2.426  26.360  15.287
24520W        W25384   2.421  28.446  17.571
24521W        W25385   1.295  27.151  16.140
24522W        W25386   0.568  28.711  16.969
24523W        W25387   3.438  28.816  14.649
24524W        W25388   0.360  27.604  17.790
24525W        W25389   2.254  27.730  16.461
24526W        W25390   0.773  27.627  15.632
24527W        W25391   1.327  28.573  17.221
24528W        W25392   1.538  25.849  16.180
24529W        W25393   0.056  27.886  15.116
24530W        W25394   1.646  26.770  14.958
24531W        W25395   0.371  27.335  15.818
24532W        W25396   1.555  26.017  17.569
24533W        W25397   3.324  25.791  14.664
24534W        W25398   3.275  27.523  17.956
24535W        W25399   2.051  28.810  18.096
24536W        W25400   3.545  27.859  17.606
24537W        W25401   2.967  28.533  18.117
24538W        W25402   0.832   0.034  16.603
24539W        W25403   3.577  27.829  15.806
24540W        W25404   2.113  26.867  15.954
24541W        W25405   1.847  25.596  15.817
24542W        W25406   1.116  28.560  15.854
24543W        W25407   1.505  26.471  17.008
24544W        W25408   1.236  25.594  16.561
24545W        W25409   0.301  28.690  14.940
24546W        W25410   2.081  27.740  15.769
24547W        W25411   1.033  28.642  17.645
24548W        W25412   0.422  27.511  15.273
24549W        W25413   0.459  26.048  16.288
24550W        W25414   1.816  28.007  16.368
24551W        W25415   0.008  25.850  15.271
24552W        W25416   2.799  26.959  17.224
24553W        W25417   2.548  26.359  14.782
24554W        W25418   3.147  28.087  16.576
24555W        W25419   1.778  28.520  16.373
24556W        W25420   1.302  28.723  15.403
24557W        W25421   2.408  25.494  14.650
24558W        W25422   0.392  28.749  16.490
24559W        W25423   2.314  26.495  17.991
24560W        W25424   0.680  26.377  18.257
24561W        W25425   0.263  26.582  15.641
24562W        W25426   1.178  26.933  15.098
24563W        W25427   2.448  26.994  17.935
24564W        W25428   0.998  27.477  16.645
24565W        W25429   2.378  25.628  15.874
24566W        W25430   1.766   0.019  16.330
24567W        W25431   2.811  28.411  17.212
24568W        W25432   2.641  28.436  16.292
24569W        W25433   2.560  27.672  15.930
24570W        W25434   1.807  25.888  15.045
24571W        W25435   3.636  25.592  15.745
24572W        W25436   1.167  27.186  14.617
24573W        W25437   3.323  26.483  15.833
24574W        W25438   2.040  27.541  14.835
24575W        W25439   3.017  27.775  17.584
24576W        W25440   2.643  28.595  14.819
24577W        W25441   1.357  26.315  17.967
24578W        W25442   1.200  26.891  16.988
24579W        W25443   3.229  28.251  17.475
24580W        W25444   2.425  26.135  17.618
24581W        W25445   0.167  26.792  17.568
24582W        W25446   1.928  27.222  17.189
24583W        W25447   0.377  27.846  15.909
24584W        W25448   0.546  27.224  16.705
24585W        W25449   2.742  27.492  17.248
24586W        W25450   2.563  28.853  17.906
24587W        W25451   2.449  26.623  17.480
24588W        W25452   2.856  28.712  15.916
24589W        W25453   1.853  28.560  17.266
24590W        W25454   1.027  28.578  16.760
24591W        W25455   3.038  27.950  17.075
24592W        W25456   1.958  27.997  18.133
24593W        W25457   0.702  27.860  16.299
24594W        W25458   3.130  27.880  16.053
24595W        W25459   2.544  28.724  16.762
24596W        W25460   0.606  28.273  16.678
24597W        W25461   1.805  26.582  18.096
24598W        W25462   1.863  28.576  15.449
24599W        W25463   1.427  27.974  17.989
24600W        W25464   1.467  28.294  15.621
24601W        W25465   0.799  26.858  14.770
24602W        W25466   0.115   0.110  21.583
24603W        W25467   0.523  28.028  21.148
24604W        W25468   3.097  27.775  19.025
24605W        W25469   3.420  28.787  20.928
24606W        W25470   1.209  28.769  18.538
24607W        W25471   1.243  26.821  19.342
24608W        W25472   0.762  26.663  19.504
24609W        W25473   1.685  27.509  19.086
24610W        W25474   1.587  28.722  21.363
24611W        W25475   0.337  26.338  21.276
24612W        W25476   0.814  25.431  21.007
24613W        W25477   2.549  25.881  19.882
24614W        W25478   2.018  26.658  18.582
24615W        W25479   2.715  26.416  21.569
24616W        W25480   0.212  26.063  20.830
24617W        W25481   0.251  28.631  21.738
24618W        W25482   1.595  27.926  18.477
24619W        W25483   0.297  26.684  20.246
24620W        W25484   1.143  26.816  21.506
24621W        W25485   3.217  26.484  19.972
24622W        W25486   3.341  27.612  20.846
24623W        W25487   1.623  26.739  19.723
24624W        W25488   2.292  28.282  20.179
24625W        W25489   0.724  27.610  20.450
24626W        W25490   0.101  27.138  20.113
24627W        W25491   1.181  27.221  21.149
24628W        W25492   3.310  27.026  21.528
24629W        W25493   0.997  28.378  19.971
24630W        W25494   2.065  28.082  20.979
24631W        W25495   1.406  26.522  20.219
24632W        W25496   1.555  27.492  19.904
24633W        W25497   2.340  28.393  21.716
24634W        W25498   1.750  27.554  21.784
24635W        W25499   1.679  27.356  21.183
24636W        W25500   0.247  26.675  21.872
24637W        W25501   2.800  28.256  21.441
24638W        W25502   0.500  25.501  19.408
24639W        W25503   1.040  28.056  20.420
24640W        W25504   3.630  27.960  19.926
24641W        W25505   2.792  26.236  20.187
24642W        W25506   3.230  26.240  18.225
24643W        W25507   3.423  27.108  20.784
24644W        W25508   1.493  28.822  20.398
24645W        W25509   3.185  28.348  18.824
24646W        W25510   0.657   0.043  18.657
24647W        W25511   0.813  28.967  19.298
24648W        W25512   0.731  25.833  20.672
24649W        W25513   3.202  26.659  20.897
24650W        W25514   2.588  27.103  19.608
24651W        W25515   2.467  26.858  18.431
24652W        W25516   1.897  28.121  20.466
24653W        W25517   1.654  26.231  19.788
24654W        W25518   2.265  28.455  20.705
24655W        W25519   3.053  27.336  19.520
24656W        W25520   1.724  25.926  19.292
24657W        W25521   0.852  28.638  18.904
24658W        W25522   0.295  26.004  19.513
24659W        W25523   2.712  26.696  19.935
24660W        W25524   0.453  28.338  19.873
24661W        W25525   1.517  28.380  18.688
24662W        W25526   2.959  26.705  18.237
24663W        W25527   0.175  28.357  20.414
24664W        W25528   0.984  28.105  20.937
24665W        W25529   1.231  27.361  19.326
24666W        W25530   1.271  25.856  20.533
24667W        W25531   3.456  25.578  20.110
24668W        W25532   0.708  27.416  18.387
24669W        W25533   0.450  26.637  18.717
24670W        W25534   0.552  28.423  19.357
24671W        W25535   1.402  27.820  19.470
24672W        W25536   2.969  28.714  21.198
24673W        W25537   1.850  26.321  18.933
24674W        W25538   3.074  28.665  19.624
24675W        W25539   2.865  26.838  21.271
24676W        W25540   3.653  28.275  19.516
24677W        W25541   2.240  27.606  20.976
24678W        W25542   0.087  27.198  19.184
24679W        W25543   1.165  27.647  20.712
24680W        W25544   2.273  26.778  19.012
24681W        W25545   2.164  27.206  19.306
24682W        W25546   0.708  26.711  20.575
24683W        W25547   0.607  26.733  21.489
24684W        W25548   0.427  25.638  19.882
24685W        W25549   2.187  26.044  20.198
24686W        W25550   1.894  26.123  21.535
24687W        W25551   2.385  25.855  18.599
24688W        W25552   3.451  28.656  21.437
24689W        W25553   2.201  25.658  21.554
24690W        W25554   3.278  28.128  21.598
24691W        W25555   2.847  26.335  21.076
24692W        W25556   2.455  26.081  19.381
24693W        W25557   2.891  27.287  21.690
24694W        W25558   0.717  28.766  19.768
24695W        W25559   1.376  26.569  18.870
24696W        W25560   0.952  25.737  21.477
24697W        W25561   2.872  26.342  19.166
24698W        W25562   3.218  26.719  19.059
24699W        W25563   1.069  28.984  21.742
24700W        W25564   1.120  25.579  18.964
24701W        W25565   3.275  25.938  19.754
24702W        W25566   3.415  28.391  18.355
24703W        W25567   0.448  27.498  19.973
24704W        W25568   2.447  25.962  18.089
24705W        W25569   3.536  28.417  20.160
24706W        W25570   3.597  25.524  20.968
24707W        W25571   2.024  26.945  21.272
24708W        W25572   1.799  27.994  18.940
24709W        W25573   2.430  27.510  21.850
24710W        W25574   2.129  25.542  20.019
24711W        W25575   0.761  26.491  20.070
24712W        W25576   0.393  27.587  20.887
24713W        W25577   2.194  28.517  19.442
24714W        W25578   3.251  26.326  20.475
24715W        W25579   2.070  28.845  21.186
24716W        W25580   3.113  27.580  18.464
24717W        W25581   1.683  27.193  19.505
24718W        W25582   3.493  25.857  21.328
24719W        W25583   1.749  27.692  20.801
24720W        W25584   1.911  26.533  20.115
24721W        W25585   2.748  26.958  19.126
24722W        W25586   2.832  26.637  18.737
24723W        W25587   2.856  28.622  19.124
24724W        W25588   2.660  27.966  19.934
24725W        W25589   2.377  27.252  18.811
24726W        W25590   2.068  27.310  19.875
24727W        W25591   3.022  27.115  19.982
24728W        W25592   0.495  26.254  20.460
24729W        W25593   3.074  27.313  21.183
24730W        W25594   3.450  28.895  20.398
24731W        W25595   1.412  28.296  19.693
24732W        W25596   2.543  28.867  20.956
24733W        W25597   2.429  26.208  20.800
24734W        W25598   1.644  28.990  20.905
24735W        W25599   3.236  25.935  19.188
24736W        W25600   3.140  27.372  20.423
24737W        W25601   0.253  26.593  20.812
24738W        W25602   2.845  26.263  19.676
24739W        W25603   3.239  26.494  21.407
24740W        W25604   2.221  28.077  19.712
24741W        W25605   1.682  28.726  19.470
24742W        W25606   0.747  25.908  18.733
24743W        W25607   1.684  25.537  20.334
24744W        W25608   0.733  28.629  18.354
24745W        W25609   1.021  27.388  18.814
24746W        W25610   1.818  27.835  21.344
24747W        W25611   1.522  26.391  19.329
24748W        W25612   2.857  25.774  19.488
24749W        W25613   2.714   0.010  20.007
24750W        W25614   1.974  28.658  20.329
24751W        W25615   1.503  27.790  20.354
24752W        W25616   3.247  28.432  20.590
24753W        W25617   0.808  25.869  19.247
24754W        W25618   1.462  28.319  20.225
24755W        W25619   1.125  26.046  18.397
24756W        W25620   1.738  26.762  20.599
24757W        W25621   2.512  25.657  20.371
24758W        W25622   0.210  27.535  20.421
24759W        W25623   1.521  27.426  18.596
24760W        W25624   0.907  25.493  18.472
24761W        W25625   1.785  26.802  19.189
24762W        W25626   2.553  25.702  20.888
24763W        W25627   1.347  27.761  21.159
24764W        W25628   2.122  27.428  21.442
24765W        W25629   2.622  27.532  21.332
24766W        W25630   1.902  25.847  21.962
24767W        W25631   1.218  26.061  20.037
24768W        W25632   0.770  26.147  19.682
24769W        W25633   0.343  28.849  19.126
24770W        W25634   1.930  28.346  21.408
24771W        W25635   0.745  27.816  18.711
24772W        W25636   2.593  27.408  20.028
24773W        W25637   2.640  26.992  20.347
24774W        W25638   1.863  27.432  20.349
24775W        W25639   2.408  27.934  18.361
24776W        W25640   2.065  25.937  19.689
24777W        W25641   3.554  26.308  19.008
24778W        W25642   0.282  28.775  21.210
24779W        W25643   0.507  28.033  20.634
24780W        W25644  28.888  28.894  18.893
24781W        W25645   1.986  26.311  20.591
24782W        W25646   1.046  28.222  18.562
24783W        W25647   3.187  28.860  18.788
24784W        W25648   1.900  27.125  18.798
24785W        W25649   1.034  26.340  19.222
24786W        W25650   2.082  26.206  18.368
24787W        W25651   2.336  27.934  21.467
24788W        W25652   2.748  25.877  18.979
24789W        W25653   0.354  25.624  18.523
24790W        W25654   1.454  28.123  20.740
24791W        W25655   1.217  27.895  19.955
24792W        W25656   0.784  27.833  18.028
24793W        W25657   0.128  28.390  19.014
24794W        W25658   0.817  27.248  21.565
24795W        W25659   1.449  25.817  21.633
24796W        W25660   2.066  25.936  21.088
24797W        W25661   1.378  25.507  19.408
24798W        W25662   2.170  25.757  19.077
24799W        W25663   0.328  25.673  20.402
24800W        W25664   0.346  26.496  19.746
24801W        W25665   2.979  25.743  20.155
24802W        W25666   0.532  26.288  19.109
24803W        W25667   2.883  26.004  20.637
24804W        W25668   3.299  27.083  18.443
24805W        W25669   0.753  25.913  20.162
24806W        W25670   1.884  26.452  21.083
24807W        W25671   0.318  26.151  18.576
24808W        W25672   0.844  27.609  21.145
24809W        W25673   2.115  26.983  20.291
24810W        W25674   1.822  28.806  18.587
24811W        W25675   0.227  27.581  18.296
24812W        W25676   0.989  28.032  21.450
24813W        W25677   0.512  27.162  21.151
24814W        W25678   1.470  27.226  20.675
24815W        W25679   3.080  25.722  21.023
24816W        W25680   3.597  27.341  21.212
24817W        W25681   3.167  27.252  19.019
24818W        W25682   2.204  27.677  19.081
24819W        W25683   2.920  28.994  18.337
24820W        W25684   2.059  27.107  21.857
24821W        W25685   0.266  28.161  21.976
24822W        W25686   3.540  26.176  21.713
24823W        W25687   3.168  26.828  20.383
24824W        W25688   1.552  28.922  21.831
24825W        W25689   1.413  25.616  18.554
24826W        W25690   2.924  28.102  18.444
24827W        W25691   0.846  26.255  21.436
24828W        W25692   1.450  28.247  21.241
24829W        W25693   3.314  26.168  20.968
24830W        W25694   2.734   0.103  18.803
24831W        W25695   2.789  27.736  20.364
24832W        W25696   1.075  25.943  21.022
24833W        W25697   1.587  27.090  21.609
24834W        W25698   0.903  28.160  19.065
24835W        W25699   2.679  27.457  19.178
24836W        W25700   0.718  26.318  20.924
24837W        W25701   1.820  28.167  19.425
24838W        W25702   3.483  26.919  19.837
24839W        W25703   1.768  25.571  21.321
24840W        W25704   2.795  28.259  20.349
24841W        W25705   3.075  28.653  20.149
24842W        W25706   2.024  28.291  18.558
24843W        W25707   0.170  28.200  21.472
24844W        W25708   1.012  26.293  20.486
24845W        W25709   0.930  25.633  19.704
24846W        W25710   2.380  26.522  20.310
24847W        W25711   1.140  27.709  18.391
24848W        W25712   3.091  27.647  19.945
24849W        W25713   0.657  28.452  21.419
24850W        W25714   3.031   0.087  19.246
24851W        W25715   1.258  25.991  19.524
24852W        W25716   0.916  27.537  19.730
24853W        W25717   1.156   0.052  20.729
24854W        W25718   3.180   0.085  21.470
24855W        W25719   2.371  27.413  20.510
24856W        W25720   0.320  27.119  18.545
24857W        W25721   3.381  28.662  19.221
24858W        W25722   3.108  26.179  18.732
24859W        W25723   1.290  25.478  21.180
24860W        W25724   3.130  28.189  19.844
24861W        W25725   3.033  26.803  19.546
24862W        W25726   1.181  26.479  19.738
24863W        W25727   1.540  26.851  21.100
24864W        W25728   2.591  27.987  21.038
24865W        W25729   1.213  26.439  21.108
24866W        W25730   1.306  28.795  19.809
24867W        W25731   0.609  28.950  21.567
24868W        W25732   0.536  28.278  18.692
24869W        W25733   3.140  28.222  19.328
24870W        W25734   0.868  26.809  21.056
24871W        W25735   3.384  26.585  18.569
24872W        W25736   1.282  27.821  18.900
24873W        W25737   2.458  27.137  21.019
24874W        W25738   2.250  26.741  20.751
24875W        W25739   0.927  27.186  20.695
24876W        W25740   2.958  28.849  20.618
24877W        W25741   2.702  25.676  21.637
24878W        W25742   0.566  25.883  21.176
24879W        W25743   1.039  26.905  20.223
24880W        W25744   1.159  26.601  18.357
24881W        W25745   0.126  28.334  20.956
24882W        W25746   1.575  27.027  20.173
24883W        W25747   1.579  26.298  18.474
24884W        W25748   0.801  27.098  19.215
24885W        W25749   0.214  28.775  20.698
24886W        W25750   2.834  27.161  18.631
24887W        W25751   3.031  26.018  21.449
24888W        W25752   2.646  28.276  19.456
24889W        W25753   0.307  27.148  21.659
24890W        W25754   3.230  25.672  18.724
24891W        W25755   2.728  28.134  18.955
24892W        W25756   1.413  27.077  18.944
24893W        W25757   2.865  25.875  18.379
24894W        W25758   2.784  26.554  20.615
24895W        W25759   0.530  26.987  19.835
24896W        W25760   0.906  28.061  19.572
24897W        W25761   2.528  26.610  19.432
24898W        W25762   1.678  26.054  20.271
24899W        W25763   3.571  28.062  20.733
24900W        W25764   3.365  25.807  20.569
24901W        W25765   0.204  28.740  19.629
24902W        W25766   0.419  27.959  19.104
24903W        W25767   0.532  25.920  21.717
24904W        W25768   1.684  28.432  21.866
24905W        W25769   3.579  27.445  19.900
24906W        W25770   2.670  27.669  18.708
24907W        W25771   2.120  28.984  20.690
24908W        W25772   2.856  27.815  21.717
24909W        W25773   1.689  25.492  18.996
24910W        W25774   2.340  26.354  19.828
24911W        W25775   0.165  27.943  20.091
24912W        W25776   1.365  26.044  18.907
24913W        W25777   1.268  27.501  21.585
24914W        W25778   2.032  26.393  19.415
24915W        W25779   2.382  27.952  20.577
24916W        W25780   0.629  28.494  20.891
24917W        W25781   1.201  28.478  21.666
24918W        W25782   0.901  26.379  18.734
24919W        W25783   2.387  26.284  18.903
24920W        W25784   2.391  28.438  21.203
24921W        W25785   1.223  27.097  19.780
24922W        W25786   0.677  28.905  20.572
24923W        W25787   3.460  28.899  18.366
24924W        W25788   0.388  27.607  21.428
24925W        W25789   2.208  27.757  20.123
24926W        W25790   0.842  27.674  19.226
24927W        W25791   1.115  28.532  20.632
24928W        W25792   1.599  25.727  19.847
24929W        W25793   0.117  27.973  18.668
24930W        W25794   1.568  26.876  18.490
24931W        W25795   0.462  27.387  19.471
24932W        W25796   1.556  26.029  21.156
24933W        W25797   3.352  25.738  18.237
24934W        W25798   3.306  27.586  21.578
24935W        W25799   2.034  28.809  21.701
24936W        W25800   3.581  27.893  21.232
24937W        W25801   3.017  28.638  21.715
24938W        W25802   0.628   0.203  20.097
24939W        W25803   3.373  27.784  19.512
24940W        W25804   2.136  26.827  19.705
24941W        W25805   1.894  25.486  19.515
24942W        W25806   1.055  28.543  19.422
24943W        W25807   1.491  26.299  20.703
24944W        W25808   1.215  25.540  20.125
24945W        W25809   0.261  28.696  18.610
24946W        W25810   1.902  27.667  19.531
24947W        W25811   1.093  28.609  21.156
24948W        W25812   0.495  27.425  18.932
24949W        W25813   0.246  26.097  20.050
24950W        W25814   1.754  27.964  19.937
24951W        W25815   0.287  25.852  19.016
24952W        W25816   2.902  27.050  20.777
24953W        W25817   2.594  26.328  18.418
24954W        W25818   3.261  27.990  20.300
24955W        W25819   1.866  28.454  19.874
24956W        W25820   1.361  28.731  19.034
24957W        W25821   2.470  25.467  18.249
24958W        W25822   0.358  28.768  20.153
24959W        W25823   2.269  26.631  21.722
24960W        W25824   0.667  26.382  21.915
24961W        W25825   0.313  26.730  19.238
24962W        W25826   0.962  26.880  18.773
24963W        W25827   2.471  27.053  21.526
24964W        W25828   1.156  27.413  20.231
24965W        W25829   2.398  25.544  19.506
24966W        W25830   1.777  28.983  19.965
24967W        W25831   2.768  28.421  20.834
24968W        W25832   2.665  28.493  19.904
24969W        W25833   2.406  27.605  19.594
24970W        W25834   1.839  25.875  18.679
24971W        W25835   3.524  25.560  19.430
24972W        W25836   1.155  27.151  18.349
24973W        W25837   3.299  26.372  19.464
24974W        W25838   2.023  27.607  18.574
24975W        W25839   3.042  27.832  21.225
24976W        W25840   2.759  28.580  18.607
24977W        W25841   1.348  26.311  21.584
24978W        W25842   1.226  26.750  20.680
24979W        W25843   3.247  28.295  21.099
24980W        W25844   2.516  26.020  21.301
24981W        W25845   0.132  26.824  21.284
24982W        W25846   1.981  27.186  20.796
24983W        W25847   0.412  27.877  19.617
24984W        W25848   0.568  27.136  20.328
24985W        W25849   2.768  27.544  20.835
24986W        W25850   2.569  28.830  21.532
24987W        W25851   2.391  26.571  21.210
24988W        W25852   2.611  28.860  19.518
24989W        W25853   1.780  28.501  20.890
24990W        W25854   1.006  28.850  20.207
24991W        W25855   3.020  27.991  20.743
24992W        W25856   1.979  28.014  21.810
24993W        W25857   0.704  27.938  20.053
24994W        W25858   2.866  27.818  19.494
24995W        W25859   2.517  28.723  20.368
24996W        W25860   0.681  28.431  20.360
24997W        W25861   1.762  26.618  21.585
24998W        W25862   1.865  28.535  19.032
24999W        W25863   1.452  27.992  21.689
25000W        W25864   1.395  28.245  19.171
25001W        W25865   0.710  26.880  18.325
25002W        W25866   0.116   0.190  25.205
25003W        W25867   0.619  27.979  24.973
25004W        W25868   3.242  27.730  22.696
25005W        W25869   3.418  28.826  24.689
25006W        W25870   1.151  28.755  22.193
25007W        W25871   1.068  27.050  22.916
25008W        W25872   0.590  26.874  23.144
25009W        W25873   1.792  27.567  22.702
25010W        W25874   1.720  28.670  24.937
25011W        W25875   0.271  26.248  24.888
25012W        W25876   0.814  25.431  24.687
25013W        W25877   2.661  26.061  23.755
25014W        W25878   2.200  26.747  22.238
25015W        W25879   2.787  26.428  25.276
25016W        W25880   0.250  25.926  24.447
25017W        W25881   0.325  28.520  25.344
25018W        W25882   1.625  27.985  22.175
25019W        W25883   0.190  26.642  23.947
25020W        W25884   1.012  26.767  25.068
25021W        W25885   3.480  26.625  23.661
25022W        W25886   3.277  27.575  24.422
25023W        W25887   1.584  26.880  23.433
25024W        W25888   2.248  28.346  23.829
25025W        W25889   0.720  27.688  24.214
25026W        W25890   0.093  27.173  23.865
25027W        W25891   1.192  27.232  24.861
25028W        W25892   3.398  27.032  25.115
25029W        W25893   0.965  28.169  23.497
25030W        W25894   2.011  28.031  24.589
25031W        W25895   1.396  26.596  23.821
25032W        W25896   1.651  27.404  23.480
25033W        W25897   2.372  28.348  25.432
25034W        W25898   1.529  27.468  25.295
25035W        W25899   1.726  27.291  24.854
25036W        W25900   0.018  26.641  25.473
25037W        W25901   2.797  28.250  25.162
25038W        W25902   0.454  25.797  23.025
25039W        W25903   1.106  27.957  23.979
25040W        W25904   3.505  27.993  23.551
25041W        W25905   2.968  26.420  23.934
25042W        W25906   3.077  26.280  21.894
25043W        W25907   3.666  27.088  24.333
25044W        W25908   1.502  28.767  24.005
25045W        W25909   3.370  28.338  22.422
25046W        W25910   0.669   0.005  22.101
25047W        W25911   0.830  28.943  22.983
25048W        W25912   0.745  25.754  24.274
25049W        W25913   3.304  26.865  24.637
25050W        W25914   2.535  27.213  23.250
25051W        W25915   2.567  27.036  22.037
25052W        W25916   1.936  28.009  24.083
25053W        W25917   1.518  26.377  23.364
25054W        W25918   2.300  28.366  24.349
25055W        W25919   3.020  27.347  23.049
25056W        W25920   2.148  26.090  22.848
25057W        W25921   0.734  28.715  22.534
25058W        W25922   0.141  26.192  23.024
25059W        W25923   2.524  26.806  23.591
25060W        W25924   0.465  28.300  23.513
25061W        W25925   1.556  28.466  22.373
25062W        W25926   2.962  26.783  21.822
25063W        W25927   0.253  28.156  24.003
25064W        W25928   0.984  28.016  24.506
25065W        W25929   1.338  27.488  23.007
25066W        W25930   1.233  25.864  24.017
25067W        W25931   3.556  25.768  23.646
25068W        W25932   0.784  27.389  22.125
25069W        W25933   0.527  26.658  22.342
25070W        W25934   0.574  28.454  23.009
25071W        W25935   1.662  27.880  23.099
25072W        W25936   2.945  28.781  24.885
25073W        W25937   1.918  26.438  22.536
25074W        W25938   3.286  28.891  23.533
25075W        W25939   2.885  26.938  25.022
25076W        W25940   3.711  28.340  23.233
25077W        W25941   2.249  27.582  24.697
25078W        W25942   0.081  27.186  22.656
25079W        W25943   1.202  27.573  24.342
25080W        W25944   2.114  26.865  22.758
25081W        W25945   2.243  27.362  22.857
25082W        W25946   0.647  26.713  24.197
25083W        W25947   0.484  26.581  25.223
25084W        W25948   0.510  25.554  23.492
25085W        W25949   2.134  26.003  23.836
25086W        W25950   1.936  26.105  25.172
25087W        W25951   2.268  26.088  22.295
25088W        W25952   3.507  28.582  25.156
25089W        W25953   2.289  25.611  25.045
25090W        W25954   3.287  28.053  25.297
25091W        W25955   2.891  26.211  24.804
25092W        W25956   2.599  26.162  23.067
25093W        W25957   2.991  27.305  25.415
25094W        W25958   0.748  28.743  23.471
25095W        W25959   1.415  26.521  22.472
25096W        W25960   0.962  25.795  25.097
25097W        W25961   2.888  26.530  22.834
25098W        W25962   3.209  26.929  22.796
25099W        W25963   1.104  28.884  25.266
25100W        W25964   1.000  25.554  22.421
25101W        W25965   3.262  26.165  23.537
25102W        W25966   3.443  28.475  21.942
25103W        W25967   0.460  27.439  23.577
25104W        W25968   2.357  26.094  21.789
25105W        W25969   3.575  28.495  23.744
25106W        W25970   3.422  25.801  24.310
25107W        W25971   1.993  26.877  25.021
25108W        W25972   1.874  28.074  22.623
25109W        W25973   2.473  27.431  25.548
25110W        W25974   2.357  25.805  23.431
25111W        W25975   0.665  26.460  23.686
25112W        W25976   0.324  27.533  24.498
25113W        W25977   2.429  28.574  22.985
25114W        W25978   3.305  26.746  24.138
25115W        W25979   2.114  28.758  24.632
25116W        W25980   3.335  27.898  22.064
25117W        W25981   1.757  27.153  23.019
25118W        W25982   3.639  25.718  24.789
25119W        W25983   1.781  27.599  24.434
25120W        W25984   1.920  26.558  23.698
25121W        W25985   2.635  27.018  22.764
25122W        W25986   2.894  26.787  22.371
25123W        W25987   3.004  28.606  22.724
25124W        W25988   2.887  27.981  23.612
25125W        W25989   2.472  27.415  22.386
25126W        W25990   2.145  27.531  23.410
25127W        W25991   2.972  27.432  23.569
25128W        W25992   0.476  26.213  24.088
25129W        W25993   3.126  27.355  24.849
25130W        W25994   3.466  28.897  24.048
25131W        W25995   1.468  28.298  23.375
25132W        W25996   2.577  28.940  24.551
25133W        W25997   2.468  26.229  24.454
25134W        W25998   1.691  28.956  24.463
25135W        W25999   3.105  26.073  22.887
25136W        W26000   3.096  27.225  24.077
25137W        W26001   0.209  26.476  24.436
25138W        W26002   2.837  26.426  23.429
25139W        W26003   3.229  26.548  25.033
25140W        W26004   2.367  28.166  23.359
25141W        W26005   1.646  28.734  23.111
25142W        W26006   0.652  25.955  22.252
25143W        W26007   1.770  25.714  24.086
25144W        W26008   0.741  28.523  21.930
25145W        W26009   1.136  27.387  22.506
25146W        W26010   1.865  27.777  25.005
25147W        W26011   1.633  26.181  22.892
25148W        W26012   2.888  25.836  23.336
25149W        W26013   2.735  28.982  23.655
25150W        W26014   2.022  28.744  24.096
25151W        W26015   1.550  27.652  23.965
25152W        W26016   3.278  28.482  24.342
25153W        W26017   0.854  25.949  22.752
25154W        W26018   1.515  28.250  23.896
25155W        W26019   1.033  26.008  21.910
25156W        W26020   1.744  26.739  24.186
25157W        W26021   2.490  25.784  24.158
25158W        W26022   0.237  27.638  24.009
25159W        W26023   1.579  27.453  22.252
25160W        W26024   0.746  25.524  21.973
25161W        W26025   1.460  26.696  22.959
25162W        W26026   2.612  25.741  24.653
25163W        W26027   1.393  27.708  24.800
25164W        W26028   2.143  27.377  25.156
25165W        W26029   2.655  27.438  25.048
25166W        W26030   1.908  25.745  25.550
25167W        W26031   1.108  26.235  23.611
25168W        W26032   0.637  26.326  23.157
25169W        W26033   0.287  28.846  22.805
25170W        W26034   2.056  28.274  25.038
25171W        W26035   0.868  27.830  22.425
25172W        W26036   2.508  27.317  23.758
25173W        W26037   2.684  26.881  24.072
25174W        W26038   2.052  27.496  23.972
25175W        W26039   2.465  28.000  22.012
25176W        W26040   1.909  26.059  23.337
25177W        W26041   3.405  26.448  22.663
25178W        W26042   0.376  28.846  24.758
25179W        W26043   0.450  28.035  24.483
25180W        W26044  28.864  28.799  22.480
25181W        W26045   1.986  26.274  24.248
25182W        W26046   1.149  28.225  22.144
25183W        W26047   3.088  28.730  22.232
25184W        W26048   1.999  27.196  22.383
25185W        W26049   0.830  26.607  22.777
25186W        W26050   1.946  26.365  22.009
25187W        W26051   2.396  27.869  25.168
25188W        W26052   2.661  25.963  22.606
25189W        W26053   0.238  25.691  22.143
25190W        W26054   1.481  28.007  24.359
25191W        W26055   1.359  27.826  23.527
25192W        W26056   0.753  27.970  21.918
25193W        W26057   0.146  28.369  22.666
25194W        W26058   0.774  27.199  25.184
25195W        W26059   1.449  25.920  25.272
25196W        W26060   2.074  25.894  24.636
25197W        W26061   1.306  25.779  23.009
25198W        W26062   2.206  25.656  22.563
25199W        W26063   0.321  25.722  23.973
25200W        W26064   0.229  26.541  23.418
25201W        W26065   3.104  25.829  23.885
25202W        W26066   0.467  26.245  22.641
25203W        W26067   2.930  26.042  24.311
25204W        W26068   3.240  27.378  22.052
25205W        W26069   0.761  25.920  23.785
25206W        W26070   2.034  26.420  24.757
25207W        W26071   0.192  26.241  22.205
25208W        W26072   0.809  27.569  24.717
25209W        W26073   2.164  26.963  23.946
25210W        W26074   1.879  28.850  22.217
25211W        W26075   0.354  27.628  21.960
25212W        W26076   1.106  28.107  24.989
25213W        W26077   0.518  27.135  24.751
25214W        W26078   1.478  27.159  24.419
25215W        W26079   3.116  25.749  24.715
25216W        W26080   3.651  27.369  24.771
25217W        W26081   3.705  27.987  22.598
25218W        W26082   2.384  27.960  22.519
25219W        W26083   2.885   0.091  21.918
25220W        W26084   1.868  27.128  25.509
25221W        W26085   0.303  27.980  25.394
25222W        W26086   3.749  26.155  25.368
25223W        W26087   3.029  26.883  23.692
25224W        W26088   1.617  28.931  25.359
25225W        W26089   1.399  25.673  22.122
25226W        W26090   2.950  28.237  22.037
25227W        W26091   0.848  26.279  25.042
25228W        W26092   1.583  28.189  24.838
25229W        W26093   3.334  26.267  24.556
25230W        W26094   2.735   0.071  22.422
25231W        W26095   2.830  27.677  24.038
25232W        W26096   1.138  25.931  24.554
25233W        W26097   1.488  26.954  25.181
25234W        W26098   1.014  28.290  22.654
25235W        W26099   2.716  27.664  22.778
25236W        W26100   0.683  26.175  24.559
25237W        W26101   1.943  28.322  23.133
25238W        W26102   3.362  27.015  23.315
25239W        W26103   1.785  25.613  25.035
25240W        W26104   2.703  28.206  24.045
25241W        W26105   3.044  28.640  23.913
25242W        W26106   2.075  28.336  22.210
25243W        W26107   0.284  28.350  24.861
25244W        W26108   0.978  26.304  24.124
25245W        W26109   0.884  25.882  23.288
25246W        W26110   2.399  26.454  23.967
25247W        W26111   1.193  27.708  22.050
25248W        W26112   3.345  27.656  23.912
25249W        W26113   0.783  28.492  25.116
25250W        W26114   3.118   0.111  22.817
25251W        W26115   1.142  26.273  23.025
25252W        W26116   0.909  27.635  23.382
25253W        W26117   1.197   0.013  24.389
25254W        W26118   3.288   0.033  25.179
25255W        W26119   2.442  27.301  24.270
25256W        W26120   0.340  27.120  22.183
25257W        W26121   3.406  28.722  23.041
25258W        W26122   3.002  26.277  22.398
25259W        W26123   1.316  25.544  24.854
25260W        W26124   3.194  28.381  23.413
25261W        W26125   2.896  26.874  23.203
25262W        W26126   1.058  26.683  23.338
25263W        W26127   1.584  26.726  24.699
25264W        W26128   2.552  28.058  24.710
25265W        W26129   1.130  26.442  24.650
25266W        W26130   1.329  28.815  23.501
25267W        W26131   0.588  28.971  25.219
25268W        W26132   0.596  28.255  22.348
25269W        W26133   3.318  28.219  22.916
25270W        W26134   0.642  26.648  24.717
25271W        W26135   3.358  26.631  22.142
25272W        W26136   1.364  27.860  22.601
25273W        W26137   2.396  27.092  24.768
25274W        W26138   2.297  26.721  24.397
25275W        W26139   0.920  27.143  24.418
25276W        W26140   3.038  28.944  24.336
25277W        W26141   2.884  25.915  25.216
25278W        W26142   0.497  25.787  24.878
25279W        W26143   0.968  26.907  23.825
25280W        W26144   1.196  26.608  21.982
25281W        W26145   0.289  28.522  24.361
25282W        W26146   1.452  27.120  23.896
25283W        W26147   1.487  26.178  22.075
25284W        W26148   0.611  27.081  22.648
25285W        W26149   0.310   0.035  24.262
25286W        W26150   2.982  27.301  22.508
25287W        W26151   3.350  26.051  25.056
25288W        W26152   2.813  28.222  23.094
25289W        W26153   0.289  27.063  25.308
25290W        W26154   3.139  25.757  22.416
25291W        W26155   2.908  28.118  22.572
25292W        W26156   1.521  27.037  22.565
25293W        W26157   2.752  25.927  22.095
25294W        W26158   2.893  26.566  24.435
25295W        W26159   0.485  26.934  23.637
25296W        W26160   1.136  27.977  23.054
25297W        W26161   2.446  26.666  23.097
25298W        W26162   1.636  26.135  23.811
25299W        W26163   3.525  28.038  24.334
25300W        W26164   3.459  26.239  24.040
25301W        W26165   0.236  28.739  23.329
25302W        W26166   0.495  27.988  22.765
25303W        W26167   0.567  25.985  25.370
25304W        W26168   1.771  28.426  25.454
25305W        W26169   3.464  27.499  23.426
25306W        W26170   2.859  27.728  22.233
25307W        W26171   2.165   0.206  24.353
25308W        W26172   2.852  27.803  25.434
25309W        W26173   1.484  25.522  22.619
25310W        W26174   2.321  26.334  23.466
25311W        W26175   0.101  27.907  23.593
25312W        W26176   1.294  26.003  22.525
25313W        W26177   1.038  27.638  25.174
25314W        W26178   1.945  26.542  23.131
25315W        W26179   2.387  27.837  24.269
25316W        W26180   0.745  28.458  24.616
25317W        W26181   1.265  28.422  25.360
25318W        W26182   0.948  26.346  22.354
25319W        W26183   2.445  26.465  22.604
25320W        W26184   2.474  28.545  24.903
25321W        W26185   1.170  27.190  23.422
25322W        W26186   0.763  28.792  24.223
25323W        W26187   3.418  28.984  21.936
25324W        W26188   0.390  27.525  25.084
25325W        W26189   2.396  27.841  23.757
25326W        W26190   0.823  27.570  22.874
25327W        W26191   1.203  28.462  24.325
25328W        W26192   1.363  25.814  23.511
25329W        W26193   0.089  27.924  22.406
25330W        W26194   1.676  26.826  22.097
25331W        W26195   0.387  27.356  23.047
25332W        W26196   1.596  26.048  24.766
25333W        W26197   3.239  25.789  21.888
25334W        W26198   3.427  27.542  25.223
25335W        W26199   2.120  28.783  25.270
25336W        W26200   3.503  27.873  24.822
25337W        W26201   3.107  28.511  25.479
25338W        W26202   1.069   0.055  23.895
25339W        W26203   3.642  27.835  23.077
25340W        W26204   2.088  26.989  23.392
25341W        W26205   1.838  25.680  22.981
25342W        W26206   1.085  28.522  23.127
25343W        W26207   1.470  26.282  24.289
25344W        W26208   1.415  25.389  23.830
25345W        W26209   0.295  28.660  22.245
25346W        W26210   2.178  27.855  22.993
25347W        W26211   1.228  28.579  24.831
25348W        W26212   0.428  27.543  22.498
25349W        W26213   0.356  26.037  23.481
25350W        W26214   1.889  27.998  23.563
25351W        W26215   0.093  25.874  22.614
25352W        W26216   2.846  27.076  24.518
25353W        W26217   2.608  26.449  22.089
25354W        W26218   3.220  28.160  23.945
25355W        W26219   1.826  28.559  23.621
25356W        W26220   1.262  28.774  22.706
25357W        W26221   2.356  25.591  22.056
25358W        W26222   0.400  28.664  23.870
25359W        W26223   2.262  26.498  25.272
25360W        W26224   0.460  26.391  25.696
25361W        W26225   0.244  26.678  22.807
25362W        W26226   1.030  26.886  22.395
25363W        W26227   2.445  26.975  25.286
25364W        W26228   1.024  27.448  23.860
25365W        W26229   2.492  25.651  22.975
25366W        W26230   1.852   0.052  23.497
25367W        W26231   2.789  28.480  24.486
25368W        W26232   2.705  28.464  23.586
25369W        W26233   2.617  27.715  23.277
25370W        W26234   1.790  25.939  22.457
25371W        W26235   3.376  25.735  23.161
25372W        W26236   1.233  27.151  21.989
25373W        W26237   3.287  26.518  23.168
25374W        W26238   2.055  27.691  22.215
25375W        W26239   2.991  27.838  24.928
25376W        W26240   2.610  28.642  22.071
25377W        W26241   1.396  26.406  25.097
25378W        W26242   1.212  26.754  24.262
25379W        W26243   3.191  28.316  24.827
25380W        W26244   2.416  26.113  24.954
25381W        W26245   0.165  26.770  24.880
25382W        W26246   1.991  27.128  24.441
25383W        W26247   0.463  27.844  23.245
25384W        W26248   0.568  27.223  24.058
25385W        W26249   2.756  27.586  24.552
25386W        W26250   2.672  28.764  25.320
25387W        W26251   2.538  26.602  24.840
25388W        W26252   2.892  28.761  23.202
25389W        W26253   1.741  28.443  24.401
25390W        W26254   1.062  28.535  23.836
25391W        W26255   3.011  28.019  24.423
25392W        W26256   1.995  27.958  25.475
25393W        W26257   0.629  27.884  23.758
25394W        W26258   3.133  27.825  23.198
25395W        W26259   2.552  28.723  24.066
25396W        W26260   0.728  28.279  24.120
25397W        W26261   1.769  26.593  25.407
25398W        W26262   1.953  28.597  22.689
25399W        W26263   1.493  27.974  25.317
25400W        W26264   1.489  28.315  22.858
25401W        W26265   0.757  26.900  21.947
25402W        W26266   0.126   0.107  28.828
25403W        W26267   0.622  27.946  28.414
25404W        W26268   3.212  27.704  26.209
25405W        W26269   3.414  28.684  28.236
25406W        W26270   1.310  28.783  25.747
25407W        W26271   1.068  27.190  26.642
25408W        W26272   0.684  26.874  26.808
25409W        W26273   1.745  27.579  26.272
25410W        W26274   1.657  28.710  28.564
25411W        W26275   0.247  26.241  28.452
25412W        W26276   0.853  25.416  28.292
25413W        W26277   2.670  26.014  27.205
25414W        W26278   2.147  26.779  25.760
25415W        W26279   2.759  26.465  28.846
25416W        W26280   0.324  26.006  27.985
25417W        W26281   0.409  28.692  28.841
25418W        W26282   1.627  27.922  25.838
25419W        W26283   0.285  26.721  27.551
25420W        W26284   0.969  26.706  28.740
25421W        W26285   3.395  26.448  27.286
25422W        W26286   3.302  27.667  28.100
25423W        W26287   1.732  27.009  27.062
25424W        W26288   2.238  28.316  27.451
25425W        W26289   0.667  27.737  27.683
25426W        W26290  28.898  27.117  27.570
25427W        W26291   1.239  27.097  28.523
25428W        W26292   3.402  27.018  28.723
25429W        W26293   1.028  28.270  27.189
25430W        W26294   2.166  28.141  28.198
25431W        W26295   1.442  26.711  27.363
25432W        W26296   1.592  27.616  27.198
25433W        W26297   2.378  28.379  28.964
25434W        W26298   1.721  27.593   0.010
25435W        W26299   1.736  27.337  28.498
25436W        W26300   0.016  26.590   0.198
25437W        W26301   2.831  28.198  28.801
25438W        W26302   0.476  25.818  26.616
25439W        W26303   1.001  28.151  27.722
25440W        W26304   3.573  27.935  27.147
25441W        W26305   2.877  26.431  27.470
25442W        W26306   3.278  26.352  25.513
25443W        W26307   3.629  27.071  27.946
25444W        W26308   1.763  28.563  27.557
25445W        W26309   3.216  28.183  26.372
25446W        W26310   0.561   0.241  26.079
25447W        W26311   0.845  28.960  26.561
25448W        W26312   0.798  25.793  27.916
25449W        W26313   3.268  26.836  28.245
25450W        W26314   2.615  27.176  26.719
25451W        W26315   2.652  26.973  25.759
25452W        W26316   1.902  28.074  27.743
25453W        W26317   1.632  26.516  26.895
25454W        W26318   2.296  28.575  27.918
25455W        W26319   3.254  27.312  26.544
25456W        W26320   2.201  26.008  26.423
25457W        W26321   0.705  28.714  26.115
25458W        W26322   0.147  26.170  26.713
25459W        W26323   2.724  26.847  27.158
25460W        W26324   0.356  28.309  27.041
25461W        W26325   1.609  28.435  25.978
25462W        W26326   3.097  26.819  25.488
25463W        W26327   0.135  28.435  27.667
25464W        W26328   1.016  28.221  28.235
25465W        W26329   1.062  27.645  26.879
25466W        W26330   1.284  25.982  27.826
25467W        W26331   3.529  25.678  27.522
25468W        W26332   0.683  27.561  25.544
25469W        W26333   0.632  26.711  26.065
25470W        W26334   0.549  28.501  26.583
25471W        W26335   1.405  28.021  26.925
25472W        W26336   3.008  28.597  28.552
25473W        W26337   1.971  26.480  26.165
25474W        W26338   3.219  28.992  27.044
25475W        W26339   2.908  26.891  28.622
25476W        W26340   3.673  28.213  26.692
25477W        W26341   2.312  27.673  28.303
25478W        W26342   0.168  27.250  26.519
25479W        W26343   1.054  27.717  28.021
25480W        W26344   2.283  26.865  26.357
25481W        W26345   2.109  27.314  26.563
25482W        W26346   0.725  26.744  27.847
25483W        W26347   0.437  26.538  28.857
25484W        W26348   0.547  25.602  27.074
25485W        W26349   2.182  26.147  27.452
25486W        W26350   1.948  26.102  28.730
25487W        W26351   2.404  26.000  25.950
25488W        W26352   3.460  28.383  28.674
25489W        W26353   2.338  25.701  28.673
25490W        W26354   3.304  28.005  28.968
25491W        W26355   2.896  26.418  28.348
25492W        W26356   2.630  26.133  26.688
25493W        W26357   2.997  27.249  28.988
25494W        W26358   0.731  28.690  27.050
25495W        W26359   1.462  26.564  26.271
25496W        W26360   0.930  25.748  28.746
25497W        W26361   3.003  26.458  26.437
25498W        W26362   3.303  26.846  26.288
25499W        W26363   1.150   0.062   0.064
25500W        W26364   1.053  25.626  26.095
25501W        W26365   3.467  25.974  27.072
25502W        W26366   3.574  28.321  25.651
25503W        W26367   0.287  27.530  27.232
25504W        W26368   2.431  26.025  25.442
25505W        W26369   3.536  28.400  27.392
25506W        W26370   3.427  25.827  28.022
25507W        W26371   1.963  26.915  28.682
25508W        W26372   1.883  28.075  26.267
25509W        W26373   2.515  27.402   0.176
25510W        W26374   2.361  25.662  27.425
25511W        W26375   0.798  26.461  27.171
25512W        W26376   0.486  27.478  28.166
25513W        W26377   2.352  28.631  26.677
25514W        W26378   3.387  26.608  27.801
25515W        W26379   2.094  28.868  28.320
25516W        W26380   3.293  27.619  25.707
25517W        W26381   1.577  27.372  26.728
25518W        W26382   3.598  25.684  28.492
25519W        W26383   1.842  27.694  28.090
25520W        W26384   1.965  26.593  27.278
25521W        W26385   2.793  26.946  26.286
25522W        W26386   2.978  26.600  25.937
25523W        W26387   2.814  28.526  26.348
25524W        W26388   2.705  28.233  27.134
25525W        W26389   2.429  27.296  26.105
25526W        W26390   2.049  27.417  27.076
25527W        W26391   3.076  27.276  27.119
25528W        W26392   0.566  26.290  27.606
25529W        W26393   3.119  27.308  28.416
25530W        W26394   3.398  28.896  27.533
25531W        W26395   1.494  28.502  27.089
25532W        W26396   2.585  28.976  28.187
25533W        W26397   2.482  26.367  28.029
25534W        W26398   1.599  28.962  28.135
25535W        W26399   3.302  26.056  26.554
25536W        W26400   3.121  27.226  27.877
25537W        W26401   0.290  26.500  28.005
25538W        W26402   2.975  26.383  26.969
25539W        W26403   3.292  26.520  28.656
25540W        W26404   2.271  28.154  26.882
25541W        W26405   1.547  28.734  26.627
25542W        W26406   0.712  25.971  25.873
25543W        W26407   1.863  25.797  27.677
25544W        W26408   0.845  28.597  25.619
25545W        W26409   0.921  27.380  25.975
25546W        W26410   1.882  27.848  28.578
25547W        W26411   1.718  26.157  26.538
25548W        W26412   3.017  25.806  26.894
25549W        W26413   2.718   0.143  27.132
25550W        W26414   2.136  28.900  27.496
25551W        W26415   1.502  27.676  27.704
25552W        W26416   3.213  28.465  27.790
25553W        W26417   0.866  26.028  26.367
25554W        W26418   1.454  28.163  27.485
25555W        W26419   1.057  26.149  25.514
25556W        W26420   1.804  26.738  27.751
25557W        W26421   2.636  25.997  27.712
25558W        W26422   0.192  27.537  27.742
25559W        W26423   1.534  27.380  25.833
25560W        W26424   0.978  25.620  25.579
25561W        W26425   1.805  26.875  26.555
25562W        W26426   2.748  25.903  28.237
25563W        W26427   1.410  27.720  28.398
25564W        W26428   2.164  27.462  28.791
25565W        W26429   2.660  27.441  28.619
25566W        W26430   2.033  25.768   0.110
25567W        W26431   1.263  26.248  27.165
25568W        W26432   0.640  26.368  26.682
25569W        W26433   0.342  28.943  26.426
25570W        W26434   1.992  28.343  28.630
25571W        W26435   0.776  27.881  25.940
25572W        W26436   2.534  27.328  27.209
25573W        W26437   2.665  27.059  27.636
25574W        W26438   1.992  27.580  27.573
25575W        W26439   2.441  27.920  25.742
25576W        W26440   2.202  25.987  26.954
25577W        W26441   3.687  26.490  26.313
25578W        W26442   0.282  28.936  28.377
25579W        W26443   0.512  28.178  27.949
25580W        W26444   0.042   0.006  26.021
25581W        W26445   1.980  26.264  27.917
25582W        W26446   1.169  28.219  25.836
25583W        W26447   3.204  28.600  26.005
25584W        W26448   1.932  27.131  26.091
25585W        W26449   0.987  26.707  26.430
25586W        W26450   2.041  26.261  25.681
25587W        W26451   2.410  27.914  28.738
25588W        W26452   2.873  25.997  26.243
25589W        W26453   0.248  25.743  25.729
25590W        W26454   1.462  28.068  28.017
25591W        W26455   1.127  27.786  27.373
25592W        W26456   0.839  28.076  25.447
25593W        W26457   0.203  28.532  26.153
25594W        W26458   0.778  27.171  28.844
25595W        W26459   1.436  25.901  28.788
25596W        W26460   2.120  25.866  28.232
25597W        W26461   1.342  25.797  26.688
25598W        W26462   2.130  25.561  26.005
25599W        W26463   0.423  25.773  27.551
25600W        W26464   0.310  26.584  27.035
25601W        W26465   3.126  25.986  27.449
25602W        W26466   0.421  26.267  26.216
25603W        W26467   3.070  26.193  27.916
25604W        W26468   3.502  27.150  25.596
25605W        W26469   0.911  25.963  27.417
25606W        W26470   1.973  26.484  28.385
25607W        W26471  28.998  26.211  25.850
25608W        W26472   0.904  27.511  28.476
25609W        W26473   2.138  27.068  27.480
25610W        W26474   1.925  28.804  25.781
25611W        W26475   0.180  27.500  25.576
25612W        W26476   1.069  27.950  28.690
25613W        W26477   0.348  27.091  28.519
25614W        W26478   1.409  27.320  28.077
25615W        W26479   3.122  25.544  28.324
25616W        W26480   3.629  27.383  28.376
25617W        W26481   3.567  27.335  26.089
25618W        W26482   2.288  27.753  26.296
25619W        W26483   2.985  28.980  25.668
25620W        W26484   2.062  27.122   0.170
25621W        W26485   0.435  27.987   0.018
25622W        W26486   3.612  26.123  28.796
25623W        W26487   3.133  26.895  27.472
25624W        W26488   1.645  28.982  28.979
25625W        W26489   1.438  25.774  25.779
25626W        W26490   3.131  28.099  25.823
25627W        W26491   0.769  26.247  28.573
25628W        W26492   1.486  28.232  28.503
25629W        W26493   3.470  26.314  28.225
25630W        W26494   2.730  28.999  26.117
25631W        W26495   2.769  27.580  27.596
25632W        W26496   1.106  25.947  28.312
25633W        W26497   1.566  27.077  28.962
25634W        W26498   0.894  28.250  26.274
25635W        W26499   2.776  27.567  26.430
25636W        W26500   0.785  26.280  28.066
25637W        W26501   1.798  28.293  26.721
25638W        W26502   3.462  26.917  27.080
25639W        W26503   1.829  25.609  28.611
25640W        W26504   2.703  28.354  27.631
25641W        W26505   3.013  28.620  27.327
25642W        W26506   2.102  28.312  25.866
25643W        W26507   0.249  28.252  28.616
25644W        W26508   1.086  26.427  27.633
25645W        W26509   0.889  25.972  26.901
25646W        W26510   2.407  26.609  27.562
25647W        W26511   1.181  27.716  25.652
25648W        W26512   3.278  27.652  27.561
25649W        W26513   0.772  28.353  28.727
25650W        W26514   3.057   0.083  26.549
25651W        W26515   1.211  26.301  26.652
25652W        W26516   0.799  27.417  27.258
25653W        W26517   1.174   0.041  27.856
25654W        W26518   3.429  28.890  28.724
25655W        W26519   2.365  27.387  27.880
25656W        W26520   0.423  27.132  25.835
25657W        W26521   3.336  28.647  26.544
25658W        W26522   3.313  26.233  26.042
25659W        W26523   1.344  25.506  28.459
25660W        W26524   3.212  28.307  26.928
25661W        W26525   3.058  26.887  26.756
25662W        W26526   1.170  26.749  26.927
25663W        W26527   1.620  26.858  28.257
25664W        W26528   2.674  28.064  28.300
25665W        W26529   1.091  26.669  28.237
25666W        W26530   1.196  28.931  26.957
25667W        W26531   0.844  28.910  28.674
25668W        W26532   0.485  28.281  25.805
25669W        W26533   3.243  27.804  26.745
25670W        W26534   0.594  26.683  28.363
25671W        W26535   3.501  26.692  25.837
25672W        W26536   1.252  27.754  26.166
25673W        W26537   2.242  27.183  28.363
25674W        W26538   2.274  26.856  27.974
25675W        W26539   0.908  27.151  28.108
25676W        W26540   3.066  28.948  27.937
25677W        W26541   2.845  25.692  28.808
25678W        W26542   0.557  25.813  28.402
25679W        W26543   0.939  26.906  27.399
25680W        W26544   1.235  26.649  25.528
25681W        W26545   0.132  28.479  28.170
25682W        W26546   1.612  27.193  27.535
25683W        W26547   1.521  26.299  25.779
25684W        W26548   0.644  27.138  26.344
25685W        W26549   0.378  28.851  27.876
25686W        W26550   3.107  27.153  25.921
25687W        W26551   3.169  26.013  28.553
25688W        W26552   2.785  28.059  26.665
25689W        W26553   0.319  27.013   0.038
25690W        W26554   3.269  25.723  26.010
25691W        W26555   2.744  28.030  26.155
25692W        W26556   1.441  27.126  26.279
25693W        W26557   2.896  26.062  25.727
25694W        W26558   2.882  26.690  27.911
25695W        W26559   0.456  27.050  27.218
25696W        W26560   0.793  28.075  26.749
25697W        W26561   2.609  26.659  26.685
25698W        W26562   1.635  26.252  27.527
25699W        W26563   3.525  28.069  27.896
25700W        W26564   3.594  26.162  27.671
25701W        W26565   0.183  28.766  26.869
25702W        W26566   0.412  28.064  26.302
25703W        W26567   0.709  25.524   0.209
25704W        W26568   1.760  28.480   0.078
25705W        W26569   3.582  27.424  26.956
25706W        W26570   2.814  27.578  25.902
25707W        W26571   2.864  27.737   0.021
25708W        W26572   1.579  25.590  26.262
25709W        W26573   2.425  26.435  27.090
25710W        W26574   0.198  27.987  27.445
25711W        W26575   1.346  26.050  26.207
25712W        W26576   1.261  27.494  28.842
25713W        W26577   2.122  26.463  26.675
25714W        W26578   2.432  27.918  27.819
25715W        W26579   0.619  28.563  28.306
25716W        W26580   1.255  28.560  28.853
25717W        W26581   1.025  26.386  25.984
25718W        W26582   2.515  26.414  26.242
25719W        W26583   2.452  28.512  28.461
25720W        W26584   1.262  27.221  27.143
25721W        W26585   0.852  28.631  27.863
25722W        W26586   3.482  28.835  25.630
25723W        W26587   0.425  27.556  28.718
25724W        W26588   2.367  27.828  27.298
25725W        W26589   0.802  27.668  26.423
25726W        W26590   1.354  28.542  27.876
25727W        W26591   1.705  26.016  27.056
25728W        W26592   0.079  27.892  25.892
25729W        W26593   1.609  26.823  25.846
25730W        W26594   0.577  27.391  26.803
25731W        W26595   1.621  25.969  28.268
25732W        W26596   3.366  25.862  25.536
25733W        W26597   3.418  27.521  28.832
25734W        W26598   2.111  28.809  28.850
25735W        W26599   3.548  27.896  28.506
25736W        W26600   3.147  28.504   0.058
25737W        W26601   0.767   0.005  27.499
25738W        W26602   3.675  27.668  26.489
25739W        W26603   2.227  26.919  26.944
25740W        W26604   1.866  25.673  26.692
25741W        W26605   1.090  28.490  26.717
25742W        W26606   1.483  26.418  28.008
25743W        W26607   1.407  25.747  27.389
25744W        W26608   0.421  28.864  25.714
25745W        W26609   1.907  27.786  26.735
25746W        W26610   1.161  28.705  28.323
25747W        W26611   0.410  27.559  26.114
25748W        W26612   0.426  26.093  27.139
25749W        W26613   1.870  28.056  27.199
25750W        W26614   0.094  25.880  26.245
25751W        W26615   2.709  27.086  28.180
25752W        W26616   2.536  26.452  25.723
25753W        W26617   3.121  28.105  27.397
25754W        W26618   2.006  28.577  27.082
25755W        W26619   1.208  28.661  26.242
25756W        W26620   2.398  25.531  25.544
25757W        W26621   0.312  28.805  27.360
25758W        W26622   2.249  26.538  28.886
25759W        W26623   0.628  26.045   0.030
25760W        W26624   0.296  26.721  26.494
25761W        W26625   1.106  26.900  25.963
25762W        W26626   2.451  27.021  28.829
25763W        W26627   1.111  27.342  27.652
25764W        W26628   2.539  25.590  26.927
25765W        W26629   1.697  28.986  27.134
25766W        W26630   2.807  28.521  28.091
25767W        W26631   2.499  28.684  27.201
25768W        W26632   2.428  27.664  26.803
25769W        W26633   1.839  25.982  26.052
25770W        W26634   3.655  25.675  26.696
25771W        W26635   1.154  27.191  25.526
25772W        W26636   3.416  26.523  26.750
25773W        W26637   2.043  27.572  25.831
25774W        W26638   3.044  27.794  28.546
25775W        W26639   2.701  28.533  25.816
25776W        W26640   1.396  26.368  28.528
25777W        W26641   1.286  26.883  27.820
25778W        W26642   3.196  28.205  28.270
25779W        W26643   2.421  26.197  28.516
25780W        W26644  28.964  26.767  28.304
25781W        W26645   1.894  27.203  27.967
25782W        W26646   0.329  27.851  26.802
25783W        W26647   0.605  27.221  27.685
25784W        W26648   2.787  27.586  28.121
25785W        W26649   2.646  28.804  28.839
25786W        W26650   2.458  26.702  28.432
25787W        W26651   2.857  28.686  26.832
25788W        W26652   1.800  28.477  28.113
25789W        W26653   1.176  28.706  27.432
25790W        W26654   2.971  27.990  27.868
25791W        W26655   2.005  28.022   0.051
25792W        W26656   0.652  27.912  27.207
25793W        W26657   2.860  27.744  27.100
25794W        W26658   2.643  28.889  27.652
25795W        W26659   0.613  28.389  27.476
25796W        W26660   1.710  26.534  28.911
25797W        W26661   1.950  28.603  26.322
25798W        W26662   1.471  28.060  28.999
25799W        W26663   1.397  28.200  26.404
25800W        W26664   0.756  26.841  25.569
25801W        W26665   3.766   3.610   3.416
25802W        W26666   4.072   2.558   2.898
25803W        W26667   6.815   2.241   0.790
25804W        W26668   7.117   3.266   2.654
25805W        W26669   4.954   3.406   0.241
25806W        W26670   4.926   1.424   1.247
25807W        W26671   4.440   1.433   1.452
25808W        W26672   5.393   2.073   0.756
25809W        W26673   5.220   3.204   3.151
25810W        W26674   3.919   0.840   3.038
25811W        W26675   4.443   0.034   2.823
25812W        W26676   6.393   0.542   1.895
25813W        W26677   5.874   1.176   0.500
25814W        W26678   6.541   0.819   3.442
25815W        W26679   3.890   0.499   2.624
25816W        W26680   3.951   3.123   3.584
25817W        W26681   5.274   2.346   0.287
25818W        W26682   3.890   1.205   2.095
25819W        W26683   4.753   1.214   3.267
25820W        W26684   7.175   1.041   1.778
25821W        W26685   6.963   2.088   2.600
25822W        W26686   5.346   1.548   1.608
25823W        W26687   5.895   2.836   1.997
25824W        W26688   4.298   2.129   2.193
25825W        W26689   3.583   1.636   2.016
25826W        W26690   4.763   1.632   2.955
25827W        W26691   7.062   1.540   3.286
25828W        W26692   4.569   2.838   1.732
25829W        W26693   5.727   2.609   2.758
25830W        W26694   5.110   1.229   1.970
25831W        W26695   5.161   2.052   1.706
25832W        W26696   6.005   2.900   3.473
25833W        W26697   5.363   1.979   3.568
25834W        W26698   5.306   1.846   3.017
25835W        W26699   3.722   1.162   3.686
25836W        W26700   6.458   2.736   3.210
25837W        W26701   4.087   0.310   1.055
25838W        W26702   4.598   2.592   2.217
25839W        W26703   7.042   2.490   1.548
25840W        W26704   6.830   0.778   2.076
25841W        W26705   6.927   0.885   0.149
25842W        W26706   7.450   1.534   2.469
25843W        W26707   5.229   3.168   2.240
25844W        W26708   6.851   2.709   0.550
25845W        W26709   4.287   3.598   0.590
25846W        W26710   4.468   3.528   1.072
25847W        W26711   4.521   0.396   2.290
25848W        W26712   6.982   1.385   2.762
25849W        W26713   6.247   1.692   1.292
25850W        W26714   6.291   1.431   0.344
25851W        W26715   5.482   2.659   2.265
25852W        W26716   5.595   1.146   1.799
25853W        W26717   5.854   3.028   2.495
25854W        W26718   6.851   1.826   1.108
25855W        W26719   5.832   0.481   1.146
25856W        W26720   4.195   3.111   0.820
25857W        W26721   3.720   0.581   1.304
25858W        W26722   6.275   1.379   1.770
25859W        W26723   4.025   2.920   1.772
25860W        W26724   5.174   3.094   0.638
25861W        W26725   6.583   1.215  28.987
25862W        W26726   3.806   2.961   2.252
25863W        W26727   4.550   2.655   2.752
25864W        W26728   4.735   1.992   1.376
25865W        W26729   5.036   0.480   2.328
25866W        W26730   7.245   0.257   1.910
25867W        W26731   4.250   1.927   0.129
25868W        W26732   4.107   1.014   0.384
25869W        W26733   3.951   2.964   1.265
25870W        W26734   5.013   2.521   1.493
25871W        W26735   6.669   3.240   2.942
25872W        W26736   5.553   0.926   0.813
25873W        W26737   6.857   3.507   1.537
25874W        W26738   6.544   1.267   3.043
25875W        W26739   7.329   2.884   1.329
25876W        W26740   5.888   2.131   2.751
25877W        W26741   3.790   1.736   1.246
25878W        W26742   4.660   2.197   2.545
25879W        W26743   5.926   1.373   0.970
25880W        W26744   5.767   1.849   1.096
25881W        W26745   4.333   1.228   2.416
25882W        W26746   4.130   1.234   3.377
25883W        W26747   3.985   0.144   1.538
25884W        W26748   5.906   0.427   2.016
25885W        W26749   5.584   0.679   3.223
25886W        W26750   6.003   0.518   0.524
25887W        W26751   7.158   3.141   3.174
25888W        W26752   5.929   0.248   3.227
25889W        W26753   6.946   2.616   3.343
25890W        W26754   6.579   0.729   2.937
25891W        W26755   6.323   0.636   1.330
25892W        W26756   6.615   1.790   3.473
25893W        W26757   4.273   3.326   1.537
25894W        W26758   5.049   1.064   0.876
25895W        W26759   4.600   0.357   3.236
25896W        W26760   6.591   0.976   0.989
25897W        W26761   6.995   1.378   0.926
25898W        W26762   4.780   3.416   3.402
25899W        W26763   4.724   0.101   0.617
25900W        W26764   6.988   0.586   1.623
25901W        W26765   7.226   2.837   0.224
25902W        W26766   3.907   2.036   1.821
25903W        W26767   6.081   0.449   0.010
25904W        W26768   7.117   2.919   1.845
25905W        W26769   7.061   0.288   2.420
25906W        W26770   5.652   1.445   3.064
25907W        W26771   5.340   2.590   0.770
25908W        W26772   6.129   1.963   3.601
25909W        W26773   5.764   0.162   1.589
25910W        W26774   4.243   1.049   1.757
25911W        W26775   4.131   2.105   2.686
25912W        W26776   5.836   3.279   1.569
25913W        W26777   7.106   1.176   2.275
25914W        W26778   5.723   3.311   2.951
25915W        W26779   6.862   2.199   0.292
25916W        W26780   5.247   1.865   1.221
25917W        W26781   7.255   0.277   2.894
25918W        W26782   5.387   2.252   2.605
25919W        W26783   5.848   0.961   2.194
25920W        W26784   6.430   1.450   0.869
25921W        W26785   6.754   1.259   0.487
25922W        W26786   6.637   3.047   0.927
25923W        W26787   6.446   2.491   1.684
25924W        W26788   6.056   1.769   0.635
25925W        W26789   5.663   1.986   1.591
25926W        W26790   6.647   1.838   1.610
25927W        W26791   4.187   0.783   2.198
25928W        W26792   6.734   1.791   2.965
25929W        W26793   7.129   3.345   2.126
25930W        W26794   4.991   3.042   1.520
25931W        W26795   6.226   3.396   2.735
25932W        W26796   6.084   0.628   2.475
25933W        W26797   5.329   3.495   2.680
25934W        W26798   6.862   0.537   1.118
25935W        W26799   6.946   1.656   2.337
25936W        W26800   3.886   1.030   2.573
25937W        W26801   6.594   0.961   1.643
25938W        W26802   6.997   1.041   3.151
25939W        W26803   5.875   2.700   1.488
25940W        W26804   4.927   3.306   1.048
25941W        W26805   4.221   0.506   0.532
25942W        W26806   5.421   0.210   2.019
25943W        W26807   4.425   3.284   0.147
25944W        W26808   4.510   1.773   0.581
25945W        W26809   5.464   2.333   3.115
25946W        W26810   5.324   0.612   1.156
25947W        W26811   6.623   0.250   1.523
25948W        W26812   6.256   3.524   1.779
25949W        W26813   5.710   3.317   2.070
25950W        W26814   5.072   2.253   2.188
25951W        W26815   6.882   2.935   2.330
25952W        W26816   4.545   0.497   0.952
25953W        W26817   5.033   2.742   1.978
25954W        W26818   4.558   0.951   0.094
25955W        W26819   5.512   1.324   2.313
25956W        W26820   6.283   0.180   2.292
25957W        W26821   3.782   2.051   2.328
25958W        W26822   5.253   1.783   0.309
25959W        W26823   4.665   0.462   0.230
25960W        W26824   5.428   1.378   1.110
25961W        W26825   6.261   0.319   2.826
25962W        W26826   4.982   2.243   2.939
25963W        W26827   5.783   1.934   3.210
25964W        W26828   6.283   2.024   3.099
25965W        W26829   5.603   0.360   3.648
25966W        W26830   4.744   1.073   1.648
25967W        W26831   4.252   0.709   1.368
25968W        W26832   3.954   3.453   1.127
25969W        W26833   5.589   2.844   3.185
25970W        W26834   4.388   2.289   0.468
25971W        W26835   6.144   1.879   1.762
25972W        W26836   6.484   1.719   2.114
25973W        W26837   5.572   2.126   2.124
25974W        W26838   6.034   2.363   0.081
25975W        W26839   5.564   0.643   1.666
25976W        W26840   7.246   0.939   0.873
25977W        W26841   3.912   3.347   2.989
25978W        W26842   4.104   2.564   2.381
25979W        W26843   3.618   3.465   0.744
25980W        W26844   5.544   0.576   2.353
25981W        W26845   4.896   2.658   0.491
25982W        W26846   6.980   3.205   0.551
25983W        W26847   5.580   1.604   0.666
25984W        W26848   4.581   1.029   1.123
25985W        W26849   5.601   0.778   0.286
25986W        W26850   5.973   2.439   3.220
25987W        W26851   6.427   0.486   0.840
25988W        W26852   3.805   0.251   0.351
25989W        W26853   5.023   2.630   2.536
25990W        W26854   4.705   2.275   1.821
25991W        W26855   4.765   2.318   0.103
25992W        W26856   3.698   2.953   0.765
25993W        W26857   4.485   1.622   3.443
25994W        W26858   5.104   0.443   3.527
25995W        W26859   5.736   0.393   2.789
25996W        W26860   4.947   0.197   1.115
25997W        W26861   5.875   0.065   0.798
25998W        W26862   4.029   0.293   2.172
25999W        W26863   3.861   1.072   1.412
26000W        W26864   6.739   0.199   2.031
26001W        W26865   4.112   0.848   0.897
26002W        W26866   6.601   0.534   2.455
26003W        W26867   7.048   1.654   0.215
26004W        W26868   4.533   0.604   1.810
26005W        W26869   5.666   0.936   2.712
26006W        W26870   3.664   0.751   0.381
26007W        W26871   4.495   2.147   3.050
26008W        W26872   5.727   1.638   1.966
26009W        W26873   5.473   3.390   0.272
26010W        W26874   3.775   2.033   0.337
26011W        W26875   4.630   2.608   3.263
26012W        W26876   4.198   1.725   3.024
26013W        W26877   5.044   1.857   2.570
26014W        W26878   6.755   0.221   2.839
26015W        W26879   7.286   1.820   2.909
26016W        W26880   7.158   1.880   0.661
26017W        W26881   5.916   2.253   0.796
26018W        W26882   6.670   3.526   0.183
26019W        W26883   5.730   1.605   3.599
26020W        W26884   4.200   2.590   3.553
26021W        W26885   7.423   0.608   3.538
26022W        W26886   6.802   1.387   1.880
26023W        W26887   5.241   3.421   3.617
26024W        W26888   5.138   0.252   0.334
26025W        W26889   6.458   2.628   0.237
26026W        W26890   4.401   0.820   3.208
26027W        W26891   5.099   2.719   3.054
26028W        W26892   7.062   0.729   2.703
26029W        W26893   6.483   3.814   0.585
26030W        W26894   6.424   2.222   2.114
26031W        W26895   4.735   0.489   2.745
26032W        W26896   5.215   1.494   3.391
26033W        W26897   4.494   2.669   0.824
26034W        W26898   6.377   2.023   0.935
26035W        W26899   4.321   0.773   2.695
26036W        W26900   5.398   2.806   1.283
26037W        W26901   7.143   1.465   1.474
26038W        W26902   5.415   0.198   3.176
26039W        W26903   6.399   2.743   2.125
26040W        W26904   6.672   3.199   1.926
26041W        W26905   5.718   2.576   0.418
26042W        W26906   3.783   2.696   3.296
26043W        W26907   4.704   0.924   2.194
26044W        W26908   4.487   0.264   1.409
26045W        W26909   6.361   1.006   2.137
26046W        W26910   4.899   2.109   0.559
26047W        W26911   6.947   2.026   1.990
26048W        W26912   4.228   2.967   3.159
26049W        W26913   6.754   3.668   1.040
26050W        W26914   4.840   0.651   1.366
26051W        W26915   4.388   1.863   1.750
26052W        W26916   4.896   3.558   2.408
26053W        W26917   6.879   3.602   3.227
26054W        W26918   6.022   1.937   2.284
26055W        W26919   4.020   1.616   0.529
26056W        W26920   7.073   3.257   1.103
26057W        W26921   6.856   0.725   0.622
26058W        W26922   4.972   0.089   2.939
26059W        W26923   6.784   2.974   1.453
26060W        W26924   6.661   1.391   1.345
26061W        W26925   5.221   1.032   1.454
26062W        W26926   5.214   1.384   2.765
26063W        W26927   6.254   2.487   2.798
26064W        W26928   4.776   1.031   2.740
26065W        W26929   4.818   3.525   1.510
26066W        W26930   4.272   3.456   3.356
26067W        W26931   4.401   2.794   0.318
26068W        W26932   6.948   2.660   1.059
26069W        W26933   4.350   1.253   2.919
26070W        W26934   7.256   1.240   0.453
26071W        W26935   5.004   2.287   1.035
26072W        W26936   6.051   1.645   2.781
26073W        W26937   6.073   1.424   2.280
26074W        W26938   4.451   1.715   2.555
26075W        W26939   6.657   3.400   2.415
26076W        W26940   6.426   0.339   3.319
26077W        W26941   4.099   0.342   3.069
26078W        W26942   4.514   1.407   1.987
26079W        W26943   4.808   1.319   0.454
26080W        W26944   3.711   2.906   2.788
26081W        W26945   5.231   1.721   2.107
26082W        W26946   5.054   0.804   0.264
26083W        W26947   4.278   1.694   1.045
26084W        W26948   3.848   3.433   2.488
26085W        W26949   6.660   1.774   0.547
26086W        W26950   6.971   0.540   3.225
26087W        W26951   6.368   2.725   1.244
26088W        W26952   3.955   1.709   3.476
26089W        W26953   6.863   0.214   0.616
26090W        W26954   6.403   2.555   0.766
26091W        W26955   5.064   1.637   0.780
26092W        W26956   6.501   0.462   0.319
26093W        W26957   6.683   1.036   2.535
26094W        W26958   3.985   1.521   1.683
26095W        W26959   4.508   2.494   1.342
26096W        W26960   6.221   1.150   1.314
26097W        W26961   5.069   0.711   1.864
26098W        W26962   7.190   2.536   2.459
26099W        W26963   7.315   0.687   2.215
26100W        W26964   3.749   3.334   1.577
26101W        W26965   4.039   2.524   1.018
26102W        W26966   4.188   0.343   3.575
26103W        W26967   4.979   2.939   3.543
26104W        W26968   7.163   1.972   1.516
26105W        W26969   6.350   2.164   0.440
26106W        W26970   5.803   3.555   2.507
26107W        W26971   6.545   2.292   3.469
26108W        W26972   5.228  28.960   0.758
26109W        W26973   6.045   0.883   1.717
26110W        W26974   3.735   2.499   1.992
26111W        W26975   5.011   0.553   0.734
26112W        W26976   4.889   1.937   3.354
26113W        W26977   5.725   0.984   1.301
26114W        W26978   6.001   2.464   2.349
26115W        W26979   4.192   3.034   2.643
26116W        W26980   4.476   3.034   3.607
26117W        W26981   4.610   0.858   0.597
26118W        W26982   6.069   0.874   0.909
26119W        W26983   6.065   2.942   2.965
26120W        W26984   4.865   1.626   1.712
26121W        W26985   4.378   3.538   2.345
26122W        W26986   7.179   3.352   0.098
26123W        W26987   4.002   2.181   3.244
26124W        W26988   5.968   2.343   1.853
26125W        W26989   4.506   2.157   0.946
26126W        W26990   4.733   3.074   2.490
26127W        W26991   5.184   0.313   1.554
26128W        W26992   3.655   2.440   0.660
26129W        W26993   5.328   1.225   0.440
26130W        W26994   4.151   2.107   1.345
26131W        W26995   5.256   0.574   2.801
26132W        W26996   7.007   0.377   0.157
26133W        W26997   7.031   2.076   3.314
26134W        W26998   5.731   3.356   3.458
26135W        W26999   7.241   2.386   2.948
26136W        W27000   6.718   3.110   3.448
26137W        W27001   4.450   3.690   1.846
26138W        W27002   7.250   2.227   1.085
26139W        W27003   5.832   1.475   1.477
26140W        W27004   5.474   0.097   1.177
26141W        W27005   4.519   3.012   1.224
26142W        W27006   5.182   0.959   2.427
26143W        W27007   4.896   0.173   1.952
26144W        W27008   3.944   3.258   0.383
26145W        W27009   5.528   2.313   1.212
26146W        W27010   4.720   3.071   3.026
26147W        W27011   4.014   2.061   0.804
26148W        W27012   3.930   0.640   1.769
26149W        W27013   5.469   2.469   1.744
26150W        W27014   3.654   0.416   0.804
26151W        W27015   6.505   1.513   2.581
26152W        W27016   6.371   0.925   0.501
26153W        W27017   6.854   2.522   2.024
26154W        W27018   5.451   2.977   1.773
26155W        W27019   4.664   3.142   0.615
26156W        W27020   6.048   0.023   0.293
26157W        W27021   4.014   3.402   1.997
26158W        W27022   5.794   1.113   3.448
26159W        W27023   4.173   0.830   3.692
26160W        W27024   3.902   1.329   0.963
26161W        W27025   4.370   1.292   0.730
26162W        W27026   6.163   1.535   3.299
26163W        W27027   4.733   1.861   2.146
26164W        W27028   6.225   0.120   1.200
26165W        W27029   5.260   3.449   1.787
26166W        W27030   6.428   2.939   2.598
26167W        W27031   6.273   2.997   1.682
26168W        W27032   6.094   2.218   1.343
26169W        W27033   5.509   0.409   0.684
26170W        W27034   7.198   0.174   1.304
26171W        W27035   4.772   1.757   0.135
26172W        W27036   6.997   1.000   1.306
26173W        W27037   5.703   2.047   0.345
26174W        W27038   6.707   2.318   2.981
26175W        W27039   6.438   3.112   0.448
26176W        W27040   4.927   0.745   3.149
26177W        W27041   4.853   1.406   2.386
26178W        W27042   6.901   2.790   2.846
26179W        W27043   6.065   0.746   3.038
26180W        W27044   3.828   1.353   2.981
26181W        W27045   5.575   1.770   2.548
26182W        W27046   3.845   2.498   1.497
26183W        W27047   4.103   1.664   2.169
26184W        W27048   6.426   2.028   2.600
26185W        W27049   6.248   3.341   3.269
26186W        W27050   6.181   1.103   2.672
26187W        W27051   6.419   3.349   1.317
26188W        W27052   5.377   2.980   2.702
26189W        W27053   4.778   3.271   1.974
26190W        W27054   6.663   2.488   2.494
26191W        W27055   5.601   2.459   3.598
26192W        W27056   4.233   2.454   1.817
26193W        W27057   6.661   2.271   1.282
26194W        W27058   6.217   3.209   2.190
26195W        W27059   4.338   3.036   2.155
26196W        W27060   5.242   0.970   3.487
26197W        W27061   5.370   3.333   1.304
26198W        W27062   5.077   2.411   3.472
26199W        W27063   4.944   2.797   1.031
26200W        W27064   4.367   1.431   0.196
26201W        W27065   3.697   3.734   7.097
26202W        W27066   4.130   2.577   6.675
26203W        W27067   6.869   2.171   4.322
26204W        W27068   6.943   3.262   6.315
26205W        W27069   4.778   3.331   3.903
26206W        W27070   4.845   1.412   4.750
26207W        W27071   4.487   1.210   5.098
26208W        W27072   5.153   1.978   4.602
26209W        W27073   5.174   3.238   6.783
26210W        W27074   3.863   0.853   6.722
26211W        W27075   4.381  28.988   6.489
26212W        W27076   6.207   0.513   5.346
26213W        W27077   5.923   1.275   3.968
26214W        W27078   6.418   0.844   7.041
26215W        W27079   3.838   0.554   6.279
26216W        W27080   3.846   3.243   7.216
26217W        W27081   5.174   2.629   3.941
26218W        W27082   3.822   1.287   5.786
26219W        W27083   4.819   1.308   6.918
26220W        W27084   7.044   1.143   5.503
26221W        W27085   7.012   2.026   6.347
26222W        W27086   5.432   1.305   5.397
26223W        W27087   5.880   2.777   5.684
26224W        W27088   4.277   2.152   5.916
26225W        W27089   3.521   1.705   5.670
26226W        W27090   4.784   1.721   6.581
26227W        W27091   7.099   1.252   6.675
26228W        W27092   4.465   2.934   5.324
26229W        W27093   5.698   2.620   6.405
26230W        W27094   5.003   1.200   5.705
26231W        W27095   5.057   2.037   5.315
26232W        W27096   5.988   2.922   7.133
26233W        W27097   5.412   2.017   7.206
26234W        W27098   5.281   1.838   6.723
26235W        W27099   3.620   1.201   7.239
26236W        W27100   6.430   2.703   6.866
26237W        W27101   4.084   0.274   4.794
26238W        W27102   4.591   2.555   5.908
26239W        W27103   7.065   2.407   5.209
26240W        W27104   6.562   0.880   5.569
26241W        W27105   7.006   0.902   3.662
26242W        W27106   7.112   1.522   5.878
26243W        W27107   5.186   3.226   5.916
26244W        W27108   6.918   2.692   4.194
26245W        W27109   4.114   3.632   4.357
26246W        W27110   4.505   3.528   4.718
26247W        W27111   4.265   0.346   6.083
26248W        W27112   6.848   1.524   6.309
26249W        W27113   6.183   1.620   4.771
26250W        W27114   6.375   1.573   3.889
26251W        W27115   5.461   2.605   5.940
26252W        W27116   5.418   0.820   5.150
26253W        W27117   5.819   3.048   6.153
26254W        W27118   6.652   1.705   4.416
26255W        W27119   5.337   0.472   4.757
26256W        W27120   4.373   3.182   4.356
26257W        W27121   3.759   0.643   4.927
26258W        W27122   6.372   1.251   5.243
26259W        W27123   3.965   2.897   5.357
26260W        W27124   5.220   3.162   4.073
26261W        W27125   6.677   1.294   3.568
26262W        W27126   3.791   3.010   6.014
26263W        W27127   4.560   2.608   6.419
26264W        W27128   4.740   1.877   4.946
26265W        W27129   4.959   0.489   6.004
26266W        W27130   7.188   0.285   5.615
26267W        W27131   4.426   2.128   3.569
26268W        W27132   4.038   1.041   4.138
26269W        W27133   4.130   2.854   4.875
26270W        W27134   4.954   2.359   4.904
26271W        W27135   6.554   3.207   6.673
26272W        W27136   5.483   1.052   4.295
26273W        W27137   6.851   3.357   5.311
26274W        W27138   6.509   1.273   6.612
26275W        W27139   7.249   2.817   4.986
26276W        W27140   5.901   2.147   6.461
26277W        W27141   3.802   1.802   4.808
26278W        W27142   4.704   2.144   6.211
26279W        W27143   5.827   1.385   4.478
26280W        W27144   5.677   1.744   4.840
26281W        W27145   4.243   1.270   6.102
26282W        W27146   4.068   1.279   6.968
26283W        W27147   4.011   0.181   5.283
26284W        W27148   5.689   0.565   5.548
26285W        W27149   5.543   0.601   6.996
26286W        W27150   5.944   0.460   4.047
26287W        W27151   7.047   3.156   6.838
26288W        W27152   5.869   0.193   6.864
26289W        W27153   6.927   2.661   6.978
26290W        W27154   6.462   0.748   6.546
26291W        W27155   6.187   0.582   4.802
26292W        W27156   6.600   1.742   7.203
26293W        W27157   4.197   3.331   5.096
26294W        W27158   4.956   1.200   4.279
26295W        W27159   4.625   0.394   6.915
26296W        W27160   6.542   0.919   4.517
26297W        W27161   7.060   1.406   4.568
26298W        W27162   4.666   3.418   7.033
26299W        W27163   4.634   0.190   4.260
26300W        W27164   6.971   0.645   5.307
26301W        W27165   7.142   2.874   3.746
26302W        W27166   3.987   2.052   5.482
26303W        W27167   6.030   0.649   3.550
26304W        W27168   7.087   2.892   5.479
26305W        W27169   6.958   0.282   6.074
26306W        W27170   5.601   1.419   6.801
26307W        W27171   5.336   2.466   4.517
26308W        W27172   6.090   1.930   7.308
26309W        W27173   5.827   0.065   5.434
26310W        W27174   4.111   1.060   5.428
26311W        W27175   3.998   2.146   6.395
26312W        W27176   5.649   3.244   5.180
26313W        W27177   6.763   1.138   5.980
26314W        W27178   5.689   3.316   6.583
26315W        W27179   6.957   2.307   3.806
26316W        W27180   5.215   1.625   5.035
26317W        W27181   7.187   0.273   6.554
26318W        W27182   5.389   2.214   6.304
26319W        W27183   5.653   1.035   5.777
26320W        W27184   6.314   1.331   4.342
26321W        W27185   6.798   1.248   4.139
26322W        W27186   6.645   2.930   4.569
26323W        W27187   6.284   2.554   5.408
26324W        W27188   6.126   1.816   4.287
26325W        W27189   5.566   1.873   5.339
26326W        W27190   6.525   1.735   5.137
26327W        W27191   4.067   0.812   5.887
26328W        W27192   6.628   1.773   6.690
26329W        W27193   7.056   3.308   5.781
26330W        W27194   4.961   2.937   5.257
26331W        W27195   6.171   3.438   6.371
26332W        W27196   5.839   0.851   6.244
26333W        W27197   5.283   3.533   6.332
26334W        W27198   6.783   0.481   4.630
26335W        W27199   6.743   1.887   5.932
26336W        W27200   3.792   1.067   6.251
26337W        W27201   6.565   0.825   5.034
26338W        W27202   5.803   2.592   5.193
26339W        W27203   5.173   3.244   4.913
26340W        W27204   4.203   0.516   4.107
26341W        W27205   5.377   0.195   5.717
26342W        W27206   4.271   3.464   3.880
26343W        W27207   4.726   1.764   4.392
26344W        W27208   5.465   2.335   6.790
26345W        W27209   5.176   0.980   4.704
26346W        W27210   6.584   0.298   5.057
26347W        W27211   6.343   3.462   5.411
26348W        W27212   5.664   3.284   5.720
26349W        W27213   5.040   2.223   5.822
26350W        W27214   6.881   2.865   5.974
26351W        W27215   4.531   0.465   4.672
26352W        W27216   5.010   2.780   5.750
26353W        W27217   4.712   0.819   3.620
26354W        W27218   5.376   1.385   6.041
26355W        W27219   6.204   0.267   5.824
26356W        W27220   3.759   2.073   5.951
26357W        W27221   5.103   1.664   4.053
26358W        W27222   4.658   0.331   3.770
26359W        W27223   5.579   1.245   4.908
26360W        W27224   6.134   0.433   6.307
26361W        W27225   4.971   2.235   6.628
26362W        W27226   5.789   1.888   6.883
26363W        W27227   6.266   2.098   6.841
26364W        W27228   5.556   0.332   7.435
26365W        W27229   4.664   0.852   5.450
26366W        W27230   4.271   0.711   5.078
26367W        W27231   3.905   3.274   4.667
26368W        W27232   5.569   2.870   6.827
26369W        W27233   4.381   2.287   4.111
26370W        W27234   6.206   1.756   5.554
26371W        W27235   6.153   1.258   5.701
26372W        W27236   5.533   2.038   5.854
26373W        W27237   6.138   2.470   3.730
26374W        W27238   5.767   0.447   5.063
26375W        W27239   7.068   0.880   4.478
26376W        W27240   3.854   3.356   6.702
26377W        W27241   4.091   2.592   6.136
26378W        W27242   3.579   3.521   4.341
26379W        W27243   5.470   0.588   6.020
26380W        W27244   4.767   2.889   4.150
26381W        W27245   6.765   3.179   4.006
26382W        W27246   5.622   1.693   4.113
26383W        W27247   4.640   0.959   4.653
26384W        W27248   5.637   0.831   3.852
26385W        W27249   5.948   2.501   6.833
26386W        W27250   6.364   0.476   4.339
26387W        W27251   3.832   0.192   3.926
26388W        W27252   5.028   2.576   6.225
26389W        W27253   4.791   2.470   5.410
26390W        W27254   4.672   2.562   3.775
26391W        W27255   3.897   2.796   4.419
26392W        W27256   4.448   1.659   6.983
26393W        W27257   5.063   0.391   7.225
26394W        W27258   5.625   0.427   6.483
26395W        W27259   4.924   0.162   4.818
26396W        W27260   5.825   0.284   4.549
26397W        W27261   3.844   0.270   5.801
26398W        W27262   3.948   1.149   4.939
26399W        W27263   6.673   0.352   5.615
26400W        W27264   4.141   0.792   4.577
26401W        W27265   6.547   0.616   6.037
26402W        W27266   7.141   1.396   3.772
26403W        W27267   4.321   0.487   5.579
26404W        W27268   5.486   0.942   6.604
26405W        W27269   3.696   0.697   3.976
26406W        W27270   4.438   2.098   6.672
26407W        W27271   5.732   1.571   5.711
26408W        W27272   5.616   3.506   4.007
26409W        W27273   3.978   2.046   3.868
26410W        W27274   4.640   2.503   6.917
26411W        W27275   4.062   1.694   6.647
26412W        W27276   5.105   1.803   6.183
26413W        W27277   6.635   0.263   6.462
26414W        W27278   7.339   1.635   6.417
26415W        W27279   7.337   2.392   4.201
26416W        W27280   5.681   2.076   4.464
26417W        W27281   6.611   3.570   3.653
26418W        W27282   5.717   1.548   7.301
26419W        W27283   4.226   2.585   7.194
26420W        W27284   7.311   0.510   7.079
26421W        W27285   6.661   1.491   5.599
26422W        W27286   5.130   3.421   7.265
26423W        W27287   5.115   0.264   4.024
26424W        W27288   6.612   2.716   3.765
26425W        W27289   4.396   0.876   6.898
26426W        W27290   5.077   2.728   6.727
26427W        W27291   6.936   0.731   6.351
26428W        W27292   6.375   3.650   4.118
26429W        W27293   6.363   2.185   5.784
26430W        W27294   4.628   0.471   6.409
26431W        W27295   5.209   1.545   7.155
26432W        W27296   4.448   2.675   4.495
26433W        W27297   6.420   2.086   4.686
26434W        W27298   4.264   0.838   6.386
26435W        W27299   5.340   2.727   4.985
26436W        W27300   6.999   1.530   5.130
26437W        W27301   5.328   0.164   6.834
26438W        W27302   6.345   2.679   5.891
26439W        W27303   6.580   3.012   5.578
26440W        W27304   5.485   2.961   3.674
26441W        W27305   3.785   2.765   7.014
26442W        W27306   4.609   0.886   5.988
26443W        W27307   4.520   0.266   5.146
26444W        W27308   6.097   0.760   5.798
26445W        W27309   4.860   2.086   3.856
26446W        W27310   6.919   1.943   5.444
26447W        W27311   4.240   3.049   6.920
26448W        W27312   6.752   3.604   4.569
26449W        W27313   4.898   0.645   5.017
26450W        W27314   4.518   2.023   5.431
26451W        W27315   4.825   3.585   6.075
26452W        W27316   6.766   3.574   6.954
26453W        W27317   5.998   1.876   6.024
26454W        W27318   3.984   1.533   3.987
26455W        W27319   6.982   3.216   4.828
26456W        W27320   6.780   0.714   4.098
26457W        W27321   4.892   0.052   6.568
26458W        W27322   6.718   2.801   5.127
26459W        W27323   6.614   1.338   4.801
26460W        W27324   5.004   1.136   5.168
26461W        W27325   5.161   1.357   6.520
26462W        W27326   6.271   2.530   6.399
26463W        W27327   4.767   0.962   6.509
26464W        W27328   4.735   3.398   5.182
26465W        W27329   4.189   3.577   7.027
26466W        W27330   4.252   2.807   4.021
26467W        W27331   6.799   2.468   4.741
26468W        W27332   4.418   1.324   6.582
26469W        W27333   7.357   1.185   4.182
26470W        W27334   4.872   2.381   4.290
26471W        W27335   6.117   1.668   6.522
26472W        W27336   5.894   1.361   6.145
26473W        W27337   4.378   1.750   6.253
26474W        W27338   6.566   3.468   6.017
26475W        W27339   6.373   0.331   6.898
26476W        W27340   4.140   0.401   6.669
26477W        W27341   4.496   1.306   5.662
26478W        W27342   4.904   1.278   3.764
26479W        W27343   3.743   2.880   6.510
26480W        W27344   5.195   1.692   5.669
26481W        W27345   5.117   0.805   3.964
26482W        W27346   4.336   1.591   4.768
26483W        W27347   3.869   3.507   6.203
26484W        W27348   6.866   1.785   3.947
26485W        W27349   6.851   0.569   6.848
26486W        W27350   6.304   2.584   4.883
26487W        W27351   3.794   1.702   7.100
26488W        W27352   6.772   0.198   4.152
26489W        W27353   6.456   2.488   4.337
26490W        W27354   5.316   1.495   4.520
26491W        W27355   6.419   0.480   3.829
26492W        W27356   6.302   1.053   6.175
26493W        W27357   4.128   1.572   5.266
26494W        W27358   4.460   2.497   5.012
26495W        W27359   6.126   1.104   4.808
26496W        W27360   5.172   0.711   5.589
26497W        W27361   7.220   2.505   6.132
26498W        W27362   7.032   0.733   5.826
26499W        W27363   3.676   3.278   5.154
26500W        W27364   4.060   2.362   4.645
26501W        W27365   4.175   0.470   7.178
26502W        W27366   5.224   2.921   7.207
26503W        W27367   6.908   1.951   4.824
26504W        W27368   6.473   2.110   3.966
26505W        W27369   5.754   3.617   6.122
26506W        W27370   6.672   2.246   7.155
26507W        W27371   5.296   0.053   4.466
26508W        W27372   5.913   0.963   5.284
26509W        W27373   3.774   2.518   5.659
26510W        W27374   4.962   0.592   4.417
26511W        W27375   4.887   1.958   7.051
26512W        W27376   5.712   0.803   4.693
26513W        W27377   5.934   2.388   6.017
26514W        W27378   4.220   3.060   6.366
26515W        W27379   4.710   2.932   7.194
26516W        W27380   4.584   0.862   4.128
26517W        W27381   6.034   0.895   4.314
26518W        W27382   6.065   2.964   6.607
26519W        W27383   4.798   1.572   5.352
26520W        W27384   4.336   3.437   5.997
26521W        W27385   7.094   3.384   3.667
26522W        W27386   3.969   2.154   6.926
26523W        W27387   5.904   2.213   5.542
26524W        W27388   4.529   2.178   4.606
26525W        W27389   4.723   3.028   6.136
26526W        W27390   5.274   0.319   5.233
26527W        W27391   3.730   2.309   4.248
26528W        W27392   5.408   1.293   3.852
26529W        W27393   4.223   2.032   5.011
26530W        W27394   5.122   0.559   6.540
26531W        W27395   6.933   0.384   3.703
26532W        W27396   7.101   1.893   6.860
26533W        W27397   5.611   3.308   7.107
26534W        W27398   7.228   2.400   6.638
26535W        W27399   6.635   3.093   7.168
26536W        W27400   4.354   3.592   5.505
26537W        W27401   7.286   2.338   4.724
26538W        W27402   5.916   1.488   5.222
26539W        W27403   5.573  28.993   4.928
26540W        W27404   4.597   3.045   4.842
26541W        W27405   5.135   0.952   6.158
26542W        W27406   4.874   0.208   5.557
26543W        W27407   3.892   3.202   4.098
26544W        W27408   5.460   2.210   4.967
26545W        W27409   4.686   3.066   6.654
26546W        W27410   4.139   1.892   4.377
26547W        W27411   3.831   0.631   5.438
26548W        W27412   5.401   2.386   5.466
26549W        W27413   3.761   0.454   4.426
26550W        W27414   6.388   1.546   6.071
26551W        W27415   6.377   1.003   3.922
26552W        W27416   6.768   2.488   5.616
26553W        W27417   5.423   2.900   5.481
26554W        W27418   4.891   3.289   4.465
26555W        W27419   6.047   0.099   3.698
26556W        W27420   3.926   3.338   5.629
26557W        W27421   5.879   1.057   7.094
26558W        W27422   4.062   0.932   7.350
26559W        W27423   3.932   1.407   4.487
26560W        W27424   4.435   1.337   4.327
26561W        W27425   6.177   1.490   7.016
26562W        W27426   4.700   1.772   5.839
26563W        W27427   6.115   0.072   4.957
26564W        W27428   5.208   3.401   5.420
26565W        W27429   6.441   3.017   6.232
26566W        W27430   6.118   3.020   5.293
26567W        W27431   6.069   2.018   5.096
26568W        W27432   5.477   0.537   4.262
26569W        W27433   7.076   0.075   4.826
26570W        W27434   4.446   1.771   3.955
26571W        W27435   7.026   1.046   4.971
26572W        W27436   5.315   2.140   4.095
26573W        W27437   6.701   2.303   6.645
26574W        W27438   6.299   3.186   3.777
26575W        W27439   4.927   0.811   6.977
26576W        W27440   4.771   1.368   6.163
26577W        W27441   6.829   2.777   6.486
26578W        W27442   5.989   0.685   6.736
26579W        W27443   3.666   1.343   6.662
26580W        W27444   5.609   1.735   6.349
26581W        W27445   3.910   2.434   5.135
26582W        W27446   4.151   1.677   5.788
26583W        W27447   6.402   2.034   6.303
26584W        W27448   6.135   3.382   6.917
26585W        W27449   6.010   1.173   6.609
26586W        W27450   6.481   3.239   4.962
26587W        W27451   5.332   2.988   6.349
26588W        W27452   4.724   3.233   5.667
26589W        W27453   6.714   2.397   6.127
26590W        W27454   5.610   2.538   7.248
26591W        W27455   4.272   2.490   5.509
26592W        W27456   6.587   2.237   5.162
26593W        W27457   6.168   3.202   5.821
26594W        W27458   4.272   2.958   5.805
26595W        W27459   5.358   1.061   7.106
26596W        W27460   5.410   3.014   4.525
26597W        W27461   5.098   2.427   7.147
26598W        W27462   4.958   2.788   4.620
26599W        W27463   4.401   1.264   3.817
26600W        W27464   3.710   3.720  10.719
26601W        W27465   4.110   2.590  10.233
26602W        W27466   7.008   2.023   7.919
26603W        W27467   7.088   3.276  10.000
26604W        W27468   4.679   3.333   7.544
26605W        W27469   5.051   1.376   8.403
26606W        W27470   4.592   1.240   8.786
26607W        W27471   5.354   1.976   8.098
26608W        W27472   5.142   3.253  10.417
26609W        W27473   3.896   0.886  10.387
26610W        W27474   4.442   0.024  10.185
26611W        W27475   6.274   0.616   9.005
26612W        W27476   5.879   1.271   7.721
26613W        W27477   6.478   0.908  10.662
26614W        W27478   3.832   0.636   9.940
26615W        W27479   3.868   3.232  10.822
26616W        W27480   5.155   2.621   7.649
26617W        W27481   3.823   1.194   9.425
26618W        W27482   4.733   1.357  10.575
26619W        W27483   7.102   1.053   9.027
26620W        W27484   6.980   2.103   9.856
26621W        W27485   5.412   1.463   9.040
26622W        W27486   5.914   2.754   9.308
26623W        W27487   4.257   2.157   9.611
26624W        W27488   3.497   1.623   9.357
26625W        W27489   4.791   1.748  10.197
26626W        W27490   6.996   1.561  10.528
26627W        W27491   4.496   2.898   8.961
26628W        W27492   5.703   2.649  10.059
26629W        W27493   5.061   1.170   9.349
26630W        W27494   5.148   2.078   8.948
26631W        W27495   5.945   2.960  10.812
26632W        W27496   5.354   2.046  10.829
26633W        W27497   5.344   1.871  10.339
26634W        W27498   3.601   1.241  10.875
26635W        W27499   6.498   2.700  10.502
26636W        W27500   4.014   0.259   8.558
26637W        W27501   4.635   2.548   9.549
26638W        W27502   7.222   2.394   9.025
26639W        W27503   6.630   0.972   9.279
26640W        W27504   6.894   0.821   7.309
26641W        W27505   7.262   1.647   9.755
26642W        W27506   5.305   3.199   9.495
26643W        W27507   7.162   2.536   8.069
26644W        W27508   4.024   3.526   8.012
26645W        W27509   4.402   3.475   8.374
26646W        W27510   4.267   0.383   9.834
26647W        W27511   6.855   1.379  10.001
26648W        W27512   6.302   1.636   8.492
26649W        W27513   6.278   1.544   7.579
26650W        W27514   5.504   2.716   9.596
26651W        W27515   5.486   0.762   8.827
26652W        W27516   5.898   3.041   9.783
26653W        W27517   6.733   1.721   8.215
26654W        W27518   5.434   0.413   8.447
26655W        W27519   4.281   3.080   8.053
26656W        W27520   3.693   0.674   8.606
26657W        W27521   6.337   1.282   8.952
26658W        W27522   3.994   2.937   9.076
26659W        W27523   5.127   3.141   7.700
26660W        W27524   6.599   1.243   7.310
26661W        W27525   3.821   3.029   9.566
26662W        W27526   4.605   2.603  10.065
26663W        W27527   4.976   1.975   8.450
26664W        W27528   5.062   0.509   9.700
26665W        W27529   7.255   0.307   9.265
26666W        W27530   4.416   2.103   7.221
26667W        W27531   4.103   1.049   7.853
26668W        W27532   4.142   2.900   8.556
26669W        W27533   4.892   2.483   8.542
26670W        W27534   6.642   3.187  10.298
26671W        W27535   5.574   0.977   7.993
26672W        W27536   6.792   3.565   8.839
26673W        W27537   6.524   1.370  10.396
26674W        W27538   7.289   2.737   8.591
26675W        W27539   5.889   2.155  10.151
26676W        W27540   3.661   1.685   8.443
26677W        W27541   4.778   2.129   9.810
26678W        W27542   5.909   1.355   8.222
26679W        W27543   5.819   1.851   8.309
26680W        W27544   4.318   1.243   9.649
26681W        W27545   4.118   1.329  10.548
26682W        W27546   4.128   0.342   9.085
26683W        W27547   5.788   0.581   9.224
26684W        W27548   5.614   0.662  10.589
26685W        W27549   6.003   0.474   7.728
26686W        W27550   7.198   3.166  10.518
26687W        W27551   5.992   0.215  10.470
26688W        W27552   7.013   2.624  10.702
26689W        W27553   6.557   0.784  10.174
26690W        W27554   6.274   0.595   8.472
26691W        W27555   6.574   1.801  10.710
26692W        W27556   4.235   3.337   8.843
26693W        W27557   5.040   1.099   7.953
26694W        W27558   4.613   0.413  10.538
26695W        W27559   6.632   0.899   8.258
26696W        W27560   6.936   1.265   8.088
26697W        W27561   4.691   3.382  10.650
26698W        W27562   4.577   0.252   7.929
26699W        W27563   7.097   0.548   8.832
26700W        W27564   7.112   2.906   7.387
26701W        W27565   4.143   2.019   9.129
26702W        W27566   6.018   0.544   7.223
26703W        W27567   7.172   2.886   9.219
26704W        W27568   7.027   0.322   9.744
26705W        W27569   5.660   1.464  10.426
26706W        W27570   5.399   2.490   8.105
26707W        W27571   6.085   1.873  11.082
26708W        W27572   5.868   0.079   9.154
26709W        W27573   4.236   1.103   9.135
26710W        W27574   3.879   2.179   9.971
26711W        W27575   5.683   3.425   8.800
26712W        W27576   6.998   1.253   9.517
26713W        W27577   5.686   3.327  10.196
26714W        W27578   7.049   1.953   7.397
26715W        W27579   5.400   1.720   8.586
26716W        W27580   7.389   0.355  10.206
26717W        W27581   5.431   2.213   9.921
26718W        W27582   5.577   1.041   9.290
26719W        W27583   6.412   1.338   8.055
26720W        W27584   6.635   0.975   7.753
26721W        W27585   6.797   2.782   8.350
26722W        W27586   6.399   2.733   9.101
26723W        W27587   6.265   1.834   8.015
26724W        W27588   5.665   1.929   8.998
26725W        W27589   6.733   1.818   8.727
26726W        W27590   4.129   0.780   9.532
26727W        W27591   6.704   1.829  10.207
26728W        W27592   7.129   3.351   9.456
26729W        W27593   4.993   2.910   8.862
26730W        W27594   6.204   3.459  10.013
26731W        W27595   6.037   0.827   9.856
26732W        W27596   5.250   3.527   9.913
26733W        W27597   6.961   0.516   8.293
26734W        W27598   6.769   1.710   9.605
26735W        W27599   3.883   1.165   9.929
26736W        W27600   6.661   0.855   8.775
26737W        W27601   6.939   1.061  10.422
26738W        W27602   5.841   2.571   8.815
26739W        W27603   5.134   3.229   8.480
26740W        W27604   4.173   0.540   7.697
26741W        W27605   5.454   0.225   9.445
26742W        W27606   4.191   3.520   7.534
26743W        W27607   4.924   1.695   7.985
26744W        W27608   5.462   2.372  10.417
26745W        W27609   5.255   0.880   8.372
26746W        W27610   6.651   0.333   8.694
26747W        W27611   6.315   3.466   9.033
26748W        W27612   5.792   3.278   9.302
26749W        W27613   5.117   2.231   9.447
26750W        W27614   6.896   2.932   9.658
26751W        W27615   4.521   0.472   8.394
26752W        W27616   5.071   2.743   9.339
26753W        W27617   4.580   0.745   7.382
26754W        W27618   5.443   1.422   9.607
26755W        W27619   6.224   0.360   9.454
26756W        W27620   3.738   2.077   9.488
26757W        W27621   5.314   1.726   7.632
26758W        W27622   4.604   0.232   7.418
26759W        W27623   5.540   1.229   8.576
26760W        W27624   6.250   0.391  10.013
26761W        W27625   4.990   2.245  10.252
26762W        W27626   5.831   2.049  10.650
26763W        W27627   6.318   2.192  10.449
26764W        W27628   5.609   0.357  10.984
26765W        W27629   4.713   0.845   9.104
26766W        W27630   4.223   0.735   8.746
26767W        W27631   3.871   3.323   8.445
26768W        W27632   5.538   2.899  10.481
26769W        W27633   4.551   2.023   7.759
26770W        W27634   6.289   1.794   9.039
26771W        W27635   6.368   1.453   9.426
26772W        W27636   5.544   1.928   9.496
26773W        W27637   6.200   2.438   7.273
26774W        W27638   5.870   0.415   8.745
26775W        W27639   7.279   0.880   8.046
26776W        W27640   3.827   3.428  10.318
26777W        W27641   4.093   2.624   9.719
26778W        W27642   3.513   3.410   8.042
26779W        W27643   5.563   0.674   9.678
26780W        W27644   4.678   2.873   7.763
26781W        W27645   6.985   3.006   7.898
26782W        W27646   5.799   1.770   7.787
26783W        W27647   4.751   0.937   8.397
26784W        W27648   5.679   0.822   7.506
26785W        W27649   5.945   2.549  10.504
26786W        W27650   6.477   0.478   8.004
26787W        W27651   3.694   0.250   7.661
26788W        W27652   5.077   2.562   9.843
26789W        W27653   4.766   2.442   9.051
26790W        W27654   4.677   2.477   7.450
26791W        W27655   3.692   2.902   8.179
26792W        W27656   4.390   1.770  10.531
26793W        W27657   5.099   0.377  10.745
26794W        W27658   5.735   0.485  10.118
26795W        W27659   4.923   0.151   8.467
26796W        W27660   5.913   0.324   8.215
26797W        W27661   3.853   0.344   9.516
26798W        W27662   3.824   1.151   8.759
26799W        W27663   6.736   0.442   9.206
26800W        W27664   4.074   0.665   8.212
26801W        W27665   6.607   0.615   9.682
26802W        W27666   7.065   1.470   7.213
26803W        W27667   4.548   0.475   9.421
26804W        W27668   5.607   0.993  10.178
26805W        W27669   3.687   0.767   7.680
26806W        W27670   4.369   2.092  10.110
26807W        W27671   5.882   1.477   9.247
26808W        W27672   5.509   3.496   7.611
26809W        W27673   3.810   1.949   7.600
26810W        W27674   4.548   2.322  10.517
26811W        W27675   4.038   1.682  10.124
26812W        W27676   5.171   1.786   9.855
26813W        W27677   6.719   0.195  10.132
26814W        W27678   7.250   1.884  10.228
26815W        W27679   7.299   1.636   7.724
26816W        W27680   6.057   2.223   7.737
26817W        W27681   6.432   3.579   7.337
26818W        W27682   5.675   1.616  10.916
26819W        W27683   4.178   2.584  10.758
26820W        W27684   7.418   0.664  10.680
26821W        W27685   6.783   1.475   9.102
26822W        W27686   5.138   3.458  10.908
26823W        W27687   5.105   0.199   7.725
26824W        W27688   6.949   2.432   7.582
26825W        W27689   4.407   0.903  10.538
26826W        W27690   5.058   2.753  10.320
26827W        W27691   6.997   0.871   9.926
26828W        W27692   6.386   3.714   7.878
26829W        W27693   6.484   2.101   9.431
26830W        W27694   4.700   0.522  10.053
26831W        W27695   5.186   1.563  10.740
26832W        W27696   4.497   2.612   8.185
26833W        W27697   6.468   2.126   8.413
26834W        W27698   4.304   0.865  10.029
26835W        W27699   5.372   2.748   8.557
26836W        W27700   7.181   1.458   8.726
26837W        W27701   5.474   0.186  10.468
26838W        W27702   6.309   2.572   9.569
26839W        W27703   6.732   3.166   9.193
26840W        W27704   5.604   2.979   7.542
26841W        W27705   3.758   2.791  10.561
26842W        W27706   4.705   0.899   9.662
26843W        W27707   4.594   0.354   8.897
26844W        W27708   6.117   0.984   9.365
26845W        W27709   5.016   2.115   7.551
26846W        W27710   6.917   1.996   9.182
26847W        W27711   4.182   3.076  10.434
26848W        W27712   6.743   3.619   8.320
26849W        W27713   5.009   0.591   8.725
26850W        W27714   4.589   2.001   8.804
26851W        W27715   4.994   3.636   9.464
26852W        W27716   6.862   3.544  10.607
26853W        W27717   6.053   1.848   9.579
26854W        W27718   4.001   1.438   7.498
26855W        W27719   7.036   3.214   8.494
26856W        W27720   6.963   0.578   7.773
26857W        W27721   4.959   0.124  10.269
26858W        W27722   6.843   2.702   8.861
26859W        W27723   6.705   1.326   8.564
26860W        W27724   5.094   1.095   8.837
26861W        W27725   5.180   1.376  10.225
26862W        W27726   6.210   2.557  10.074
26863W        W27727   4.809   1.007  10.177
26864W        W27728   4.741   3.382   8.799
26865W        W27729   4.218   3.564  10.637
26866W        W27730   4.267   3.021   7.463
26867W        W27731   6.945   2.312   8.512
26868W        W27732   4.439   1.360  10.142
26869W        W27733   7.115   1.152   7.624
26870W        W27734   4.914   2.300   8.031
26871W        W27735   6.126   1.720  10.370
26872W        W27736   5.945   1.322   9.729
26873W        W27737   4.482   1.719   9.760
26874W        W27738   6.650   3.392   9.697
26875W        W27739   6.465   0.394  10.532
26876W        W27740   4.118   0.405  10.327
26877W        W27741   4.623   1.459   9.284
26878W        W27742   4.931   1.135   7.410
26879W        W27743   3.721   2.973  10.082
26880W        W27744   5.079   1.709   9.355
26881W        W27745   5.174   0.722   7.614
26882W        W27746   4.596   1.621   8.423
26883W        W27747   3.843   3.523   9.810
26884W        W27748   6.783   1.569   7.691
26885W        W27749   6.958   0.556  10.443
26886W        W27750   6.356   2.608   8.605
26887W        W27751   3.817   1.711  10.722
26888W        W27752   6.752   0.101   7.755
26889W        W27753   6.659   2.389   8.021
26890W        W27754   5.434   1.469   8.072
26891W        W27755   6.482   0.526   7.485
26892W        W27756   6.478   1.102   9.776
26893W        W27757   3.916   1.559   9.054
26894W        W27758   4.388   2.463   8.687
26895W        W27759   6.236   1.102   8.498
26896W        W27760   5.205   0.670   9.238
26897W        W27761   7.229   2.560   9.818
26898W        W27762   7.097   0.755   9.437
26899W        W27763   3.717   3.350   8.924
26900W        W27764   3.996   2.454   8.328
26901W        W27765   4.182   0.508  10.822
26902W        W27766   4.928   2.980  10.907
26903W        W27767   7.223   1.960   8.752
26904W        W27768   6.552   2.039   7.627
26905W        W27769   5.744   3.544   9.738
26906W        W27770   6.645   2.287  10.834
26907W        W27771   5.336   0.007   8.170
26908W        W27772   5.915   1.009   8.890
26909W        W27773   3.731   2.554   9.312
26910W        W27774   4.997   0.526   8.116
26911W        W27775   4.875   1.964  10.666
26912W        W27776   5.800   0.807   8.413
26913W        W27777   5.862   2.336   9.660
26914W        W27778   4.191   3.116   9.922
26915W        W27779   4.607   2.821  10.547
26916W        W27780   4.583   0.783   7.917
26917W        W27781   6.135   0.892   8.020
26918W        W27782   6.093   3.017  10.300
26919W        W27783   4.943   1.612   8.857
26920W        W27784   4.564   3.428   9.705
26921W        W27785   6.980   3.404   7.419
26922W        W27786   4.012   2.146  10.488
26923W        W27787   6.059   2.262   9.187
26924W        W27788   4.478   2.113   8.295
26925W        W27789   4.857   3.003   9.744
26926W        W27790   5.386   0.254   8.929
26927W        W27791   3.625   2.357   7.960
26928W        W27792   5.390   1.235   7.588
26929W        W27793   4.065   2.004   8.618
26930W        W27794   5.202   0.620  10.243
26931W        W27795   6.927   0.323   7.329
26932W        W27796   7.115   2.054  10.694
26933W        W27797   5.619   3.386  10.705
26934W        W27798   7.313   2.414  10.323
26935W        W27799   6.777   3.068  10.799
26936W        W27800   4.516   3.616   9.220
26937W        W27801   7.392   2.117   8.267
26938W        W27802   5.890   1.540   8.747
26939W        W27803   5.711  28.966   8.550
26940W        W27804   4.641   3.001   8.478
26941W        W27805   5.204   1.001   9.836
26942W        W27806   4.968   0.203   9.289
26943W        W27807   3.822   3.155   7.720
26944W        W27808   5.496   2.226   8.573
26945W        W27809   4.645   3.167  10.177
26946W        W27810   3.948   1.972   8.112
26947W        W27811   3.824   0.760   9.107
26948W        W27812   5.533   2.393   9.193
26949W        W27813   3.600   0.478   8.122
26950W        W27814   6.354   1.578   9.928
26951W        W27815   6.194   0.952   7.497
26952W        W27816   6.825   2.497   9.364
26953W        W27817   5.487   2.924   9.059
26954W        W27818   4.792   3.283   8.073
26955W        W27819   5.991   0.045   7.368
26956W        W27820   4.055   3.418   9.330
26957W        W27821   5.887   1.080  10.712
26958W        W27822   4.043   0.986  10.946
26959W        W27823   3.792   1.468   7.978
26960W        W27824   4.584   1.303   7.801
26961W        W27825   6.219   1.441  10.822
26962W        W27826   4.652   2.003   9.318
26963W        W27827   6.223   0.070   8.550
26964W        W27828   5.215   3.391   9.017
26965W        W27829   6.424   2.975   9.891
26966W        W27830   6.042   3.047   8.902
26967W        W27831   6.048   2.099   8.697
26968W        W27832   5.500   0.477   7.937
26969W        W27833   7.220   0.118   8.473
26970W        W27834   4.788   1.644   7.452
26971W        W27835   7.092   0.984   8.513
26972W        W27836   5.522   2.221   7.667
26973W        W27837   6.813   2.306  10.336
26974W        W27838   5.991   3.338   7.458
26975W        W27839   4.906   0.841  10.658
26976W        W27840   4.857   1.381   9.789
26977W        W27841   6.966   2.802  10.211
26978W        W27842   6.086   0.736  10.372
26979W        W27843   3.654   1.357  10.337
26980W        W27844   5.695   1.718   9.965
26981W        W27845   3.897   2.438   8.841
26982W        W27846   4.013   1.659   9.567
26983W        W27847   6.368   2.098   9.927
26984W        W27848   6.329   3.537  10.517
26985W        W27849   6.077   1.221  10.216
26986W        W27850   6.549   3.104   8.712
26987W        W27851   5.338   3.015   9.981
26988W        W27852   4.807   3.187   9.271
26989W        W27853   6.693   2.517   9.886
26990W        W27854   5.601   2.514  10.891
26991W        W27855   4.254   2.512   9.214
26992W        W27856   6.544   2.258   8.932
26993W        W27857   6.272   3.117   9.423
26994W        W27858   4.360   2.994   9.452
26995W        W27859   5.358   1.095  10.669
26996W        W27860   5.456   3.030   8.081
26997W        W27861   5.074   2.476  10.751
26998W        W27862   5.000   2.812   8.156
26999W        W27863   4.456   1.251   7.296
27000W        W27864   3.715   3.654  14.383
27001W        W27865   4.118   2.579  13.817
27002W        W27866   6.885   2.154  11.661
27003W        W27867   7.086   3.308  13.695
27004W        W27868   4.682   3.347  11.183
27005W        W27869   4.960   1.414  12.030
27006W        W27870   4.617   1.309  12.502
27007W        W27871   5.361   1.980  11.737
27008W        W27872   5.136   3.270  13.982
27009W        W27873   3.683   0.856  13.971
27010W        W27874   4.367   0.148  13.849
27011W        W27875   6.358   0.499  12.573
27012W        W27876   5.951   1.328  11.264
27013W        W27877   6.597   0.832  14.275
27014W        W27878   3.825   0.560  13.563
27015W        W27879   3.850   3.160  14.465
27016W        W27880   5.129   2.643  11.272
27017W        W27881   3.785   1.253  13.001
27018W        W27882   4.860   1.437  14.137
27019W        W27883   7.228   1.017  12.658
27020W        W27884   6.967   2.040  13.417
27021W        W27885   5.490   1.387  12.622
27022W        W27886   5.948   2.784  12.916
27023W        W27887   4.308   2.174  13.168
27024W        W27888   3.415   1.637  12.917
27025W        W27889   4.848   1.801  13.755
27026W        W27890   7.057   1.554  14.168
27027W        W27891   4.494   2.938  12.595
27028W        W27892   5.770   2.663  13.680
27029W        W27893   5.060   1.355  12.931
27030W        W27894   5.123   2.159  12.558
27031W        W27895   6.061   2.981  14.401
27032W        W27896   5.419   2.061  14.444
27033W        W27897   5.385   1.914  13.925
27034W        W27898   3.672   1.199  14.368
27035W        W27899   6.476   2.716  14.175
27036W        W27900   3.989   0.307  12.129
27037W        W27901   4.640   2.650  13.181
27038W        W27902   7.089   2.427  12.473
27039W        W27903   6.880   0.767  12.931
27040W        W27904   7.001   0.869  10.948
27041W        W27905   7.460   1.556  13.383
27042W        W27906   5.332   3.232  13.127
27043W        W27907   7.131   2.714  11.632
27044W        W27908   4.008   3.586  11.650
27045W        W27909   4.391   3.498  12.016
27046W        W27910   4.460   0.508  13.280
27047W        W27911   6.967   1.503  13.572
27048W        W27912   6.331   1.711  12.090
27049W        W27913   6.529   1.648  11.203
27050W        W27914   5.558   2.658  13.210
27051W        W27915   5.577   0.888  12.531
27052W        W27916   5.920   3.055  13.396
27053W        W27917   7.091   1.782  12.007
27054W        W27918   5.408   0.637  11.985
27055W        W27919   4.282   3.124  11.679
27056W        W27920   3.640   0.649  12.291
27057W        W27921   6.367   1.399  12.510
27058W        W27922   3.972   2.956  12.682
27059W        W27923   5.132   3.172  11.368
27060W        W27924   6.723   1.300  10.872
27061W        W27925   3.785   3.020  13.205
27062W        W27926   4.634   2.638  13.700
27063W        W27927   4.985   1.966  12.094
27064W        W27928   4.945   0.654  13.350
27065W        W27929   7.265   0.275  12.762
27066W        W27930   4.441   2.077  10.956
27067W        W27931   4.170   1.094  11.440
27068W        W27932   4.150   2.930  12.180
27069W        W27933   4.909   2.491  12.185
27070W        W27934   6.625   3.186  13.932
27071W        W27935   5.579   1.006  11.624
27072W        W27936   6.854   3.409  12.489
27073W        W27937   6.673   1.264  13.948
27074W        W27938   7.359   2.742  12.135
27075W        W27939   5.930   2.185  13.721
27076W        W27940   3.658   1.744  12.108
27077W        W27941   4.797   2.182  13.378
27078W        W27942   5.878   1.395  11.787
27079W        W27943   5.850   1.908  11.958
27080W        W27944   4.123   1.337  13.418
27081W        W27945   4.164   1.369  14.143
27082W        W27946   4.004   0.275  12.622
27083W        W27947   5.956   0.614  12.870
27084W        W27948   5.641   0.710  14.161
27085W        W27949   6.027   0.441  11.351
27086W        W27950   7.100   3.201  14.205
27087W        W27951   5.941   0.281  14.057
27088W        W27952   6.971   2.680  14.317
27089W        W27953   6.585   0.768  13.745
27090W        W27954   6.313   0.657  12.055
27091W        W27955   6.692   1.787  14.494
27092W        W27956   4.219   3.361  12.478
27093W        W27957   5.078   1.025  11.518
27094W        W27958   4.482   0.476  14.233
27095W        W27959   6.706   1.012  11.828
27096W        W27960   7.156   1.323  11.782
27097W        W27961   4.737   3.318  14.317
27098W        W27962   4.556   0.268  11.557
27099W        W27963   7.010   0.574  12.449
27100W        W27964   7.259   2.895  11.099
27101W        W27965   4.047   2.091  12.718
27102W        W27966   6.092   0.587  10.856
27103W        W27967   7.192   2.908  12.680
27104W        W27968   7.067   0.303  13.241
27105W        W27969   5.722   1.493  13.997
27106W        W27970   5.438   2.532  11.716
27107W        W27971   6.197   1.941  14.586
27108W        W27972   5.918   0.090  12.666
27109W        W27973   4.200   1.109  12.725
27110W        W27974   3.901   2.168  13.530
27111W        W27975   5.917   3.186  12.421
27112W        W27976   7.114   1.210  13.150
27113W        W27977   5.753   3.376  13.820
27114W        W27978   6.924   1.985  11.168
27115W        W27979   5.422   1.691  12.178
27116W        W27980   7.262   0.276  13.716
27117W        W27981   5.454   2.260  13.535
27118W        W27982   5.879   1.128  12.927
27119W        W27983   6.375   1.296  11.558
27120W        W27984   6.854   1.288  11.367
27121W        W27985   6.751   2.998  11.848
27122W        W27986   6.564   2.425  12.599
27123W        W27987   6.201   1.770  11.586
27124W        W27988   5.732   1.973  12.504
27125W        W27989   6.833   1.719  12.571
27126W        W27990   4.092   0.872  13.198
27127W        W27991   6.666   1.795  13.957
27128W        W27992   7.175   3.328  13.016
27129W        W27993   4.997   2.924  12.498
27130W        W27994   6.235   3.444  13.604
27131W        W27995   6.127   0.852  13.390
27132W        W27996   5.296   3.542  13.561
27133W        W27997   6.945   0.549  11.904
27134W        W27998   6.792   1.666  13.096
27135W        W27999   3.697   1.050  13.480
27136W        W28000   6.623   0.930  12.386
27137W        W28001   7.094   1.045  14.173
27138W        W28002   5.910   2.633  12.414
27139W        W28003   5.134   3.253  12.132
27140W        W28004   4.183   0.578  11.326
27141W        W28005   5.496   0.389  12.756
27142W        W28006   4.180   3.518  11.151
27143W        W28007   4.880   1.801  11.606
27144W        W28008   5.487   2.408  14.037
27145W        W28009   4.953   0.888  12.016
27146W        W28010   6.661   0.273  12.225
27147W        W28011   6.326   3.457  12.618
27148W        W28012   5.804   3.269  12.933
27149W        W28013   5.192   2.270  13.067
27150W        W28014   6.993   2.945  13.323
27151W        W28015   4.520   0.547  11.993
27152W        W28016   5.120   2.774  12.967
27153W        W28017   4.539   0.862  11.049
27154W        W28018   5.518   1.443  13.171
27155W        W28019   6.261   0.213  13.037
27156W        W28020   3.684   2.045  13.087
27157W        W28021   5.249   1.735  11.235
27158W        W28022   4.644   0.360  11.046
27159W        W28023   5.417   1.177  12.104
27160W        W28024   6.218   0.348  13.593
27161W        W28025   5.026   2.276  13.830
27162W        W28026   5.844   2.008  14.187
27163W        W28027   6.324   2.161  14.111
27164W        W28028   5.632   0.306  14.493
27165W        W28029   4.718   0.955  12.920
27166W        W28030   4.157   0.748  12.334
27167W        W28031   3.872   3.356  12.085
27168W        W28032   5.591   2.938  14.106
27169W        W28033   4.520   2.306  11.434
27170W        W28034   6.355   1.868  12.717
27171W        W28035   6.338   1.422  13.021
27172W        W28036   5.696   2.097  13.112
27173W        W28037   6.127   2.366  10.947
27174W        W28038   5.873   0.509  12.366
27175W        W28039   7.493   0.939  11.731
27176W        W28040   3.819   3.362  13.962
27177W        W28041   4.074   2.612  13.307
27178W        W28042   3.489   3.521  11.648
27179W        W28043   5.622   0.775  13.228
27180W        W28044   4.679   2.885  11.396
27181W        W28045   6.808   3.029  11.322
27182W        W28046   5.713   1.752  11.436
27183W        W28047   4.466   1.080  12.023
27184W        W28048   5.765   0.848  11.158
27185W        W28049   5.974   2.543  14.126
27186W        W28050   6.531   0.625  11.538
27187W        W28051   3.711   0.290  11.307
27188W        W28052   5.095   2.622  13.449
27189W        W28053   4.764   2.496  12.704
27190W        W28054   4.638   2.560  10.997
27191W        W28055   3.777   2.945  11.799
27192W        W28056   4.462   1.805  14.115
27193W        W28057   5.097   0.210  14.389
27194W        W28058   5.736   0.523  13.654
27195W        W28059   4.926   0.247  12.096
27196W        W28060   5.867   0.435  11.850
27197W        W28061   3.978   0.377  13.118
27198W        W28062   3.784   1.138  12.378
27199W        W28063   6.748   0.275  12.840
27200W        W28064   4.076   0.724  11.808
27201W        W28065   6.562   0.564  13.263
27202W        W28066   7.154   1.563  11.009
27203W        W28067   4.340   0.616  12.804
27204W        W28068   5.682   1.050  13.709
27205W        W28069   3.712   0.821  11.342
27206W        W28070   4.393   2.154  13.688
27207W        W28071   5.889   1.643  12.859
27208W        W28072   5.501   3.532  11.274
27209W        W28073   3.684   2.370  10.845
27210W        W28074   4.604   2.314  14.109
27211W        W28075   4.090   1.727  13.749
27212W        W28076   5.205   1.835  13.367
27213W        W28077   6.738   0.264  13.637
27214W        W28078   7.269   1.861  13.800
27215W        W28079   7.234   1.744  11.501
27216W        W28080   5.957   2.215  11.483
27217W        W28081   6.591   3.485  11.057
27218W        W28082   5.798   1.605  14.505
27219W        W28083   4.228   2.557  14.352
27220W        W28084   7.415   0.671  14.329
27221W        W28085   6.778   1.250  12.770
27222W        W28086   5.230   3.450  14.481
27223W        W28087   5.147   0.249  11.249
27224W        W28088   6.933   2.498  11.207
27225W        W28089   4.555   1.006  14.136
27226W        W28090   5.109   2.769  13.933
27227W        W28091   7.032   0.765  13.472
27228W        W28092   6.491   3.369  11.577
27229W        W28093   6.556   2.175  13.080
27230W        W28094   4.589   0.646  13.759
27231W        W28095   5.316   1.577  14.312
27232W        W28096   4.517   2.652  11.828
27233W        W28097   6.390   2.183  11.835
27234W        W28098   4.155   0.957  13.770
27235W        W28099   5.378   2.769  12.187
27236W        W28100   7.220   1.440  12.385
27237W        W28101   5.418   0.271  13.995
27238W        W28102   6.434   2.682  13.049
27239W        W28103   6.745   3.074  12.877
27240W        W28104   5.433   2.998  10.987
27241W        W28105   3.763   2.711  14.190
27242W        W28106   4.547   1.022  13.400
27243W        W28107   4.504   0.296  12.430
27244W        W28108   6.383   0.914  12.908
27245W        W28109   4.949   2.162  11.164
27246W        W28110   7.036   2.088  12.873
27247W        W28111   4.179   3.013  14.075
27248W        W28112   6.825   3.527  11.951
27249W        W28113   4.665   0.789  12.437
27250W        W28114   4.612   2.044  12.481
27251W        W28115   4.947   3.639  13.192
27252W        W28116   6.788   3.601  14.270
27253W        W28117   6.141   1.874  13.247
27254W        W28118   3.912   1.475  11.195
27255W        W28119   7.129   3.177  12.136
27256W        W28120   7.041   0.825  11.481
27257W        W28121   4.910   0.251  13.841
27258W        W28122   6.788   2.874  12.383
27259W        W28123   6.756   1.403  12.158
27260W        W28124   5.080   1.104  12.480
27261W        W28125   5.272   1.450  13.735
27262W        W28126   6.303   2.534  13.737
27263W        W28127   4.910   1.064  13.773
27264W        W28128   4.739   3.387  12.473
27265W        W28129   4.237   3.487  14.280
27266W        W28130   4.355   3.053  10.933
27267W        W28131   6.861   2.521  12.021
27268W        W28132   4.504   1.391  13.767
27269W        W28133   7.348   1.184  11.280
27270W        W28134   4.968   2.325  11.684
27271W        W28135   6.142   1.748  13.842
27272W        W28136   5.982   1.367  13.388
27273W        W28137   4.475   1.749  13.394
27274W        W28138   6.689   3.363  13.368
27275W        W28139   6.459   0.354  14.083
27276W        W28140   3.995   0.449  14.049
27277W        W28141   4.507   1.410  13.018
27278W        W28142   4.942   1.197  11.034
27279W        W28143   3.711   2.899  13.711
27280W        W28144   5.355   1.817  12.857
27281W        W28145   5.249   0.756  11.078
27282W        W28146   4.525   1.669  12.129
27283W        W28147   3.846   3.504  13.454
27284W        W28148   6.704   1.671  11.697
27285W        W28149   6.972   0.559  14.046
27286W        W28150   6.378   2.645  12.144
27287W        W28151   3.799   1.717  14.273
27288W        W28152   6.953   0.332  11.380
27289W        W28153   6.592   2.595  11.577
27290W        W28154   5.340   1.466  11.675
27291W        W28155   6.605   0.537  11.019
27292W        W28156   6.636   1.095  13.326
27293W        W28157   3.855   1.608  12.606
27294W        W28158   4.397   2.496  12.318
27295W        W28159   6.280   1.187  12.051
27296W        W28160   5.218   0.826  12.906
27297W        W28161   7.258   2.486  13.362
27298W        W28162   7.366   0.701  13.063
27299W        W28163   3.656   3.381  12.550
27300W        W28164   4.022   2.493  11.921
27301W        W28165   4.066   0.473  14.586
27302W        W28166   5.110   2.953  14.418
27303W        W28167   7.312   1.951  12.434
27304W        W28168   6.463   2.163  11.313
27305W        W28169   5.767   3.563  13.345
27306W        W28170   6.684   2.293  14.452
27307W        W28171   5.299   0.121  11.750
27308W        W28172   6.102   0.959  12.487
27309W        W28173   3.730   2.525  12.897
27310W        W28174   5.002   0.526  11.656
27311W        W28175   4.958   1.953  14.235
27312W        W28176   5.844   0.919  12.058
27313W        W28177   6.057   2.433  13.296
27314W        W28178   4.170   3.068  13.562
27315W        W28179   4.662   2.810  14.201
27316W        W28180   4.589   0.817  11.567
27317W        W28181   6.079   0.887  11.609
27318W        W28182   6.114   3.007  13.891
27319W        W28183   5.010   1.646  12.502
27320W        W28184   4.520   3.397  13.355
27321W        W28185   7.127   3.390  11.065
27322W        W28186   4.017   2.141  14.055
27323W        W28187   6.078   2.294  12.803
27324W        W28188   4.532   2.156  11.945
27325W        W28189   4.948   3.125  13.455
27326W        W28190   5.146   0.594  12.427
27327W        W28191   3.567   2.496  11.605
27328W        W28192   5.433   1.250  11.184
27329W        W28193   4.086   2.049  12.206
27330W        W28194   5.278   0.714  13.756
27331W        W28195   7.106   0.350  10.905
27332W        W28196   7.114   2.063  14.257
27333W        W28197   5.743   3.409  14.335
27334W        W28198   7.289   2.389  13.869
27335W        W28199   6.663   3.112  14.464
27336W        W28200   4.486   3.592  12.882
27337W        W28201   7.295   2.248  11.994
27338W        W28202   5.890   1.453  12.304
27339W        W28203   5.501   0.178  12.243
27340W        W28204   4.651   3.039  12.117
27341W        W28205   5.236   1.074  13.373
27342W        W28206   4.838   0.450  12.861
27343W        W28207   3.790   3.223  11.345
27344W        W28208   5.445   2.249  12.169
27345W        W28209   4.611   3.151  13.833
27346W        W28210   3.847   2.043  11.724
27347W        W28211   3.836   0.743  12.759
27348W        W28212   5.552   2.422  12.725
27349W        W28213   3.615   0.477  11.785
27350W        W28214   6.466   1.550  13.511
27351W        W28215   6.323   0.975  11.147
27352W        W28216   6.926   2.576  12.960
27353W        W28217   5.510   2.939  12.668
27354W        W28218   4.792   3.319  11.713
27355W        W28219   6.064   0.082  10.982
27356W        W28220   4.003   3.413  12.951
27357W        W28221   5.920   1.121  14.319
27358W        W28222   4.085   0.889  14.295
27359W        W28223   3.823   1.422  11.713
27360W        W28224   4.656   1.328  11.464
27361W        W28225   6.288   1.512  14.286
27362W        W28226   4.835   1.845  12.974
27363W        W28227   6.165   0.137  12.170
27364W        W28228   5.239   3.387  12.638
27365W        W28229   6.453   2.945  13.498
27366W        W28230   6.327   2.920  12.600
27367W        W28231   6.185   2.170  12.311
27368W        W28232   5.513   0.521  11.479
27369W        W28233   7.227   0.133  12.084
27370W        W28234   4.769   1.682  11.078
27371W        W28235   7.098   0.987  12.156
27372W        W28236   5.459   2.218  11.297
27373W        W28237   6.778   2.323  13.931
27374W        W28238   6.484   2.722  11.053
27375W        W28239   4.959   0.677  14.156
27376W        W28240   4.872   1.432  13.396
27377W        W28241   6.954   2.806  13.821
27378W        W28242   6.105   0.750  13.914
27379W        W28243   3.746   1.363  13.868
27380W        W28244   5.695   1.768  13.537
27381W        W28245   3.885   2.488  12.417
27382W        W28246   4.062   1.706  13.077
27383W        W28247   6.460   2.079  13.584
27384W        W28248   6.260   3.448  14.184
27385W        W28249   6.170   1.240  13.847
27386W        W28250   6.450   3.225  12.184
27387W        W28251   5.429   3.029  13.600
27388W        W28252   4.812   3.185  12.947
27389W        W28253   6.736   2.508  13.445
27390W        W28254   5.649   2.519  14.522
27391W        W28255   4.253   2.550  12.820
27392W        W28256   6.716   2.075  12.225
27393W        W28257   6.292   3.190  13.069
27394W        W28258   4.312   3.025  13.066
27395W        W28259   5.305   1.097  14.125
27396W        W28260   5.467   3.097  11.767
27397W        W28261   5.064   2.446  14.343
27398W        W28262   5.014   2.842  11.794
27399W        W28263   4.396   1.354  10.985
27400W        W28264   3.840   3.611  18.062
27401W        W28265   4.111   2.537  17.501
27402W        W28266   6.941   2.086  15.286
27403W        W28267   7.133   3.293  17.286
27404W        W28268   4.665   3.257  14.889
27405W        W28269   5.212   1.403  15.577
27406W        W28270   4.698   1.212  16.245
27407W        W28271   5.478   1.840  15.363
27408W        W28272   5.117   3.256  17.694
27409W        W28273   3.706   0.773  17.674
27410W        W28274   4.365   0.234  17.357
27411W        W28275   6.419   0.467  16.406
27412W        W28276   5.913   1.234  14.840
27413W        W28277   6.426   0.896  17.959
27414W        W28278   3.892   0.528  17.232
27415W        W28279   3.940   3.115  18.152
27416W        W28280   5.240   2.637  14.827
27417W        W28281   3.768   1.218  16.715
27418W        W28282   4.739   1.401  17.921
27419W        W28283   7.191   1.002  16.380
27420W        W28284   6.891   2.008  17.119
27421W        W28285   5.498   1.451  16.350
27422W        W28286   5.975   2.839  16.662
27423W        W28287   4.271   2.157  16.907
27424W        W28288   3.469   1.777  16.778
27425W        W28289   4.806   1.759  17.502
27426W        W28290   6.948   1.474  17.787
27427W        W28291   4.498   2.855  16.330
27428W        W28292   5.648   2.746  17.402
27429W        W28293   5.075   1.270  16.598
27430W        W28294   5.164   2.159  16.283
27431W        W28295   6.594   3.153  17.957
27432W        W28296   5.375   2.052  18.139
27433W        W28297   5.262   1.957  17.638
27434W        W28298   3.734   1.222  18.211
27435W        W28299   6.504   2.696  17.731
27436W        W28300   4.023   0.276  15.757
27437W        W28301   4.508   2.593  16.987
27438W        W28302   7.064   2.458  16.277
27439W        W28303   6.830   0.733  16.635
27440W        W28304   7.008   0.883  14.642
27441W        W28305   7.390   1.528  17.051
27442W        W28306   5.156   3.231  16.750
27443W        W28307   7.224   2.600  15.381
27444W        W28308   4.012   3.623  15.355
27445W        W28309   4.424   3.529  15.685
27446W        W28310   4.503   0.504  16.933
27447W        W28311   6.917   1.466  17.274
27448W        W28312   6.404   1.679  15.860
27449W        W28313   6.350   1.502  14.824
27450W        W28314   5.428   2.731  16.917
27451W        W28315   5.675   1.011  16.162
27452W        W28316   5.827   3.108  17.086
27453W        W28317   6.912   1.770  15.729
27454W        W28318   5.582   0.421  15.622
27455W        W28319   4.316   3.204  15.287
27456W        W28320   3.671   0.644  15.914
27457W        W28321   6.303   1.301  16.231
27458W        W28322   3.990   3.022  16.382
27459W        W28323   5.157   3.159  14.899
27460W        W28324   6.726   1.284  14.493
27461W        W28325   3.778   3.070  16.924
27462W        W28326   4.604   2.714  17.470
27463W        W28327   5.191   2.262  15.788
27464W        W28328   5.079   0.493  16.901
27465W        W28329   7.307   0.172  16.452
27466W        W28330   4.586   2.127  14.578
27467W        W28331   3.911   0.944  14.788
27468W        W28332   4.166   2.890  15.919
27469W        W28333   4.848   2.542  16.122
27470W        W28334   6.647   3.142  17.432
27471W        W28335   5.821   0.886  15.221
27472W        W28336   6.807   3.328  16.390
27473W        W28337   6.480   1.320  17.561
27474W        W28338   7.277   2.879  15.965
27475W        W28339   5.870   2.211  17.462
27476W        W28340   3.477   1.526  15.947
27477W        W28341   4.760   2.141  17.067
27478W        W28342   6.073   1.370  15.308
27479W        W28343   5.947   1.804  15.607
27480W        W28344   4.148   1.297  17.090
27481W        W28345   4.185   1.234  17.895
27482W        W28346   3.961   0.250  16.253
27483W        W28347   5.933   0.625  16.565
27484W        W28348   5.494   0.707  17.802
27485W        W28349   6.128   0.540  14.919
27486W        W28350   7.074   3.263  17.798
27487W        W28351   5.861   0.316  17.796
27488W        W28352   7.278   2.376  18.159
27489W        W28353   6.473   0.779  17.456
27490W        W28354   6.408   0.682  15.720
27491W        W28355   6.561   1.892  18.144
27492W        W28356   4.306   3.403  16.195
27493W        W28357   5.334   0.877  15.045
27494W        W28358   4.500   0.399  17.835
27495W        W28359   6.782   0.947  15.491
27496W        W28360   7.110   1.342  15.517
27497W        W28361   4.806   3.352  18.091
27498W        W28362   4.699   0.190  15.196
27499W        W28363   7.080   0.526  16.184
27500W        W28364   7.186   2.969  14.681
27501W        W28365   4.215   2.019  16.416
27502W        W28366   6.126   0.644  14.403
27503W        W28367   7.143   2.926  16.487
27504W        W28368   7.130   0.274  17.073
27505W        W28369   5.667   1.703  17.788
27506W        W28370   5.503   2.612  15.579
27507W        W28371   6.093   1.973  18.448
27508W        W28372   5.935   0.119  16.435
27509W        W28373   4.212   1.086  16.427
27510W        W28374   3.884   2.116  17.250
27511W        W28375   5.867   3.250  16.285
27512W        W28376   7.065   1.170  16.853
27513W        W28377   5.627   3.273  17.541
27514W        W28378   7.055   2.023  14.770
27515W        W28379   5.452   1.764  15.888
27516W        W28380   7.373   0.237  17.542
27517W        W28381   5.397   2.308  17.251
27518W        W28382   5.859   1.135  16.653
27519W        W28383   6.590   1.423  15.430
27520W        W28384   6.739   1.141  15.007
27521W        W28385   6.890   2.940  15.604
27522W        W28386   6.487   2.480  16.384
27523W        W28387   6.331   1.819  15.242
27524W        W28388   5.625   1.958  16.339
27525W        W28389   6.807   1.657  16.252
27526W        W28390   4.110   0.838  16.873
27527W        W28391   6.645   1.825  17.604
27528W        W28392   7.212   3.358  16.756
27529W        W28393   5.020   3.029  16.259
27530W        W28394   6.291   3.455  17.204
27531W        W28395   6.053   0.833  17.101
27532W        W28396   5.319   3.597  17.133
27533W        W28397   7.004   0.506  15.619
27534W        W28398   6.818   1.615  16.783
27535W        W28399   3.741   1.026  17.224
27536W        W28400   6.671   0.831  16.138
27537W        W28401   6.902   1.011  17.604
27538W        W28402   5.990   2.586  16.206
27539W        W28403   5.165   3.262  15.823
27540W        W28404   4.303   0.513  15.057
27541W        W28405   5.497   0.311  16.631
27542W        W28406   4.173   3.496  14.807
27543W        W28407   5.002   1.830  15.170
27544W        W28408   5.491   2.397  17.749
27545W        W28409   5.413   0.926  15.561
27546W        W28410   6.661   0.308  15.978
27547W        W28411   6.319   3.546  16.277
27548W        W28412   5.633   3.432  16.737
27549W        W28413   5.150   2.292  16.774
27550W        W28414   7.032   2.901  16.993
27551W        W28415   4.488   0.493  15.569
27552W        W28416   4.913   2.765  16.675
27553W        W28417   4.481   0.807  14.627
27554W        W28418   5.463   1.415  16.942
27555W        W28419   6.337   0.132  16.768
27556W        W28420   3.766   2.189  16.753
27557W        W28421   5.389   1.697  14.831
27558W        W28422   4.654   0.268  14.669
27559W        W28423   5.724   1.323  15.710
27560W        W28424   6.186   0.352  17.374
27561W        W28425   4.887   2.287  17.557
27562W        W28426   5.869   2.124  17.992
27563W        W28427   6.327   2.205  17.767
27564W        W28428   5.518   0.351  18.199
27565W        W28429   4.762   0.855  16.638
27566W        W28430   4.178   0.730  15.996
27567W        W28431   3.934   3.322  15.778
27568W        W28432   5.516   2.911  17.894
27569W        W28433   4.681   2.329  15.100
27570W        W28434   6.329   1.797  16.369
27571W        W28435   6.335   1.427  16.725
27572W        W28436   5.587   2.029  16.847
27573W        W28437   6.209   2.463  14.569
27574W        W28438   5.655   0.497  16.154
27575W        W28439   7.339   0.892  15.430
27576W        W28440   3.945   3.308  17.646
27577W        W28441   3.987   2.600  17.020
27578W        W28442   3.547   3.400  15.431
27579W        W28443   5.560   0.756  16.900
27580W        W28444   4.879   2.815  15.174
27581W        W28445   7.028   3.335  15.273
27582W        W28446   5.873   1.736  15.004
27583W        W28447   4.890   0.906  15.647
27584W        W28448   5.733   0.779  14.699
27585W        W28449   5.955   2.627  17.812
27586W        W28450   6.576   0.455  15.285
27587W        W28451   3.717   0.189  14.900
27588W        W28452   4.991   2.603  17.149
27589W        W28453   4.646   2.340  16.554
27590W        W28454   4.732   2.662  14.687
27591W        W28455   3.685   2.914  15.562
27592W        W28456   4.392   1.767  17.820
27593W        W28457   5.023   0.475  17.988
27594W        W28458   5.678   0.529  17.356
27595W        W28459   4.904   0.200  15.744
27596W        W28460   6.062   0.445  15.417
27597W        W28461   4.012   0.343  16.764
27598W        W28462   3.758   1.157  16.171
27599W        W28463   6.825   0.218  16.628
27600W        W28464   4.012   0.728  15.484
27601W        W28465   6.501   0.558  16.988
27602W        W28466   7.167   1.533  14.668
27603W        W28467   4.351   0.586  16.455
27604W        W28468   5.581   1.045  17.354
27605W        W28469   3.517   0.650  14.968
27606W        W28470   4.394   2.112  17.426
27607W        W28471   5.884   1.649  16.643
27608W        W28472   5.550   3.511  14.896
27609W        W28473   3.652   2.252  14.408
27610W        W28474   4.475   2.393  17.864
27611W        W28475   4.063   1.665  17.446
27612W        W28476   5.178   1.859  17.136
27613W        W28477   6.734   0.324  17.414
27614W        W28478   7.235   1.854  17.466
27615W        W28479   7.291   1.701  15.176
27616W        W28480   6.064   2.217  15.016
27617W        W28481   6.470   3.560  14.660
27618W        W28482   5.677   1.545  18.278
27619W        W28483   4.161   2.590  18.250
27620W        W28484   7.351   0.526  18.001
27621W        W28485   6.739   1.213  16.469
27622W        W28486   5.417   3.382  18.079
27623W        W28487   5.151   0.208  14.915
27624W        W28488   6.973   2.515  14.877
27625W        W28489   4.592   0.905  17.862
27626W        W28490   5.137   2.744  17.604
27627W        W28491   6.970   0.756  17.160
27628W        W28492   6.703   3.698  15.080
27629W        W28493   6.516   2.041  16.767
27630W        W28494   4.673   0.637  17.418
27631W        W28495   5.207   1.580  18.022
27632W        W28496   4.511   2.792  15.541
27633W        W28497   6.533   2.121  15.607
27634W        W28498   4.201   0.880  17.481
27635W        W28499   5.357   2.645  16.090
27636W        W28500   7.205   1.408  16.063
27637W        W28501   5.365   0.221  17.698
27638W        W28502   6.330   2.504  16.864
27639W        W28503   6.643   2.906  16.651
27640W        W28504   5.575   3.026  14.631
27641W        W28505   3.803   2.655  17.906
27642W        W28506   4.581   1.009  17.098
27643W        W28507   4.459   0.293  16.042
27644W        W28508   6.343   0.923  16.637
27645W        W28509   5.053   2.154  14.777
27646W        W28510   6.992   2.038  16.549
27647W        W28511   4.261   2.914  17.817
27648W        W28512   6.806   3.706  15.583
27649W        W28513   4.750   0.711  16.126
27650W        W28514   4.689   2.035  16.126
27651W        W28515   4.837   3.589  16.983
27652W        W28516   6.877   3.769  17.865
27653W        W28517   6.059   1.952  17.018
27654W        W28518   3.747   1.458  14.800
27655W        W28519   7.109   3.357  15.815
27656W        W28520   7.000   0.669  15.105
27657W        W28521   4.870   0.175  17.543
27658W        W28522   6.785   2.862  16.122
27659W        W28523   6.732   1.283  15.906
27660W        W28524   5.180   1.122  16.049
27661W        W28525   5.279   1.464  17.481
27662W        W28526   6.164   2.609  17.348
27663W        W28527   4.935   1.084  17.511
27664W        W28528   4.847   3.528  16.229
27665W        W28529   4.320   3.448  17.979
27666W        W28530   4.350   3.040  14.557
27667W        W28531   6.942   2.443  15.779
27668W        W28532   4.482   1.345  17.481
27669W        W28533   7.257   1.178  15.027
27670W        W28534   5.162   2.345  15.276
27671W        W28535   6.133   1.781  17.518
27672W        W28536   5.988   1.395  17.109
27673W        W28537   4.461   1.712  17.102
27674W        W28538   6.719   3.346  16.932
27675W        W28539   6.366   0.395  17.845
27676W        W28540   4.010   0.358  17.693
27677W        W28541   4.542   1.351  16.724
27678W        W28542   4.946   1.079  14.520
27679W        W28543   3.724   2.878  17.412
27680W        W28544   5.208   1.773  16.635
27681W        W28545   5.253   0.663  14.580
27682W        W28546   4.948   1.832  15.698
27683W        W28547   3.901   3.538  17.177
27684W        W28548   6.796   1.658  15.018
27685W        W28549   6.850   0.568  17.858
27686W        W28550   6.441   2.564  15.876
27687W        W28551   3.904   1.679  18.004
27688W        W28552   6.940   0.134  15.009
27689W        W28553   6.692   2.539  15.321
27690W        W28554   5.558   1.341  15.196
27691W        W28555   6.614   0.544  14.751
27692W        W28556   6.581   1.115  17.064
27693W        W28557   3.819   1.659  16.393
27694W        W28558   4.333   2.417  16.073
27695W        W28559   6.251   1.174  15.742
27696W        W28560   5.239   0.736  16.436
27697W        W28561   7.189   2.439  17.171
27698W        W28562   7.321   0.635  16.755
27699W        W28563   3.760   3.475  16.239
27700W        W28564   3.896   2.452  15.758
27701W        W28565   4.136   0.206  18.177
27702W        W28566   5.112   2.964  18.273
27703W        W28567   7.234   1.940  16.099
27704W        W28568   6.572   2.140  14.923
27705W        W28569   5.822   3.630  17.213
27706W        W28570   6.739   2.370  18.091
27707W        W28571   5.310   0.036  15.410
27708W        W28572   6.155   0.824  16.154
27709W        W28573   3.671   2.661  16.603
27710W        W28574   5.123   0.515  15.376
27711W        W28575   4.844   1.973  17.994
27712W        W28576   5.887   0.814  15.730
27713W        W28577   5.840   2.444  16.990
27714W        W28578   4.211   3.010  17.299
27715W        W28579   4.756   2.861  17.929
27716W        W28580   4.863   0.656  14.947
27717W        W28581   6.329   0.919  15.247
27718W        W28582   6.124   3.079  17.543
27719W        W28583   5.030   1.627  16.179
27720W        W28584   4.379   3.422  17.047
27721W        W28585   7.001   3.445  14.732
27722W        W28586   4.006   2.129  17.778
27723W        W28587   6.044   2.191  16.554
27724W        W28588   4.704   2.323  15.656
27725W        W28589   4.745   3.061  17.095
27726W        W28590   5.208   0.604  15.919
27727W        W28591   3.480   2.447  15.402
27728W        W28592   5.441   1.201  14.638
27729W        W28593   3.836   1.904  15.930
27730W        W28594   5.178   0.611  17.403
27731W        W28595   7.063   0.378  14.553
27732W        W28596   7.048   1.969  17.933
27733W        W28597   5.915   3.317  17.971
27734W        W28598   7.317   2.372  17.652
27735W        W28599   6.976   2.823  18.092
27736W        W28600   4.514   3.718  16.587
27737W        W28601   7.318   2.120  15.628
27738W        W28602   5.925   1.620  16.093
27739W        W28603   5.664   0.020  15.956
27740W        W28604   4.660   3.127  15.907
27741W        W28605   5.124   0.988  17.036
27742W        W28606   4.819   0.340  16.491
27743W        W28607   3.846   3.193  15.054
27744W        W28608   5.682   2.247  15.926
27745W        W28609   4.603   3.241  17.577
27746W        W28610   3.465   1.839  15.520
27747W        W28611   3.846   0.715  16.421
27748W        W28612   5.586   2.443  16.515
27749W        W28613   3.628   0.406  15.410
27750W        W28614   6.464   1.662  17.151
27751W        W28615   6.341   0.990  14.711
27752W        W28616   6.853   2.460  16.776
27753W        W28617   5.496   2.961  16.475
27754W        W28618   4.832   3.297  15.404
27755W        W28619   6.137   0.161  14.522
27756W        W28620   4.055   3.450  16.662
27757W        W28621   5.997   1.155  18.121
27758W        W28622   4.135   0.723  18.040
27759W        W28623   3.692   1.363  15.336
27760W        W28624   5.071   1.319  15.010
27761W        W28625   6.121   1.658  18.018
27762W        W28626   4.696   1.838  16.638
27763W        W28627   6.117   0.329  15.980
27764W        W28628   5.365   3.431  16.284
27765W        W28629   6.330   2.982  17.045
27766W        W28630   6.317   3.006  16.277
27767W        W28631   6.173   2.125  16.018
27768W        W28632   5.601   0.429  15.084
27769W        W28633   7.257   0.129  15.879
27770W        W28634   4.910   1.651  14.641
27771W        W28635   7.117   0.941  15.881
27772W        W28636   5.544   2.181  14.943
27773W        W28637   6.825   2.297  17.577
27774W        W28638   6.769   2.991  14.986
27775W        W28639   5.090   1.001  18.007
27776W        W28640   4.898   1.437  17.095
27777W        W28641   7.001   2.793  17.573
27778W        W28642   5.997   0.800  17.664
27779W        W28643   3.725   1.307  17.666
27780W        W28644   5.659   1.765  17.285
27781W        W28645   3.794   2.298  16.252
27782W        W28646   3.983   1.732  16.882
27783W        W28647   6.427   2.176  17.270
27784W        W28648   6.341   3.530  17.721
27785W        W28649   5.967   1.310  17.619
27786W        W28650   6.596   3.298  15.897
27787W        W28651   5.257   3.086  17.232
27788W        W28652   4.667   3.241  16.611
27789W        W28653   6.667   2.636  17.226
27790W        W28654   5.607   2.521  18.229
27791W        W28655   4.163   2.530  16.549
27792W        W28656   6.698   2.117  16.096
27793W        W28657   6.157   3.343  16.717
27794W        W28658   4.272   2.986  16.793
27795W        W28659   5.537   1.212  17.875
27796W        W28660   5.307   3.050  15.371
27797W        W28661   5.076   2.461  18.037
27798W        W28662   5.010   2.769  15.691
27799W        W28663   4.501   1.345  14.525
27800W        W28664   3.707   3.695  21.631
27801W        W28665   4.115   2.543  21.175
27802W        W28666   6.852   2.106  18.945
27803W        W28667   6.979   3.344  20.931
27804W        W28668   4.781   3.309  18.599
27805W        W28669   4.916   1.428  19.343
27806W        W28670   4.509   1.325  19.661
27807W        W28671   5.342   1.943  19.045
27808W        W28672   5.180   3.309  21.275
27809W        W28673   3.693   0.753  21.232
27810W        W28674   4.445   0.075  21.076
27811W        W28675   6.423   0.521  20.105
27812W        W28676   5.765   1.166  18.642
27813W        W28677   6.465   0.923  21.596
27814W        W28678   3.896   0.534  20.807
27815W        W28679   3.842   3.216  21.749
27816W        W28680   5.184   2.522  18.554
27817W        W28681   3.861   1.214  20.287
27818W        W28682   4.793   1.306  21.604
27819W        W28683   7.188   1.085  19.970
27820W        W28684   6.993   2.122  20.865
27821W        W28685   5.463   1.446  20.009
27822W        W28686   5.869   2.779  20.330
27823W        W28687   4.304   2.117  20.510
27824W        W28688   3.544   1.610  20.241
27825W        W28689   4.840   1.742  21.176
27826W        W28690   6.984   1.565  21.482
27827W        W28691   4.515   2.795  19.887
27828W        W28692   5.782   2.631  20.863
27829W        W28693   5.031   1.439  20.297
27830W        W28694   5.263   2.357  19.886
27831W        W28695   5.865   2.993  21.641
27832W        W28696   5.223   2.141  21.687
27833W        W28697   5.359   1.916  21.155
27834W        W28698   3.697   1.260  21.886
27835W        W28699   6.445   2.803  21.426
27836W        W28700   4.001   0.224  19.372
27837W        W28701   4.635   2.489  20.433
27838W        W28702   7.218   2.426  19.862
27839W        W28703   6.748   0.939  20.201
27840W        W28704   6.867   0.931  18.229
27841W        W28705   7.361   1.643  20.719
27842W        W28706   5.205   3.147  20.380
27843W        W28707   7.189   2.533  19.048
27844W        W28708   4.061   3.532  18.985
27845W        W28709   4.452   3.523  19.354
27846W        W28710   4.422   0.444  20.676
27847W        W28711   6.919   1.529  20.950
27848W        W28712   6.262   1.625  19.552
27849W        W28713   6.174   1.463  18.511
27850W        W28714   5.397   2.694  20.516
27851W        W28715   5.450   0.971  19.783
27852W        W28716   5.686   3.103  20.704
27853W        W28717   6.669   1.652  19.145
27854W        W28718   5.356   0.489  19.429
27855W        W28719   4.435   3.157  18.971
27856W        W28720   3.718   0.620  19.525
27857W        W28721   6.344   1.248  19.908
27858W        W28722   3.989   2.904  19.961
27859W        W28723   5.237   3.123  18.753
27860W        W28724   6.542   1.373  18.092
27861W        W28725   3.810   2.974  20.493
27862W        W28726   4.551   2.585  20.923
27863W        W28727   4.942   2.114  19.496
27864W        W28728   4.945   0.572  20.634
27865W        W28729   7.229   0.128  19.981
27866W        W28730   4.299   2.063  18.235
27867W        W28731   4.186   1.061  18.430
27868W        W28732   4.166   2.837  19.477
27869W        W28733   4.898   2.607  19.615
27870W        W28734   6.613   3.305  21.306
27871W        W28735   5.475   0.944  19.032
27872W        W28736   6.891   3.374  20.049
27873W        W28737   6.529   1.382  21.332
27874W        W28738   7.375   2.916  19.636
27875W        W28739   5.928   2.151  21.032
27876W        W28740   3.852   1.518  19.367
27877W        W28741   4.770   2.121  20.807
27878W        W28742   5.863   1.301  19.131
27879W        W28743   5.727   1.723  19.376
27880W        W28744   4.209   1.302  20.707
27881W        W28745   4.148   1.266  21.555
27882W        W28746   3.752   0.217  19.893
27883W        W28747   5.934   0.548  20.318
27884W        W28748   5.564   0.672  21.471
27885W        W28749   6.038   0.453  18.645
27886W        W28750   7.137   3.294  21.433
27887W        W28751   5.945   0.265  21.402
27888W        W28752   7.008   2.616  21.646
27889W        W28753   6.534   0.737  21.118
27890W        W28754   6.225   0.547  19.392
27891W        W28755   6.563   1.822  21.720
27892W        W28756   4.328   3.281  19.826
27893W        W28757   4.966   1.139  18.866
27894W        W28758   4.628   0.371  21.581
27895W        W28759   6.609   0.831  19.199
27896W        W28760   6.895   1.210  19.039
27897W        W28761   4.714   3.513  21.363
27898W        W28762   4.735   0.254  18.939
27899W        W28763   7.029   0.591  19.875
27900W        W28764   7.401   2.811  18.399
27901W        W28765   3.828   1.995  19.995
27902W        W28766   6.009   0.637  18.166
27903W        W28767   7.161   2.923  20.099
27904W        W28768   7.091   0.302  20.625
27905W        W28769   5.664   1.507  21.338
27906W        W28770   5.426   2.477  19.031
27907W        W28771   6.084   1.886  21.891
27908W        W28772   5.737   0.098  20.163
27909W        W28773   4.286   1.055  20.026
27910W        W28774   4.008   2.096  20.932
27911W        W28775   5.611   3.227  19.724
27912W        W28776   7.004   1.294  20.481
27913W        W28777   5.728   3.417  21.095
27914W        W28778   6.965   2.035  18.443
27915W        W28779   5.255   1.731  19.614
27916W        W28780   7.232   0.285  21.123
27917W        W28781   5.501   2.205  20.739
27918W        W28782   5.781   1.075  20.174
27919W        W28783   6.371   1.251  18.964
27920W        W28784   6.691   1.291  18.569
27921W        W28785   6.925   2.811  19.412
27922W        W28786   6.264   2.613  20.026
27923W        W28787   6.176   1.727  19.045
27924W        W28788   5.659   1.918  19.873
27925W        W28789   6.769   1.803  19.628
27926W        W28790   4.152   0.837  20.479
27927W        W28791   6.667   1.881  21.224
27928W        W28792   7.203   3.453  20.446
27929W        W28793   5.094   3.071  19.731
27930W        W28794   6.236   3.468  20.922
27931W        W28795   6.113   0.829  20.785
27932W        W28796   5.323   3.510  20.761
27933W        W28797   6.964   0.480  19.331
27934W        W28798   6.779   1.801  20.510
27935W        W28799   3.774   1.035  20.788
27936W        W28800   6.589   0.824  19.714
27937W        W28801   6.930   1.093  21.225
27938W        W28802   5.795   2.492  19.810
27939W        W28803   5.248   3.528  19.497
27940W        W28804   4.175   0.562  18.565
27941W        W28805   5.378   0.447  20.343
27942W        W28806   4.280   3.488  18.503
27943W        W28807   4.891   1.703  18.908
27944W        W28808   5.451   2.416  21.214
27945W        W28809   5.069   0.919  19.421
27946W        W28810   6.614   0.302  19.681
27947W        W28811   6.396   3.509  20.046
27948W        W28812   5.679   3.293  20.235
27949W        W28813   5.103   2.281  20.408
27950W        W28814   6.978   2.983  20.574
27951W        W28815   4.401   0.535  19.201
27952W        W28816   4.977   2.729  20.139
27953W        W28817   4.615   0.572  18.292
27954W        W28818   5.488   1.360  20.548
27955W        W28819   6.294   0.194  20.490
27956W        W28820   3.754   2.086  20.497
27957W        W28821   5.285   1.761  18.548
27958W        W28822   4.512   0.100  18.503
27959W        W28823   5.420   1.298  19.412
27960W        W28824   6.212   0.357  20.974
27961W        W28825   4.951   2.255  21.269
27962W        W28826   5.743   2.047  21.500
27963W        W28827   6.277   2.195  21.410
27964W        W28828   5.620   0.321  21.846
27965W        W28829   4.759   0.989  20.251
27966W        W28830   4.187   0.876  19.510
27967W        W28831   3.981   3.350  19.454
27968W        W28832   5.562   2.937  21.230
27969W        W28833   4.439   1.835  18.694
27970W        W28834   6.448   1.778  20.047
27971W        W28835   6.481   1.401  20.386
27972W        W28836   5.649   1.828  20.391
27973W        W28837   6.221   2.443  18.208
27974W        W28838   5.628   0.515  19.881
27975W        W28839   7.240   0.813  19.015
27976W        W28840   3.840   3.362  21.242
27977W        W28841   4.072   2.551  20.641
27978W        W28842   3.530   3.439  18.929
27979W        W28843   5.619   0.845  20.606
27980W        W28844   4.784   2.818  18.735
27981W        W28845   7.086   3.002  18.814
27982W        W28846   5.762   1.699  18.763
27983W        W28847   4.600   1.028  19.224
27984W        W28848   5.556   0.877  18.275
27985W        W28849   5.921   2.566  21.361
27986W        W28850   6.510   0.403  18.917
27987W        W28851   3.724   0.329  18.524
27988W        W28852   5.062   2.531  20.855
27989W        W28853   4.776   2.248  19.996
27990W        W28854   4.667   2.527  18.330
27991W        W28855   3.765   2.985  19.125
27992W        W28856   4.463   1.698  21.535
27993W        W28857   5.126   0.319  21.701
27994W        W28858   5.707   0.515  20.993
27995W        W28859   4.846   0.415  19.439
27996W        W28860   5.757   0.387  19.110
27997W        W28861   4.013   0.332  20.352
27998W        W28862   3.822   1.119  19.754
27999W        W28863   6.791   0.197  20.231
28000W        W28864   4.174   0.920  18.947
28001W        W28865   6.588   0.604  20.600
28002W        W28866   7.050   1.534  18.275
28003W        W28867   4.466   0.576  20.167
28004W        W28868   5.602   1.031  21.083
28005W        W28869   3.747   0.886  18.641
28006W        W28870   4.442   2.129  21.229
28007W        W28871   5.981   1.559  20.104
28008W        W28872   5.706   3.521  18.504
28009W        W28873   3.774   2.206  18.231
28010W        W28874   4.596   2.625  21.432
28011W        W28875   4.083   1.653  21.197
28012W        W28876   5.183   1.795  20.662
28013W        W28877   6.723   0.258  21.001
28014W        W28878   7.282   1.873  21.198
28015W        W28879   7.054   1.633  18.781
28016W        W28880   5.843   2.128  19.068
28017W        W28881   6.638   3.573  18.270
28018W        W28882   5.673   1.566  21.840
28019W        W28883   4.198   2.487  21.711
28020W        W28884   7.397   0.683  21.753
28021W        W28885   6.823   1.437  19.999
28022W        W28886   5.087   3.494  21.745
28023W        W28887   5.036   0.239  18.501
28024W        W28888   6.968   2.550  18.559
28025W        W28889   4.480   0.874  21.516
28026W        W28890   5.077   2.763  21.318
28027W        W28891   7.002   0.716  20.895
28028W        W28892   6.899   3.506  18.710
28029W        W28893   6.507   2.253  20.335
28030W        W28894   4.659   0.572  21.109
28031W        W28895   5.194   1.636  21.564
28032W        W28896   4.560   2.612  19.191
28033W        W28897   6.459   2.107  19.278
28034W        W28898   4.192   0.889  21.070
28035W        W28899   5.409   2.707  19.524
28036W        W28900   7.172   1.447  19.608
28037W        W28901   5.448   0.197  21.330
28038W        W28902   6.325   2.715  20.533
28039W        W28903   6.581   3.014  20.224
28040W        W28904   5.615   3.018  18.394
28041W        W28905   3.800   2.750  21.522
28042W        W28906   4.600   0.950  20.750
28043W        W28907   4.363   0.382  19.699
28044W        W28908   6.256   0.951  20.320
28045W        W28909   4.887   2.089  18.506
28046W        W28910   6.905   2.054  20.073
28047W        W28911   4.229   3.021  21.344
28048W        W28912   6.799   3.656  19.214
28049W        W28913   4.655   0.825  19.729
28050W        W28914   4.355   1.945  20.023
28051W        W28915   4.942   3.610  20.417
28052W        W28916   6.867   3.725  21.510
28053W        W28917   6.171   1.823  20.497
28054W        W28918   3.930   1.768  18.515
28055W        W28919   7.039   3.305  19.548
28056W        W28920   6.783   0.806  18.717
28057W        W28921   4.947   0.144  21.229
28058W        W28922   6.763   2.652  19.888
28059W        W28923   6.680   1.296  19.510
28060W        W28924   5.004   1.229  19.830
28061W        W28925   5.242   1.424  21.048
28062W        W28926   6.284   2.549  21.008
28063W        W28927   4.899   1.031  21.189
28064W        W28928   4.796   3.500  19.728
28065W        W28929   4.232   3.495  21.564
28066W        W28930   4.447   3.028  18.313
28067W        W28931   6.913   2.285  19.458
28068W        W28932   4.485   1.325  21.157
28069W        W28933   7.190   1.142  18.604
28070W        W28934   4.940   2.305  18.988
28071W        W28935   6.132   1.732  21.289
28072W        W28936   6.007   1.319  20.591
28073W        W28937   4.421   1.751  20.834
28074W        W28938   6.660   3.442  20.533
28075W        W28939   6.443   0.389  21.503
28076W        W28940   4.094   0.399  21.264
28077W        W28941   4.500   1.452  20.263
28078W        W28942   4.700   1.090  18.345
28079W        W28943   3.761   2.892  21.015
28080W        W28944   5.209   1.889  20.114
28081W        W28945   5.076   0.759  18.475
28082W        W28946   4.381   1.531  19.209
28083W        W28947   3.881   3.549  20.743
28084W        W28948   6.555   1.773  18.658
28085W        W28949   6.937   0.618  21.427
28086W        W28950   6.435   2.614  19.490
28087W        W28951   3.864   1.694  21.681
28088W        W28952   7.029   0.368  18.821
28089W        W28953   6.672   2.576  19.014
28090W        W28954   5.368   1.437  18.932
28091W        W28955   6.508   0.534  18.349
28092W        W28956   6.614   1.105  20.780
28093W        W28957   4.081   1.528  19.899
28094W        W28958   4.440   2.342  19.621
28095W        W28959   6.225   1.077  19.426
28096W        W28960   5.269   0.969  20.248
28097W        W28961   7.289   2.583  20.742
28098W        W28962   7.212   0.758  20.386
28099W        W28963   3.714   3.366  19.890
28100W        W28964   4.082   2.357  19.219
28101W        W28965   4.148   0.497  21.768
28102W        W28966   5.312   3.023  21.683
28103W        W28967   7.274   1.920  19.753
28104W        W28968   6.525   2.276  18.580
28105W        W28969   5.814   3.620  20.627
28106W        W28970   6.583   2.358  21.774
28107W        W28971   5.265   0.185  18.980
28108W        W28972   6.071   0.802  19.846
28109W        W28973   3.736   2.508  20.197
28110W        W28974   5.061   0.645  18.993
28111W        W28975   4.694   2.161  21.702
28112W        W28976   5.772   0.818  19.427
28113W        W28977   6.023   2.307  20.557
28114W        W28978   4.237   3.013  20.835
28115W        W28979   4.784   3.074  21.638
28116W        W28980   4.619   0.764  18.763
28117W        W28981   6.043   0.838  18.984
28118W        W28982   6.064   3.010  21.099
28119W        W28983   4.792   1.714  19.861
28120W        W28984   4.487   3.401  20.574
28121W        W28985   7.146   3.267  18.330
28122W        W28986   3.954   2.127  21.441
28123W        W28987   6.069   2.123  20.083
28124W        W28988   4.524   2.043  19.183
28125W        W28989   4.774   2.949  20.603
28126W        W28990   5.094   0.609  19.893
28127W        W28991   3.723   2.182  18.752
28128W        W28992   5.250   1.257  18.441
28129W        W28993   4.146   1.917  19.547
28130W        W28994   5.196   0.621  21.110
28131W        W28995   6.990   0.330  18.309
28132W        W28996   7.003   2.089  21.577
28133W        W28997   5.597   3.443  21.584
28134W        W28998   7.264   2.421  21.236
28135W        W28999   6.788   3.067  21.741
28136W        W29000   4.499   3.678  20.130
28137W        W29001   7.436   2.238  19.393
28138W        W29002   5.852   1.296  19.686
28139W        W29003   5.661   0.090  19.568
28140W        W29004   4.649   3.055  19.461
28141W        W29005   5.142   1.026  20.740
28142W        W29006   4.874   0.260  20.227
28143W        W29007   3.889   3.167  18.654
28144W        W29008   5.499   2.190  19.467
28145W        W29009   4.701   3.062  21.106
28146W        W29010   4.044   1.875  19.030
28147W        W29011   3.977   0.668  19.967
28148W        W29012   5.610   2.315  20.248
28149W        W29013   3.797   0.539  19.012
28150W        W29014   6.407   1.580  20.870
28151W        W29015   6.277   0.955  18.522
28152W        W29016   6.980   2.497  20.331
28153W        W29017   5.463   2.838  20.026
28154W        W29018   4.921   3.333  19.120
28155W        W29019   6.002   0.104  18.248
28156W        W29020   4.061   3.376  20.267
28157W        W29021   5.812   1.093  21.626
28158W        W29022   4.173   0.990  21.994
28159W        W29023   3.962   1.375  18.847
28160W        W29024   4.495   1.317  18.760
28161W        W29025   6.182   1.419  21.703
28162W        W29026   4.751   1.880  20.367
28163W        W29027   6.082   0.274  19.808
28164W        W29028   5.245   3.484  20.007
28165W        W29029   6.538   3.041  20.866
28166W        W29030   6.082   3.101  19.962
28167W        W29031   6.034   2.100  19.563
28168W        W29032   5.506   0.567  18.687
28169W        W29033   7.304   0.104  19.446
28170W        W29034   4.829   1.584  18.403
28171W        W29035   7.065   0.957  19.481
28172W        W29036   5.588   2.170  18.611
28173W        W29037   6.731   2.392  21.256
28174W        W29038   6.698   3.052  18.469
28175W        W29039   4.973   0.811  21.686
28176W        W29040   4.803   1.427  20.750
28177W        W29041   6.935   2.872  21.183
28178W        W29042   6.049   0.768  21.283
28179W        W29043   3.740   1.273  21.248
28180W        W29044   5.766   1.687  20.872
28181W        W29045   3.935   2.407  19.706
28182W        W29046   4.057   1.687  20.391
28183W        W29047   6.451   2.108  20.828
28184W        W29048   6.121   3.411  21.437
28185W        W29049   6.073   1.252  21.112
28186W        W29050   6.570   3.116  19.714
28187W        W29051   5.202   3.015  20.873
28188W        W29052   4.742   3.201  20.141
28189W        W29053   6.750   2.566  20.779
28190W        W29054   5.535   2.557  21.708
28191W        W29055   4.234   2.440  20.118
28192W        W29056   6.499   2.212  19.793
28193W        W29057   6.161   3.226  20.470
28194W        W29058   4.328   2.923  20.344
28195W        W29059   5.313   1.140  21.497
28196W        W29060   5.440   3.143  19.234
28197W        W29061   4.981   2.604  21.823
28198W        W29062   5.041   2.823  19.173
28199W        W29063   4.337   1.530  18.284
28200W        W29064   3.768   3.715  25.277
28201W        W29065   4.160   2.519  24.803
28202W        W29066   6.833   2.014  22.575
28203W        W29067   6.977   3.364  24.603
28204W        W29068   4.617   3.272  22.098
28205W        W29069   4.889   1.469  23.026
28206W        W29070   4.420   1.358  23.330
28207W        W29071   5.420   2.030  22.458
28208W        W29072   5.183   3.293  24.907
28209W        W29073   3.759   0.838  24.927
28210W        W29074   4.343   0.316  24.573
28211W        W29075   6.235   0.487  23.573
28212W        W29076   5.777   1.201  22.195
28213W        W29077   6.543   0.853  25.338
28214W        W29078   3.872   0.539  24.492
28215W        W29079   3.961   3.226  25.347
28216W        W29080   5.337   2.480  22.189
28217W        W29081   3.878   1.219  23.986
28218W        W29082   4.871   1.411  25.150
28219W        W29083   7.095   0.951  23.652
28220W        W29084   6.926   1.965  24.429
28221W        W29085   5.297   1.617  23.363
28222W        W29086   6.009   2.818  23.941
28223W        W29087   4.393   2.148  24.116
28224W        W29088   3.528   1.596  23.904
28225W        W29089   4.886   1.765  24.765
28226W        W29090   7.019   1.526  25.187
28227W        W29091   4.546   2.963  23.628
28228W        W29092   5.804   2.667  24.665
28229W        W29093   5.079   1.308  23.892
28230W        W29094   5.088   2.052  23.590
28231W        W29095   5.927   2.946  25.460
28232W        W29096   5.261   2.169  25.371
28233W        W29097   5.388   1.933  24.902
28234W        W29098   3.685   1.158  25.379
28235W        W29099   6.477   2.797  25.198
28236W        W29100   4.100   0.437  22.798
28237W        W29101   4.654   2.654  24.207
28238W        W29102   6.996   2.487  23.496
28239W        W29103   6.787   0.820  24.042
28240W        W29104   6.904   0.897  21.897
28241W        W29105   7.350   1.593  24.370
28242W        W29106   5.206   3.351  24.238
28243W        W29107   7.122   2.666  22.574
28244W        W29108   3.980   3.603  22.584
28245W        W29109   4.345   3.477  22.956
28246W        W29110   4.571   0.517  24.152
28247W        W29111   6.964   1.362  24.650
28248W        W29112   6.263   1.678  23.113
28249W        W29113   6.250   1.483  22.210
28250W        W29114   5.585   2.630  24.184
28251W        W29115   5.529   1.212  23.617
28252W        W29116   6.012   3.081  24.441
28253W        W29117   6.835   1.732  23.011
28254W        W29118   5.469   0.533  22.846
28255W        W29119   4.209   3.127  22.584
28256W        W29120   3.725   0.689  23.071
28257W        W29121   6.200   1.391  23.539
28258W        W29122   4.017   2.961  23.619
28259W        W29123   5.089   3.091  22.141
28260W        W29124   6.667   1.341  21.872
28261W        W29125   3.779   3.009  24.085
28262W        W29126   4.662   2.590  24.719
28263W        W29127   4.911   2.018  23.100
28264W        W29128   5.073   0.484  24.281
28265W        W29129   7.241   0.317  23.798
28266W        W29130   4.238   2.007  21.868
28267W        W29131   3.965   1.365  22.401
28268W        W29132   4.226   2.937  23.143
28269W        W29133   5.141   2.465  23.305
28270W        W29134   6.647   3.272  25.018
28271W        W29135   5.444   0.941  22.523
28272W        W29136   6.968   3.396  23.549
28273W        W29137   6.558   1.352  24.967
28274W        W29138   7.209   2.801  23.151
28275W        W29139   5.933   2.172  24.768
28276W        W29140   3.718   1.618  23.049
28277W        W29141   4.817   2.172  24.417
28278W        W29142   5.843   1.332  22.705
28279W        W29143   5.809   1.842  22.849
28280W        W29144   4.195   1.306  24.381
28281W        W29145   4.146   1.189  25.105
28282W        W29146   4.018   0.301  23.300
28283W        W29147   5.834   0.547  23.899
28284W        W29148   5.576   0.724  25.189
28285W        W29149   5.993   0.528  22.255
28286W        W29150   7.182   3.226  25.053
28287W        W29151   5.879   0.284  25.225
28288W        W29152   6.967   2.562  25.393
28289W        W29153   6.501   0.834  24.830
28290W        W29154   6.170   0.623  23.069
28291W        W29155   6.644   1.858  25.461
28292W        W29156   4.291   3.366  23.452
28293W        W29157   4.962   1.181  22.559
28294W        W29158   4.573   0.430  25.102
28295W        W29159   6.584   0.902  22.890
28296W        W29160   6.928   1.291  22.751
28297W        W29161   4.728   3.629  25.427
28298W        W29162   4.514   0.229  22.528
28299W        W29163   7.041   0.514  23.380
28300W        W29164   7.210   2.953  22.037
28301W        W29165   4.094   2.078  23.683
28302W        W29166   6.022   0.639  21.761
28303W        W29167   7.145   2.944  23.735
28304W        W29168   6.951   0.350  24.235
28305W        W29169   5.719   1.544  25.039
28306W        W29170   5.190   2.355  22.783
28307W        W29171   6.152   1.979  25.621
28308W        W29172   5.894   0.074  23.700
28309W        W29173   4.282   1.030  23.695
28310W        W29174   3.996   2.096  24.496
28311W        W29175   5.791   3.186  23.599
28312W        W29176   6.992   1.274  24.142
28313W        W29177   5.705   3.377  24.827
28314W        W29178   6.953   1.950  22.073
28315W        W29179   5.286   1.753  22.859
28316W        W29180   7.209   0.342  24.690
28317W        W29181   5.505   2.248  24.507
28318W        W29182   5.790   1.038  24.044
28319W        W29183   6.413   1.359  22.707
28320W        W29184   6.636   1.034  22.360
28321W        W29185   6.761   2.883  22.867
28322W        W29186   6.461   2.625  23.714
28323W        W29187   6.271   1.830  22.595
28324W        W29188   5.762   1.845  23.554
28325W        W29189   6.700   1.708  23.513
28326W        W29190   4.160   0.825  24.160
28327W        W29191   6.723   1.842  24.920
28328W        W29192   7.049   3.361  24.064
28329W        W29193   5.029   2.925  23.495
28330W        W29194   6.229   3.465  24.755
28331W        W29195   6.051   0.816  24.509
28332W        W29196   5.323   3.688  24.592
28333W        W29197   6.957   0.541  22.860
28334W        W29198   6.702   1.700  24.026
28335W        W29199   3.769   1.037  24.455
28336W        W29200   6.598   0.822  23.424
28337W        W29201   6.962   1.042  25.067
28338W        W29202   5.937   2.675  23.447
28339W        W29203   5.179   3.314  23.189
28340W        W29204   4.171   0.562  22.294
28341W        W29205   5.435   0.240  24.023
28342W        W29206   4.152   3.506  22.081
28343W        W29207   4.919   1.712  22.486
28344W        W29208   5.492   2.432  24.983
28345W        W29209   5.045   0.831  22.940
28346W        W29210   6.592   0.331  23.218
28347W        W29211   6.564   3.577  23.795
28348W        W29212   5.645   3.152  24.092
28349W        W29213   5.208   2.264  24.061
28350W        W29214   6.944   2.931  24.338
28351W        W29215   4.608   0.514  22.944
28352W        W29216   5.115   2.871  24.047
28353W        W29217   4.580   0.661  21.995
28354W        W29218   5.458   1.382  24.260
28355W        W29219   6.272   0.271  24.044
28356W        W29220   3.724   2.076  24.043
28357W        W29221   5.256   1.755  22.062
28358W        W29222   4.370   0.129  22.052
28359W        W29223   5.351   1.254  22.946
28360W        W29224   6.224   0.332  24.795
28361W        W29225   5.011   2.269  24.892
28362W        W29226   5.770   2.045  25.236
28363W        W29227   6.286   2.063  25.125
28364W        W29228   5.519   0.379  25.592
28365W        W29229   4.787   0.890  23.866
28366W        W29230   4.237   0.781  23.205
28367W        W29231   3.878   3.273  22.972
28368W        W29232   5.568   2.941  25.078
28369W        W29233   4.435   1.878  22.335
28370W        W29234   6.261   1.846  23.758
28371W        W29235   6.306   1.376  24.044
28372W        W29236   5.703   2.045  24.080
28373W        W29237   6.037   2.397  21.836
28374W        W29238   5.761   0.475  23.374
28375W        W29239   7.306   0.931  22.719
28376W        W29240   4.067   3.325  24.823
28377W        W29241   4.115   2.563  24.279
28378W        W29242   3.504   3.441  22.659
28379W        W29243   5.564   0.664  24.330
28380W        W29244   4.881   2.652  22.387
28381W        W29245   7.013   3.267  22.516
28382W        W29246   5.810   1.714  22.324
28383W        W29247   4.583   1.061  22.934
28384W        W29248   5.505   0.825  21.958
28385W        W29249   6.008   2.520  25.157
28386W        W29250   6.521   0.537  22.545
28387W        W29251   3.667   0.420  22.119
28388W        W29252   5.126   2.584  24.474
28389W        W29253   4.853   2.503  23.748
28390W        W29254   4.493   2.384  22.143
28391W        W29255   3.613   2.935  22.690
28392W        W29256   4.410   1.648  25.162
28393W        W29257   4.934   0.285  25.443
28394W        W29258   5.734   0.477  24.771
28395W        W29259   5.090   0.271  23.082
28396W        W29260   5.932   0.304  22.718
28397W        W29261   4.071   0.326  24.050
28398W        W29262   3.872   1.149  23.278
28399W        W29263   6.714   0.402  23.768
28400W        W29264   4.149   0.933  22.667
28401W        W29265   6.494   0.570  24.388
28402W        W29266   7.173   1.523  21.954
28403W        W29267   4.367   0.514  23.663
28404W        W29268   5.603   1.025  24.730
28405W        W29269   3.770   0.892  22.301
28406W        W29270   4.481   2.082  24.812
28407W        W29271   5.837   1.545  23.951
28408W        W29272   5.462   3.562  22.093
28409W        W29273   3.731   2.232  21.906
28410W        W29274   4.600   2.419  25.201
28411W        W29275   4.115   1.659  24.748
28412W        W29276   5.225   1.844  24.376
28413W        W29277   6.708   0.202  24.671
28414W        W29278   7.240   1.811  24.824
28415W        W29279   7.216   1.657  22.482
28416W        W29280   5.988   2.196  22.346
28417W        W29281   6.505   3.500  21.796
28418W        W29282   5.765   1.631  25.553
28419W        W29283   4.109   2.496  25.366
28420W        W29284   7.352   0.681  25.363
28421W        W29285   6.680   1.241  23.726
28422W        W29286   5.207   3.499  25.383
28423W        W29287   4.871   0.273  22.144
28424W        W29288   6.939   2.451  22.142
28425W        W29289   4.597   0.948  25.092
28426W        W29290   5.089   2.784  24.950
28427W        W29291   6.949   0.795  24.547
28428W        W29292   6.708   3.646  22.285
28429W        W29293   6.501   2.204  24.082
28430W        W29294   4.736   0.639  24.657
28431W        W29295   5.282   1.666  25.328
28432W        W29296   4.509   2.701  22.769
28433W        W29297   6.486   2.126  22.958
28434W        W29298   4.246   0.861  24.690
28435W        W29299   5.466   2.869  23.204
28436W        W29300   7.098   1.411  23.390
28437W        W29301   5.366   0.266  25.107
28438W        W29302   6.427   2.714  24.223
28439W        W29303   6.654   3.071  23.917
28440W        W29304   5.590   2.932  22.098
28441W        W29305   3.820   2.804  25.075
28442W        W29306   4.620   1.016  24.340
28443W        W29307   4.682   0.207  23.382
28444W        W29308   6.275   0.837  23.982
28445W        W29309   4.948   2.147  22.167
28446W        W29310   6.938   2.095  23.815
28447W        W29311   4.361   2.904  25.115
28448W        W29312   6.842   3.700  22.867
28449W        W29313   4.749   0.730  23.379
28450W        W29314   4.570   2.124  23.489
28451W        W29315   4.821   3.668  24.392
28452W        W29316   6.930   3.626  25.235
28453W        W29317   6.143   1.840  24.264
28454W        W29318   3.904   1.831  22.201
28455W        W29319   7.043   3.275  23.045
28456W        W29320   7.015   0.672  22.355
28457W        W29321   4.943   0.197  24.823
28458W        W29322   6.763   2.946  23.393
28459W        W29323   6.625   1.302  23.205
28460W        W29324   5.053   1.145  23.393
28461W        W29325   5.303   1.459  24.746
28462W        W29326   6.314   2.594  24.730
28463W        W29327   4.992   1.067  24.789
28464W        W29328   4.808   3.408  23.564
28465W        W29329   4.279   3.601  25.206
28466W        W29330   4.290   2.980  21.846
28467W        W29331   6.928   2.389  22.990
28468W        W29332   4.544   1.341  24.754
28469W        W29333   7.141   1.163  22.290
28470W        W29334   4.717   2.210  22.629
28471W        W29335   6.150   1.698  24.791
28472W        W29336   5.971   1.339  24.425
28473W        W29337   4.501   1.737  24.407
28474W        W29338   6.569   3.511  24.313
28475W        W29339   6.388   0.373  25.292
28476W        W29340   4.062   0.425  24.983
28477W        W29341   4.546   1.397  23.979
28478W        W29342   4.685   1.156  22.085
28479W        W29343   3.846   2.911  24.581
28480W        W29344   5.356   1.733  23.878
28481W        W29345   5.047   0.783  22.206
28482W        W29346   4.527   1.767  22.843
28483W        W29347   3.906   3.601  24.402
28484W        W29348   6.737   1.558  22.338
28485W        W29349   6.884   0.549  25.028
28486W        W29350   6.434   2.598  23.189
28487W        W29351   3.890   1.631  25.255
28488W        W29352   6.859   0.197  22.320
28489W        W29353   6.615   2.475  22.562
28490W        W29354   5.389   1.454  22.454
28491W        W29355   6.500   0.560  22.021
28492W        W29356   6.535   1.097  24.401
28493W        W29357   3.947   1.544  23.592
28494W        W29358   4.625   2.601  23.274
28495W        W29359   6.158   1.135  23.089
28496W        W29360   5.333   0.774  23.873
28497W        W29361   7.283   2.520  24.368
28498W        W29362   7.297   0.725  24.087
28499W        W29363   3.755   3.392  23.455
28500W        W29364   3.982   2.590  22.835
28501W        W29365   4.199   0.398  25.480
28502W        W29366   5.344   3.018  25.556
28503W        W29367   7.174   1.944  23.380
28504W        W29368   6.473   2.070  22.191
28505W        W29369   5.832   3.620  24.400
28506W        W29370   6.501   2.363  25.490
28507W        W29371   5.336   0.056  22.624
28508W        W29372   5.973   0.929  23.549
28509W        W29373   3.806   2.542  23.824
28510W        W29374   4.998   0.445  22.605
28511W        W29375   4.819   1.946  25.236
28512W        W29376   5.694   0.918  23.108
28513W        W29377   6.044   2.374  24.309
28514W        W29378   4.359   2.964  24.575
28515W        W29379   4.875   3.103  25.305
28516W        W29380   4.613   0.786  22.494
28517W        W29381   6.145   0.917  22.583
28518W        W29382   6.075   3.008  24.950
28519W        W29383   4.810   1.617  23.540
28520W        W29384   4.374   3.421  24.336
28521W        W29385   7.071   3.469  21.950
28522W        W29386   4.031   2.086  25.053
28523W        W29387   6.054   2.309  23.796
28524W        W29388   4.351   2.242  22.996
28525W        W29389   4.883   3.045  24.517
28526W        W29390   5.281   0.664  23.370
28527W        W29391   3.727   2.233  22.520
28528W        W29392   5.195   1.250  21.995
28529W        W29393   4.181   1.817  23.229
28530W        W29394   5.249   0.626  24.747
28531W        W29395   6.997   0.403  21.887
28532W        W29396   7.089   2.059  25.257
28533W        W29397   5.701   3.399  25.341
28534W        W29398   7.178   2.330  24.826
28535W        W29399   6.868   3.065  25.438
28536W        W29400   4.505   3.685  23.888
28537W        W29401   7.254   2.007  22.877
28538W        W29402   5.771   1.453  23.212
28539W        W29403   5.600   0.090  23.071
28540W        W29404   4.684   3.142  23.146
28541W        W29405   5.147   0.979  24.312
28542W        W29406   4.964   0.397  23.774
28543W        W29407   3.757   3.219  22.269
28544W        W29408   5.475   2.088  23.191
28545W        W29409   4.625   3.304  24.895
28546W        W29410   4.046   1.852  22.699
28547W        W29411   3.880   0.715  23.590
28548W        W29412   5.545   2.304  23.657
28549W        W29413   3.584   0.373  22.672
28550W        W29414   6.541   1.599  24.492
28551W        W29415   6.227   1.002  22.049
28552W        W29416   6.888   2.567  23.998
28553W        W29417   5.488   2.801  23.713
28554W        W29418   4.750   3.141  22.599
28555W        W29419   6.108   0.155  21.890
28556W        W29420   4.047   3.428  23.915
28557W        W29421   5.860   1.141  25.359
28558W        W29422   4.102   0.896  25.555
28559W        W29423   4.152   1.388  22.900
28560W        W29424   4.479   1.371  22.501
28561W        W29425   6.204   1.562  25.292
28562W        W29426   4.847   1.839  24.013
28563W        W29427   6.110   0.106  23.211
28564W        W29428   5.298   3.304  23.725
28565W        W29429   6.511   3.059  24.586
28566W        W29430   6.288   3.082  23.555
28567W        W29431   6.069   2.160  23.287
28568W        W29432   5.441   0.450  22.314
28569W        W29433   7.238   0.149  23.059
28570W        W29434   4.759   1.687  21.966
28571W        W29435   7.027   0.969  23.145
28572W        W29436   5.629   2.099  21.993
28573W        W29437   6.693   2.351  25.004
28574W        W29438   6.741   2.908  22.267
28575W        W29439   5.051   0.728  25.218
28576W        W29440   4.919   1.433  24.373
28577W        W29441   6.895   2.821  24.874
28578W        W29442   6.076   0.734  25.088
28579W        W29443   3.730   1.340  24.863
28580W        W29444   5.704   1.760  24.533
28581W        W29445   4.067   2.490  23.357
28582W        W29446   4.092   1.709  24.072
28583W        W29447   6.424   2.108  24.599
28584W        W29448   6.223   3.364  25.288
28585W        W29449   6.083   1.195  24.894
28586W        W29450   6.554   3.420  23.254
28587W        W29451   5.430   3.001  24.553
28588W        W29452   4.749   3.235  24.039
28589W        W29453   6.781   2.464  24.501
28590W        W29454   5.575   2.561  25.461
28591W        W29455   4.331   2.537  23.791
28592W        W29456   6.559   2.188  23.475
28593W        W29457   6.150   3.324  24.004
28594W        W29458   4.288   2.993  24.063
28595W        W29459   5.348   1.177  25.195
28596W        W29460   5.326   2.855  22.556
28597W        W29461   5.022   2.619  25.445
28598W        W29462   4.996   2.807  22.945
28599W        W29463   4.273   1.501  22.002
28600W        W29464   3.790   3.644  28.853
28601W        W29465   4.157   2.581  28.461
28602W        W29466   6.907   2.178  26.277
28603W        W29467   6.982   3.310  28.118
28604W        W29468   4.956   3.306  25.789
28605W        W29469   4.799   1.453  26.533
28606W        W29470   4.467   1.238  26.936
28607W        W29471   5.259   2.041  26.300
28608W        W29472   5.159   3.289  28.305
28609W        W29473   3.901   0.871  28.469
28610W        W29474   4.442   0.053  28.273
28611W        W29475   6.301   0.536  27.203
28612W        W29476   5.872   1.224  25.870
28613W        W29477   6.516   0.727  28.867
28614W        W29478   3.868   0.519  28.085
28615W        W29479   3.943   3.101  28.885
28616W        W29480   5.253   2.390  25.858
28617W        W29481   3.844   1.287  27.529
28618W        W29482   4.586   1.314  28.738
28619W        W29483   7.086   1.002  27.274
28620W        W29484   7.009   2.092  28.020
28621W        W29485   5.304   1.467  27.165
28622W        W29486   5.853   2.895  27.569
28623W        W29487   4.244   2.220  27.744
28624W        W29488   3.570   1.714  27.375
28625W        W29489   4.596   1.632  28.309
28626W        W29490   6.977   1.519  28.723
28627W        W29491   4.478   2.869  27.150
28628W        W29492   5.744   2.594  28.172
28629W        W29493   4.860   1.212  27.362
28630W        W29494   5.117   2.020  27.132
28631W        W29495   6.000   2.879   0.084
28632W        W29496   5.176   2.065  28.866
28633W        W29497   5.367   1.846  28.420
28634W        W29498   3.590   1.162   0.047
28635W        W29499   6.407   2.745  28.742
28636W        W29500   4.080   0.186  26.637
28637W        W29501   4.557   2.648  27.624
28638W        W29502   7.163   2.457  27.155
28639W        W29503   6.696   0.736  27.469
28640W        W29504   6.976   0.980  25.583
28641W        W29505   7.273   1.603  27.970
28642W        W29506   5.216   3.304  27.606
28643W        W29507   7.018   2.720  26.300
28644W        W29508   4.123   3.714  26.205
28645W        W29509   4.460   3.566  26.576
28646W        W29510   4.333   0.389  27.901
28647W        W29511   6.927   1.348  28.240
28648W        W29512   6.173   1.695  26.747
28649W        W29513   6.292   1.528  25.831
28650W        W29514   5.506   2.550  27.696
28651W        W29515   5.452   0.978  27.047
28652W        W29516   5.992   3.036  28.037
28653W        W29517   6.915   1.882  26.760
28654W        W29518   5.760   0.442  26.525
28655W        W29519   4.269   3.219  26.231
28656W        W29520   3.750   0.580  26.786
28657W        W29521   6.248   1.377  27.160
28658W        W29522   3.949   2.858  27.085
28659W        W29523   5.293   3.078  26.190
28660W        W29524   6.639   1.346  25.490
28661W        W29525   3.775   3.097  27.885
28662W        W29526   4.561   2.724  28.161
28663W        W29527   4.759   1.961  26.628
28664W        W29528   5.052   0.449  27.836
28665W        W29529   7.290   0.140  27.195
28666W        W29530   4.346   2.046  25.488
28667W        W29531   4.075   1.005  26.057
28668W        W29532   4.130   2.888  26.614
28669W        W29533   5.052   2.360  26.733
28670W        W29534   6.647   3.155  28.549
28671W        W29535   5.489   1.071  26.173
28672W        W29536   6.887   3.462  27.034
28673W        W29537   6.507   1.414  28.514
28674W        W29538   7.329   2.702  26.719
28675W        W29539   5.835   2.056  28.255
28676W        W29540   3.489   1.781  26.384
28677W        W29541   4.736   2.273  27.933
28678W        W29542   5.893   1.382  26.365
28679W        W29543   5.705   1.819  26.551
28680W        W29544   4.279   1.327  27.842
28681W        W29545   4.090   1.141  28.874
28682W        W29546   4.000   0.259  27.123
28683W        W29547   5.919   0.570  27.527
28684W        W29548   5.572   0.657  28.760
28685W        W29549   6.000   0.422  26.067
28686W        W29550   7.104   2.980  28.704
28687W        W29551   6.026   0.158  28.585
28688W        W29552   6.886   2.548  28.898
28689W        W29553   6.495   0.916  28.375
28690W        W29554   6.193   0.668  26.710
28691W        W29555   6.583   1.721  28.992
28692W        W29556   4.233   3.306  27.057
28693W        W29557   4.994   1.020  26.336
28694W        W29558   4.599   0.372  28.699
28695W        W29559   6.627   0.983  26.442
28696W        W29560   6.974   1.443  26.427
28697W        W29561   4.759   3.405  28.763
28698W        W29562   4.872  28.983  26.268
28699W        W29563   6.990   0.542  27.024
28700W        W29564   7.200   2.894  25.817
28701W        W29565   3.911   2.070  27.207
28702W        W29566   5.974   0.659  25.591
28703W        W29567   7.266   2.890  27.428
28704W        W29568   7.049   0.284  27.955
28705W        W29569   5.704   1.153  28.754
28706W        W29570   5.345   2.553  26.328
28707W        W29571   6.111   1.861   0.105
28708W        W29572   5.863   0.071  27.328
28709W        W29573   4.321   1.057  27.394
28710W        W29574   3.890   2.233  28.140
28711W        W29575   5.792   3.377  27.265
28712W        W29576   7.033   1.164  27.779
28713W        W29577   5.674   3.324  28.304
28714W        W29578   6.952   2.183  25.757
28715W        W29579   5.223   1.750  26.717
28716W        W29580   7.261   0.279  28.417
28717W        W29581   5.410   2.150  27.994
28718W        W29582   5.670   1.014  27.514
28719W        W29583   6.442   1.480  26.342
28720W        W29584   6.748   1.242  25.995
28721W        W29585   6.672   3.014  26.557
28722W        W29586   6.217   2.480  27.315
28723W        W29587   6.116   1.857  26.204
28724W        W29588   5.629   1.865  27.058
28725W        W29589   6.658   1.733  27.257
28726W        W29590   3.974   0.812  27.683
28727W        W29591   6.717   1.853  28.373
28728W        W29592   7.054   3.337  27.522
28729W        W29593   4.972   2.979  27.062
28730W        W29594   6.178   3.332  28.447
28731W        W29595   6.086   0.792  27.999
28732W        W29596   5.346   3.631  27.994
28733W        W29597   6.949   0.546  26.483
28734W        W29598   6.749   1.670  27.846
28735W        W29599   3.827   1.171  28.049
28736W        W29600   6.556   0.941  27.011
28737W        W29601   6.915   1.021  28.639
28738W        W29602   5.802   2.652  27.050
28739W        W29603   5.109   3.272  26.652
28740W        W29604   4.180   0.497  25.985
28741W        W29605   5.441   0.353  27.462
28742W        W29606   4.299   3.649  25.731
28743W        W29607   4.775   1.843  26.115
28744W        W29608   5.424   2.344  28.476
28745W        W29609   5.308   0.706  26.599
28746W        W29610   6.574   0.335  26.805
28747W        W29611   6.457   3.623  27.305
28748W        W29612   5.727   3.392  27.773
28749W        W29613   5.099   2.245  27.590
28750W        W29614   6.862   2.936  27.769
28751W        W29615   4.500   0.322  26.382
28752W        W29616   5.066   2.778  27.543
28753W        W29617   4.603   0.720  25.557
28754W        W29618   5.299   1.337  27.684
28755W        W29619   6.375   0.338  27.705
28756W        W29620   3.709   2.110  27.680
28757W        W29621   5.217   1.877  25.808
28758W        W29622   4.651   0.308  25.884
28759W        W29623   5.372   1.279  26.622
28760W        W29624   6.335   0.427  28.269
28761W        W29625   4.945   2.147  28.391
28762W        W29626   5.723   2.040  28.792
28763W        W29627   6.239   1.890  28.595
28764W        W29628   5.607   0.277   0.117
28765W        W29629   4.713   0.760  27.172
28766W        W29630   4.222   0.757  26.971
28767W        W29631   3.958   3.409  26.626
28768W        W29632   5.421   2.870  28.478
28769W        W29633   4.378   2.252  25.997
28770W        W29634   6.131   1.879  27.244
28771W        W29635   6.295   1.564  27.627
28772W        W29636   5.446   1.861  27.551
28773W        W29637   6.042   2.486  25.698
28774W        W29638   5.706   0.518  27.038
28775W        W29639   7.178   0.981  26.304
28776W        W29640   3.753   3.317  28.461
28777W        W29641   4.089   2.673  27.950
28778W        W29642   3.622   3.568  26.241
28779W        W29643   5.531   0.652  27.867
28780W        W29644   4.939   2.793  25.951
28781W        W29645   6.812   3.189  26.047
28782W        W29646   5.643   1.708  26.050
28783W        W29647   4.403   1.131  26.436
28784W        W29648   5.502   0.897  25.666
28785W        W29649   6.069   2.387  28.567
28786W        W29650   6.467   0.492  26.310
28787W        W29651   3.825   0.182  25.792
28788W        W29652   5.125   2.591  28.110
28789W        W29653   4.829   2.483  27.185
28790W        W29654   4.529   2.652  25.664
28791W        W29655   3.761   3.053  26.277
28792W        W29656   4.206   1.656  28.676
28793W        W29657   5.101   0.399  28.842
28794W        W29658   5.766   0.490  28.284
28795W        W29659   4.926   0.249  26.714
28796W        W29660   5.985  28.996  26.406
28797W        W29661   3.901   0.296  27.615
28798W        W29662   3.933   1.114  26.753
28799W        W29663   6.851   0.245  27.451
28800W        W29664   4.146   0.687  26.466
28801W        W29665   6.695   0.674  27.971
28802W        W29666   7.129   1.708  25.642
28803W        W29667   4.331   0.530  27.418
28804W        W29668   5.596   1.007  28.242
28805W        W29669   3.704   0.677  25.862
28806W        W29670   4.388   2.140  28.275
28807W        W29671   5.799   1.508  27.420
28808W        W29672   5.478   3.443  25.823
28809W        W29673   3.756   2.070  25.502
28810W        W29674   4.644   2.496  28.620
28811W        W29675   4.087   1.729  28.151
28812W        W29676   5.026   1.812  28.002
28813W        W29677   6.721   0.071  28.305
28814W        W29678   7.237   1.856  28.417
28815W        W29679   7.244   1.793  26.139
28816W        W29680   5.740   2.230  26.222
28817W        W29681   6.608   3.501  25.625
28818W        W29682   5.708   1.536   0.154
28819W        W29683   4.268   2.427  28.962
28820W        W29684   7.231   0.646  28.782
28821W        W29685   6.675   1.261  27.432
28822W        W29686   5.244   3.226  28.822
28823W        W29687   5.160   0.188  25.907
28824W        W29688   6.733   2.654  25.866
28825W        W29689   4.400   0.832  28.599
28826W        W29690   4.901   2.920  28.511
28827W        W29691   7.130   0.841  28.196
28828W        W29692   6.341   3.582  26.081
28829W        W29693   6.425   2.087  27.608
28830W        W29694   4.713   0.579  28.222
28831W        W29695   4.963   1.652  28.655
28832W        W29696   4.483   2.735  26.242
28833W        W29697   6.477   2.057  26.540
28834W        W29698   4.282   0.855  28.088
28835W        W29699   5.362   2.787  26.784
28836W        W29700   7.121   1.457  27.007
28837W        W29701   5.495   0.184  28.582
28838W        W29702   6.355   2.815  27.688
28839W        W29703   6.620   3.127  27.349
28840W        W29704   5.626   2.752  25.929
28841W        W29705   3.781   2.592  28.830
28842W        W29706   4.671   0.820  27.720
28843W        W29707   4.482   0.316  26.953
28844W        W29708   6.238   0.998  27.539
28845W        W29709   4.808   2.194  25.694
28846W        W29710   6.925   2.125  27.490
28847W        W29711   4.421   2.973  28.702
28848W        W29712   6.785   3.536  26.517
28849W        W29713   4.666   0.730  26.649
28850W        W29714   4.370   1.917  26.993
28851W        W29715   4.833   3.558  27.893
28852W        W29716   6.934   3.545  28.688
28853W        W29717   5.939   1.914  27.756
28854W        W29718   4.017   1.395  25.711
28855W        W29719   7.146   3.179  26.627
28856W        W29720   6.824   0.735  26.009
28857W        W29721   4.958   0.136  28.359
28858W        W29722   6.946   2.915  27.013
28859W        W29723   6.644   1.425  26.827
28860W        W29724   4.973   1.091  26.872
28861W        W29725   5.175   1.381  28.247
28862W        W29726   6.309   2.679  28.207
28863W        W29727   4.711   1.103  28.281
28864W        W29728   4.746   3.453  27.012
28865W        W29729   4.246   3.467  28.627
28866W        W29730   4.444   3.182  25.577
28867W        W29731   6.881   2.433  26.727
28868W        W29732   4.225   1.268  28.364
28869W        W29733   7.250   1.292  25.907
28870W        W29734   4.844   2.349  26.236
28871W        W29735   5.807   1.603  28.492
28872W        W29736   5.933   1.279  27.873
28873W        W29737   4.524   1.799  27.841
28874W        W29738   6.654   3.558  27.771
28875W        W29739   6.502   0.228  28.764
28876W        W29740   4.122   0.394  28.507
28877W        W29741   4.471   1.552  27.385
28878W        W29742   4.969   1.115  25.562
28879W        W29743   3.724   2.806  28.310
28880W        W29744   4.965   1.697  27.508
28881W        W29745   5.057   0.670  25.790
28882W        W29746   4.305   1.618  26.573
28883W        W29747   3.959   3.579  28.069
28884W        W29748   6.738   1.757  25.996
28885W        W29749   6.819   0.533  28.485
28886W        W29750   6.475   2.691  26.917
28887W        W29751   3.851   1.604   0.029
28888W        W29752   6.913   0.227  26.001
28889W        W29753   6.529   2.549  26.363
28890W        W29754   5.183   1.523  26.208
28891W        W29755   6.431   0.488  25.790
28892W        W29756   6.493   1.206  27.952
28893W        W29757   4.020   1.525  27.097
28894W        W29758   4.542   2.548  26.740
28895W        W29759   6.217   1.175  26.694
28896W        W29760   5.176   0.823  27.486
28897W        W29761   7.198   2.562  27.874
28898W        W29762   7.197   0.686  27.672
28899W        W29763   3.687   3.328  27.091
28900W        W29764   3.985   2.519  26.278
28901W        W29765   4.281   0.122   0.182
28902W        W29766   5.323   2.867   0.202
28903W        W29767   7.301   1.962  27.112
28904W        W29768   6.462   2.195  25.983
28905W        W29769   6.152   3.602  28.020
28906W        W29770   6.487   2.214  28.924
28907W        W29771   5.341   0.168  26.395
28908W        W29772   5.982   0.942  27.100
28909W        W29773   3.924   2.527  27.488
28910W        W29774   4.970   0.505  26.268
28911W        W29775   4.577   2.001  28.730
28912W        W29776   5.761   0.945  26.624
28913W        W29777   6.036   2.425  27.796
28914W        W29778   4.161   3.085  28.253
28915W        W29779   4.823   2.940   0.042
28916W        W29780   4.584   0.793  26.087
28917W        W29781   6.122   0.911  26.244
28918W        W29782   5.935   2.896  28.558
28919W        W29783   4.818   1.613  27.017
28920W        W29784   4.362   3.357  27.843
28921W        W29785   7.118   3.432  25.688
28922W        W29786   3.995   2.119  28.639
28923W        W29787   5.769   2.238  27.378
28924W        W29788   4.306   2.155  26.505
28925W        W29789   4.899   3.040  27.941
28926W        W29790   5.169   0.532  27.060
28927W        W29791   3.626   2.190  25.991
28928W        W29792   5.363   1.378  25.749
28929W        W29793   3.896   1.880  26.729
28930W        W29794   5.242   0.582  28.339
28931W        W29795   6.889   0.460  25.532
28932W        W29796   6.976   2.028  28.822
28933W        W29797   5.787   3.352  28.822
28934W        W29798   7.123   2.366  28.459
28935W        W29799   6.761   3.023   0.070
28936W        W29800   4.425   3.650  27.406
28937W        W29801   7.323   2.180  26.601
28938W        W29802   5.781   1.391  26.908
28939W        W29803   5.574   0.053  26.836
28940W        W29804   4.582   3.086  26.703
28941W        W29805   5.109   0.942  27.987
28942W        W29806   4.814   0.289  27.384
28943W        W29807   3.912   3.330  25.860
28944W        W29808   5.552   2.277  26.743
28945W        W29809   4.623   3.295  28.290
28946W        W29810   3.983   1.892  26.211
28947W        W29811   3.756   0.863  27.217
28948W        W29812   5.342   2.477  27.195
28949W        W29813   3.755   0.381  26.279
28950W        W29814   6.215   1.639  28.135
28951W        W29815   6.342   1.002  25.784
28952W        W29816   6.724   2.603  27.383
28953W        W29817   5.453   2.985  27.263
28954W        W29818   4.783   3.216  26.255
28955W        W29819   6.076   0.090  25.659
28956W        W29820   3.939   3.435  27.526
28957W        W29821   6.084   0.965   0.075
28958W        W29822   4.152   0.605   0.011
28959W        W29823   3.842   1.397  26.322
28960W        W29824   4.705   1.305  26.016
28961W        W29825   6.131   1.426  28.847
28962W        W29826   4.637   2.067  27.422
28963W        W29827   6.079   0.189  26.874
28964W        W29828   5.272   3.454  27.106
28965W        W29829   6.488   3.156  28.055
28966W        W29830   6.156   3.005  27.180
28967W        W29831   6.060   2.213  26.864
28968W        W29832   5.485   0.561  26.089
28969W        W29833   7.240   0.167  26.673
28970W        W29834   4.819   1.624  25.626
28971W        W29835   7.018   1.008  26.776
28972W        W29836   5.665   2.118  25.727
28973W        W29837   6.621   2.357  28.461
28974W        W29838   6.404   3.019  25.670
28975W        W29839   4.906   0.850  28.696
28976W        W29840   4.796   1.354  27.853
28977W        W29841   6.854   2.782  28.263
28978W        W29842   6.063   0.747  28.599
28979W        W29843   3.750   1.371  28.551
28980W        W29844   5.581   1.637  28.007
28981W        W29845   3.996   2.414  26.817
28982W        W29846   4.061   1.751  27.600
28983W        W29847   6.324   2.137  28.117
28984W        W29848   6.310   3.249  28.935
28985W        W29849   6.070   1.192  28.358
28986W        W29850   6.411   3.342  26.874
28987W        W29851   5.445   2.993  27.959
28988W        W29852   4.710   3.202  27.478
28989W        W29853   6.671   2.456  27.891
28990W        W29854   5.628   2.580  28.878
28991W        W29855   4.319   2.394  27.208
28992W        W29856   6.568   2.192  27.066
28993W        W29857   6.206   3.295  27.615
28994W        W29858   4.168   2.984  27.540
28995W        W29859   5.037   1.270  29.000
28996W        W29860   5.628   3.226  26.799
28997W        W29861   5.118   2.576  28.820
28998W        W29862   4.937   2.798  26.494
28999W        W29863   4.478   1.250  25.507
29000W        W29864   3.753   7.300   3.421
29001W        W29865   4.036   6.176   2.755
29002W        W29866   6.785   5.901   0.766
29003W        W29867   7.065   6.939   2.668
29004W        W29868   5.026   6.846   0.254
29005W        W29869   4.961   5.162   1.087
29006W        W29870   4.398   4.865   1.534
29007W        W29871   5.483   5.579   0.720
29008W        W29872   5.212   6.859   3.063
29009W        W29873   3.760   4.306   2.966
29010W        W29874   4.407   3.456   2.859
29011W        W29875   6.174   4.036   1.877
29012W        W29876   5.923   4.691   0.461
29013W        W29877   6.388   4.366   3.338
29014W        W29878   3.824   3.964   2.546
29015W        W29879   3.774   6.797   3.496
29016W        W29880   5.213   6.264   0.292
29017W        W29881   3.866   4.772   1.991
29018W        W29882   5.086   4.916   3.146
29019W        W29883   7.086   4.572   1.752
29020W        W29884   6.980   5.737   2.518
29021W        W29885   5.320   5.182   1.512
29022W        W29886   5.798   6.411   1.949
29023W        W29887   4.333   5.739   2.061
29024W        W29888   3.499   5.354   2.049
29025W        W29889   4.879   5.345   2.919
29026W        W29890   6.969   5.103   3.167
29027W        W29891   4.542   6.491   1.672
29028W        W29892   5.633   6.295   2.712
29029W        W29893   5.015   4.819   1.774
29030W        W29894   5.148   5.653   1.669
29031W        W29895   6.071   6.529   3.422
29032W        W29896   5.202   5.543   3.300
29033W        W29897   5.400   5.467   2.849
29034W        W29898   3.598   4.697   3.432
29035W        W29899   6.440   6.380   3.085
29036W        W29900   4.096   3.920   1.007
29037W        W29901   4.595   6.208   2.115
29038W        W29902   6.955   6.065   1.506
29039W        W29903   6.690   4.240   1.867
29040W        W29904   6.886   4.382   0.045
29041W        W29905   7.225   5.289   2.404
29042W        W29906   5.295   6.797   2.075
29043W        W29907   6.836   6.367   0.544
29044W        W29908   4.154   7.224   0.595
29045W        W29909   4.477   7.178   1.022
29046W        W29910   4.561   4.064   2.191
29047W        W29911   6.797   5.040   2.528
29048W        W29912   6.326   5.298   1.255
29049W        W29913   6.308   5.014   0.299
29050W        W29914   5.395   6.308   2.238
29051W        W29915   5.531   4.742   1.692
29052W        W29916   5.780   6.669   2.396
29053W        W29917   6.795   5.438   1.028
29054W        W29918   5.882   4.169   0.991
29055W        W29919   4.439   6.805   0.635
29056W        W29920   3.744   4.213   1.266
29057W        W29921   6.588   4.742   1.730
29058W        W29922   4.016   6.555   1.755
29059W        W29923   5.349   6.655   0.627
29060W        W29924   6.640   4.821  28.952
29061W        W29925   3.759   6.601   2.219
29062W        W29926   4.466   6.427   2.560
29063W        W29927   4.763   5.688   1.260
29064W        W29928   5.050   4.062   2.420
29065W        W29929   7.201   3.760   1.852
29066W        W29930   4.235   5.495   0.172
29067W        W29931   4.105   4.608   0.359
29068W        W29932   4.180   6.415   1.293
29069W        W29933   5.156   6.080   1.308
29070W        W29934   6.603   6.886   2.899
29071W        W29935   5.561   4.680   0.827
29072W        W29936   6.870   7.051   1.499
29073W        W29937   6.487   4.983   2.978
29074W        W29938   7.028   6.322   1.055
29075W        W29939   5.850   5.753   2.724
29076W        W29940   3.540   5.233   1.211
29077W        W29941   4.666   5.825   2.459
29078W        W29942   5.972   4.979   0.934
29079W        W29943   5.867   5.472   1.047
29080W        W29944   4.258   4.885   2.359
29081W        W29945   4.235   4.710   2.845
29082W        W29946   4.036   3.814   1.527
29083W        W29947   5.802   3.998   2.255
29084W        W29948   5.503   4.180   3.261
29085W        W29949   6.061   4.182   0.401
29086W        W29950   7.049   6.759   3.185
29087W        W29951   5.894   3.767   3.177
29088W        W29952   6.897   6.234   3.261
29089W        W29953   6.459   4.289   2.829
29090W        W29954   6.189   4.313   1.441
29091W        W29955   6.547   5.334   3.347
29092W        W29956   4.316   6.935   1.487
29093W        W29957   5.054   4.705   0.758
29094W        W29958   4.567   3.865   3.200
29095W        W29959   6.745   4.578   0.862
29096W        W29960   7.057   5.019   0.818
29097W        W29961   4.814   7.168   3.184
29098W        W29962   4.812   3.647   0.667
29099W        W29963   7.057   4.110   1.526
29100W        W29964   7.225   6.475   0.209
29101W        W29965   3.886   5.682   1.804
29102W        W29966   6.047   4.118  28.847
29103W        W29967   7.104   6.590   1.623
29104W        W29968   7.027   3.775   2.368
29105W        W29969   5.557   5.105   3.206
29106W        W29970   5.325   6.078   0.759
29107W        W29971   6.135   5.525   3.611
29108W        W29972   5.695   3.755   1.790
29109W        W29973   4.557   4.650   1.987
29110W        W29974   4.153   5.719   2.520
29111W        W29975   5.816   6.933   1.399
29112W        W29976   6.792   4.539   2.283
29113W        W29977   5.671   6.933   2.843
29114W        W29978   6.880   5.805   0.278
29115W        W29979   5.257   5.582   1.172
29116W        W29980   7.202   3.738   2.849
29117W        W29981   5.388   5.872   2.523
29118W        W29982   5.789   4.466   2.047
29119W        W29983   6.471   5.008   0.820
29120W        W29984   6.927   4.761   0.391
29121W        W29985   6.639   6.651   0.922
29122W        W29986   6.341   6.166   1.624
29123W        W29987   6.136   5.364   0.624
29124W        W29988   5.652   5.586   1.545
29125W        W29989   6.677   5.252   1.693
29126W        W29990   4.158   4.395   2.202
29127W        W29991   6.719   5.434   2.842
29128W        W29992   7.101   6.960   2.002
29129W        W29993   4.991   6.587   1.431
29130W        W29994   6.192   7.066   2.657
29131W        W29995   6.012   4.379   2.529
29132W        W29996   5.299   7.225   2.621
29133W        W29997   6.984   4.137   1.018
29134W        W29998   6.715   5.425   2.197
29135W        W29999   3.754   4.491   2.488
29136W        W30000   6.688   4.424   1.353
29137W        W30001   6.844   4.641   2.821
29138W        W30002   5.852   6.262   1.463
29139W        W30003   5.298   6.890   1.141
29140W        W30004   4.222   4.104   0.472
29141W        W30005   5.380   3.701   2.220
29142W        W30006   4.295   6.897   0.141
29143W        W30007   4.725   5.512   0.772
29144W        W30008   5.482   5.948   3.043
29145W        W30009   5.377   4.267   1.103
29146W        W30010   6.551   3.915   1.491
29147W        W30011   6.227   7.139   1.693
29148W        W30012   5.757   6.925   1.915
29149W        W30013   5.068   5.917   2.118
29150W        W30014   6.895   6.605   2.296
29151W        W30015   4.562   4.048   0.878
29152W        W30016   5.031   6.369   1.877
29153W        W30017   4.558   4.451   0.094
29154W        W30018   5.440   4.835   2.198
29155W        W30019   6.242   3.702   2.271
29156W        W30020   3.712   5.762   2.284
29157W        W30021   5.403   5.368   0.175
29158W        W30022   4.706   3.981   0.281
29159W        W30023   5.474   5.135   1.027
29160W        W30024   6.133   3.904   2.729
29161W        W30025   5.011   5.830   2.882
29162W        W30026   5.775   5.580   3.234
29163W        W30027   6.244   5.567   2.989
29164W        W30028   5.561   3.837   3.633
29165W        W30029   4.859   4.279   1.776
29166W        W30030   4.285   4.368   1.242
29167W        W30031   4.047   6.848   1.015
29168W        W30032   5.600   6.482   3.196
29169W        W30033   4.384   5.875   0.529
29170W        W30034   6.167   5.423   1.738
29171W        W30035   6.389   5.033   2.099
29172W        W30036   5.529   5.680   2.053
29173W        W30037   6.018   5.970   0.145
29174W        W30038   5.683   4.217   1.568
29175W        W30039   7.246   4.500   0.730
29176W        W30040   3.859   6.977   3.014
29177W        W30041   4.089   6.186   2.229
29178W        W30042   3.641   7.131   0.795
29179W        W30043   5.486   4.382   2.473
29180W        W30044   4.778   6.441   0.509
29181W        W30045   6.911   6.881   0.542
29182W        W30046   5.677   5.141   0.554
29183W        W30047   4.653   4.740   1.100
29184W        W30048   5.675   4.389   0.107
29185W        W30049   5.982   6.085   3.134
29186W        W30050   6.452   4.110   1.013
29187W        W30051   3.791   3.770   0.355
29188W        W30052   4.977   6.218   2.530
29189W        W30053   4.735   5.948   1.706
29190W        W30054   4.746   6.026   0.171
29191W        W30055   3.562   6.613   0.811
29192W        W30056   4.390   5.173   3.054
29193W        W30057   5.034   3.894   3.434
29194W        W30058   5.602   3.965   2.767
29195W        W30059   4.994   3.823   1.112
29196W        W30060   5.737   3.782   0.539
29197W        W30061   4.057   3.906   2.094
29198W        W30062   3.905   4.678   1.480
29199W        W30063   6.687   3.729   1.983
29200W        W30064   3.972   4.389   0.816
29201W        W30065   6.555   4.090   2.358
29202W        W30066   7.089   5.235   0.218
29203W        W30067   4.330   4.223   1.748
29204W        W30068   5.519   4.621   2.977
29205W        W30069   3.683   4.283   0.353
29206W        W30070   4.466   5.675   2.910
29207W        W30071   5.730   5.190   1.917
29208W        W30072   5.428   7.182   0.218
29209W        W30073   3.738   5.716   0.174
29210W        W30074   4.660   6.181   2.969
29211W        W30075   4.034   5.220   2.696
29212W        W30076   5.057   5.477   2.452
29213W        W30077   6.653   3.774   2.780
29214W        W30078   7.246   5.476   2.893
29215W        W30079   7.159   5.535   0.644
29216W        W30080   5.923   5.858   0.672
29217W        W30081   6.657   7.131   0.164
29218W        W30082   5.767   5.088   3.686
29219W        W30083   4.246   6.067   3.231
29220W        W30084   7.331   4.103   3.197
29221W        W30085   6.941   4.967   2.045
29222W        W30086   5.164   7.083   3.550
29223W        W30087   5.228   3.847   0.379
29224W        W30088   6.470   6.224   0.225
29225W        W30089   4.649   4.328   2.971
29226W        W30090   5.151   6.358   2.979
29227W        W30091   6.977   4.184   2.662
29228W        W30092   6.446   7.175   0.633
29229W        W30093   6.420   5.821   2.004
29230W        W30094   4.616   3.904   2.679
29231W        W30095   5.233   5.130   3.623
29232W        W30096   4.375   6.316   0.824
29233W        W30097   6.351   5.702   0.942
29234W        W30098   4.217   4.227   2.697
29235W        W30099   5.514   6.427   1.103
29236W        W30100   7.147   5.039   1.550
29237W        W30101   5.398   3.674   3.161
29238W        W30102   6.265   6.323   2.119
29239W        W30103   6.616   6.816   1.877
29240W        W30104   5.716   6.308   0.483
29241W        W30105   3.830   6.375   3.207
29242W        W30106   4.600   4.487   2.480
29243W        W30107   4.537   3.932   1.384
29244W        W30108   6.302   4.493   2.099
29245W        W30109   5.070   5.734   0.451
29246W        W30110   6.932   5.847   1.982
29247W        W30111   4.244   6.602   2.997
29248W        W30112   6.816   7.155   0.993
29249W        W30113   4.876   4.305   1.244
29250W        W30114   4.370   5.565   1.586
29251W        W30115   4.926   7.144   2.276
29252W        W30116   6.808   7.231   3.226
29253W        W30117   6.010   5.531   2.235
29254W        W30118   3.856   5.268   0.449
29255W        W30119   7.167   6.807   1.155
29256W        W30120   6.854   4.200   0.520
29257W        W30121   4.905   3.562   2.938
29258W        W30122   6.638   6.557   1.428
29259W        W30123   6.755   4.960   1.248
29260W        W30124   5.213   4.733   1.264
29261W        W30125   5.219   5.009   2.648
29262W        W30126   6.207   6.149   2.666
29263W        W30127   5.065   4.520   2.741
29264W        W30128   4.858   7.075   1.364
29265W        W30129   4.277   7.108   3.368
29266W        W30130   4.267   6.403   0.317
29267W        W30131   6.557   6.123   1.166
29268W        W30132   4.709   4.896   2.757
29269W        W30133   7.450   4.881   0.430
29270W        W30134   4.809   6.010   0.815
29271W        W30135   5.859   5.243   2.801
29272W        W30136   5.939   4.902   2.347
29273W        W30137   4.512   5.331   2.495
29274W        W30138   6.642   7.069   2.328
29275W        W30139   6.392   3.850   3.246
29276W        W30140   4.078   3.846   3.031
29277W        W30141   4.425   5.165   1.954
29278W        W30142   4.894   4.832   0.260
29279W        W30143   3.660   6.552   2.740
29280W        W30144   5.218   5.258   2.004
29281W        W30145   5.116   4.333   0.194
29282W        W30146   4.449   5.261   1.165
29283W        W30147   3.902   7.266   2.580
29284W        W30148   6.683   5.361   0.524
29285W        W30149   6.823   4.123   3.169
29286W        W30150   6.179   6.505   1.150
29287W        W30151   3.835   5.244   3.193
29288W        W30152   7.007   3.715   0.569
29289W        W30153   6.330   6.215   0.717
29290W        W30154   5.143   5.194   0.595
29291W        W30155   6.506   4.049   0.130
29292W        W30156   6.395   4.721   2.544
29293W        W30157   3.973   5.182   1.673
29294W        W30158   4.661   6.207   1.266
29295W        W30159   6.286   4.789   1.295
29296W        W30160   5.357   4.174   1.997
29297W        W30161   7.186   6.207   2.461
29298W        W30162   7.176   4.214   2.120
29299W        W30163   3.801   7.013   1.470
29300W        W30164   3.860   6.201   0.933
29301W        W30165   4.168   3.916   3.556
29302W        W30166   5.132   6.567   3.474
29303W        W30167   7.056   5.542   1.455
29304W        W30168   6.389   5.767   0.434
29305W        W30169   5.782   7.195   2.383
29306W        W30170   6.447   5.898   3.325
29307W        W30171   5.323   3.568   0.804
29308W        W30172   6.057   4.799   1.758
29309W        W30173   3.688   6.164   1.902
29310W        W30174   5.021   4.184   0.712
29311W        W30175   4.715   5.772   3.333
29312W        W30176   5.797   4.617   1.268
29313W        W30177   5.844   6.046   2.310
29314W        W30178   4.093   6.793   2.551
29315W        W30179   4.727   6.656   3.160
29316W        W30180   4.589   4.495   0.607
29317W        W30181   6.220   4.535   0.848
29318W        W30182   6.030   6.584   2.876
29319W        W30183   4.798   5.254   1.576
29320W        W30184   4.416   7.165   2.377
29321W        W30185   7.151   6.983   0.090
29322W        W30186   3.915   5.692   2.960
29323W        W30187   5.942   5.907   1.837
29324W        W30188   4.272   5.900   1.143
29325W        W30189   4.851   6.635   2.280
29326W        W30190   5.213   3.949   1.556
29327W        W30191   3.531   5.995   0.585
29328W        W30192   5.399   4.765   0.337
29329W        W30193   3.937   5.542   1.295
29330W        W30194   5.097   4.037   2.933
29331W        W30195   7.016   3.884   0.079
29332W        W30196   6.915   5.699   3.240
29333W        W30197   5.635   6.980   3.363
29334W        W30198   7.227   6.011   2.931
29335W        W30199   6.569   6.784   3.388
29336W        W30200   4.450   7.236   1.880
29337W        W30201   7.199   5.844   1.067
29338W        W30202   5.843   5.115   1.417
29339W        W30203   5.566   3.803   1.218
29340W        W30204   4.588   6.692   1.120
29341W        W30205   5.032   4.528   2.209
29342W        W30206   4.938   3.803   1.962
29343W        W30207   3.933   6.773   0.498
29344W        W30208   5.639   5.923   1.134
29345W        W30209   4.813   6.899   2.718
29346W        W30210   3.927   5.698   0.773
29347W        W30211   3.813   4.254   1.783
29348W        W30212   5.447   6.078   1.742
29349W        W30213   3.622   3.982   0.805
29350W        W30214   6.307   5.229   2.565
29351W        W30215   6.465   4.521   0.377
29352W        W30216   6.743   6.319   1.897
29353W        W30217   5.466   6.589   1.606
29354W        W30218   4.917   6.959   0.771
29355W        W30219   6.121   3.690   0.172
29356W        W30220   3.980   7.025   1.981
29357W        W30221   5.951   4.664   3.412
29358W        W30222   4.204   4.315   3.218
29359W        W30223   3.782   4.842   0.988
29360W        W30224   4.641   5.022   0.671
29361W        W30225   6.073   5.145   3.254
29362W        W30226   4.779   5.515   2.024
29363W        W30227   6.049   3.814   1.398
29364W        W30228   5.321   7.081   1.624
29365W        W30229   6.428   6.594   2.527
29366W        W30230   6.164   6.640   1.668
29367W        W30231   6.090   5.803   1.362
29368W        W30232   5.519   4.248   0.571
29369W        W30233   7.254   3.723   1.231
29370W        W30234   4.764   5.365   0.264
29371W        W30235   7.153   4.622   1.225
29372W        W30236   5.543   5.856   0.296
29373W        W30237   6.675   5.966   2.868
29374W        W30238   6.393   6.691   0.450
29375W        W30239   5.049   4.421   3.283
29376W        W30240   4.840   5.009   2.258
29377W        W30241   6.861   6.446   2.788
29378W        W30242   5.959   4.276   3.039
29379W        W30243   3.724   4.832   2.891
29380W        W30244   5.564   5.308   2.394
29381W        W30245   3.816   6.034   1.419
29382W        W30246   4.002   5.328   2.190
29383W        W30247   6.414   5.714   2.509
29384W        W30248   6.130   6.991   3.175
29385W        W30249   6.018   4.766   2.892
29386W        W30250   6.386   6.977   1.238
29387W        W30251   5.281   6.682   2.583
29388W        W30252   4.835   6.878   1.834
29389W        W30253   6.674   6.139   2.378
29390W        W30254   5.618   6.055   3.535
29391W        W30255   4.234   6.081   1.700
29392W        W30256   6.572   5.711   1.493
29393W        W30257   6.193   6.866   2.160
29394W        W30258   4.369   6.706   2.110
29395W        W30259   5.445   4.674   3.503
29396W        W30260   5.784   6.824   0.895
29397W        W30261   5.129   6.056   3.386
29398W        W30262   5.017   6.458   0.953
29399W        W30263   4.401   5.003   0.209
29400W        W30264   3.803   7.347   7.108
29401W        W30265   4.143   6.166   6.607
29402W        W30266   7.025   5.747   4.546
29403W        W30267   6.980   6.943   6.378
29404W        W30268   4.700   6.871   3.627
29405W        W30269   4.865   5.024   4.807
29406W        W30270   4.380   4.863   4.988
29407W        W30271   5.332   5.661   4.491
29408W        W30272   5.204   6.895   6.752
29409W        W30273   3.884   4.472   6.610
29410W        W30274   4.307   3.585   6.516
29411W        W30275   6.404   4.174   5.559
29412W        W30276   5.965   4.852   4.099
29413W        W30277   6.291   4.578   6.988
29414W        W30278   3.915   4.065   6.265
29415W        W30279   3.907   6.846   7.166
29416W        W30280   5.187   6.233   3.874
29417W        W30281   3.829   4.766   5.625
29418W        W30282   4.829   4.867   6.807
29419W        W30283   7.055   4.590   5.517
29420W        W30284   7.002   5.728   6.243
29421W        W30285   5.280   4.957   5.140
29422W        W30286   5.828   6.462   5.662
29423W        W30287   4.259   5.716   5.920
29424W        W30288   3.615   5.296   5.603
29425W        W30289   4.814   5.308   6.505
29426W        W30290   7.025   5.106   6.927
29427W        W30291   4.508   6.500   5.363
29428W        W30292   5.651   6.288   6.410
29429W        W30293   5.094   4.660   5.676
29430W        W30294   5.111   5.686   5.393
29431W        W30295   6.046   6.581   7.125
29432W        W30296   5.360   5.634   7.151
29433W        W30297   5.306   5.495   6.638
29434W        W30298   3.640   4.745   6.993
29435W        W30299   6.422   6.317   6.827
29436W        W30300   4.122   3.832   4.838
29437W        W30301   4.570   6.130   5.944
29438W        W30302   7.152   6.091   5.300
29439W        W30303   6.648   4.549   5.854
29440W        W30304   6.827   4.370   3.661
29441W        W30305   7.304   5.306   6.145
29442W        W30306   5.255   6.822   5.807
29443W        W30307   6.948   6.516   4.183
29444W        W30308   4.124   7.302   4.368
29445W        W30309   4.479   7.239   4.774
29446W        W30310   4.457   3.958   5.890
29447W        W30311   6.879   5.195   6.408
29448W        W30312   6.202   5.249   4.882
29449W        W30313   6.285   5.011   3.699
29450W        W30314   5.391   6.328   5.921
29451W        W30315   5.245   4.446   5.222
29452W        W30316   5.806   6.706   6.134
29453W        W30317   6.924   5.315   4.795
29454W        W30318   5.969   4.221   4.777
29455W        W30319   4.288   6.826   4.528
29456W        W30320   3.791   4.206   4.884
29457W        W30321   6.268   4.960   5.305
29458W        W30322   4.001   6.585   5.480
29459W        W30323   5.112   6.751   3.968
29460W        W30324   6.655   4.791   3.426
29461W        W30325   3.813   6.624   5.956
29462W        W30326   4.495   6.460   6.341
29463W        W30327   4.781   5.756   5.001
29464W        W30328   4.953   4.089   5.974
29465W        W30329   7.200   3.740   5.525
29466W        W30330   4.227   5.559   3.360
29467W        W30331   4.085   4.405   3.718
29468W        W30332   4.152   6.565   4.975
29469W        W30333   4.836   6.279   5.001
29470W        W30334   6.548   6.819   6.651
29471W        W30335   5.672   4.500   4.410
29472W        W30336   6.843   6.973   5.456
29473W        W30337   6.577   4.908   6.709
29474W        W30338   7.358   6.549   5.079
29475W        W30339   5.810   5.782   6.422
29476W        W30340   3.586   5.415   5.085
29477W        W30341   4.746   5.727   6.191
29478W        W30342   5.837   4.963   4.593
29479W        W30343   5.694   5.419   4.798
29480W        W30344   4.250   4.845   5.953
29481W        W30345   4.103   4.879   6.820
29482W        W30346   3.883   3.746   5.282
29483W        W30347   5.893   4.146   5.660
29484W        W30348   5.544   4.183   6.870
29485W        W30349   6.023   4.050   4.065
29486W        W30350   7.009   6.795   6.901
29487W        W30351   5.895   3.788   6.662
29488W        W30352   6.901   6.189   7.007
29489W        W30353   6.508   4.304   6.591
29490W        W30354   6.438   4.225   5.001
29491W        W30355   6.609   5.382   7.248
29492W        W30356   4.293   6.974   5.270
29493W        W30357   5.200   4.442   4.214
29494W        W30358   4.515   3.943   6.875
29495W        W30359   6.611   4.511   4.614
29496W        W30360   6.868   4.915   4.449
29497W        W30361   4.844   7.258   6.835
29498W        W30362   4.636   3.687   4.237
29499W        W30363   6.885   4.129   5.294
29500W        W30364   7.046   6.517   3.666
29501W        W30365   3.953   5.670   5.503
29502W        W30366   5.963   4.146   3.539
29503W        W30367   7.178   6.560   5.566
29504W        W30368   7.004   3.725   6.057
29505W        W30369   5.691   5.113   6.716
29506W        W30370   5.316   6.243   4.415
29507W        W30371   6.130   5.549   7.265
29508W        W30372   5.653   3.716   5.454
29509W        W30373   4.334   4.624   5.458
29510W        W30374   3.925   5.770   6.330
29511W        W30375   5.976   6.880   5.250
29512W        W30376   7.042   4.898   5.974
29513W        W30377   5.708   7.013   6.595
29514W        W30378   6.652   5.639   3.739
29515W        W30379   5.185   5.429   4.943
29516W        W30380   7.111   3.686   6.562
29517W        W30381   5.332   5.865   6.258
29518W        W30382   5.625   4.669   5.494
29519W        W30383   6.353   4.980   4.464
29520W        W30384   6.574   4.771   4.054
29521W        W30385   6.754   6.658   4.645
29522W        W30386   6.620   6.109   5.426
29523W        W30387   6.193   5.319   4.098
29524W        W30388   5.557   5.461   5.306
29525W        W30389   6.606   5.373   5.223
29526W        W30390   4.094   4.349   5.829
29527W        W30391   6.562   5.416   6.738
29528W        W30392   7.173   7.012   5.842
29529W        W30393   4.991   6.679   5.289
29530W        W30394   6.199   7.015   6.296
29531W        W30395   6.234   4.485   6.188
29532W        W30396   5.250   7.181   6.306
29533W        W30397   6.872   4.076   4.749
29534W        W30398   6.758   5.363   5.945
29535W        W30399   3.798   4.648   6.134
29536W        W30400   6.587   4.580   5.323
29537W        W30401   6.935   4.574   6.839
29538W        W30402   5.734   6.268   5.184
29539W        W30403   5.145   6.968   4.893
29540W        W30404   4.270   4.023   4.059
29541W        W30405   5.303   3.723   5.837
29542W        W30406   4.269   7.161   3.880
29543W        W30407   4.846   5.475   4.552
29544W        W30408   5.443   5.977   6.764
29545W        W30409   5.424   4.153   4.721
29546W        W30410   6.612   3.746   5.068
29547W        W30411   6.361   7.154   5.461
29548W        W30412   5.728   6.994   5.701
29549W        W30413   5.057   5.935   5.834
29550W        W30414   7.004   6.557   6.061
29551W        W30415   4.549   4.031   4.605
29552W        W30416   4.907   6.442   5.739
29553W        W30417   4.618   4.271   3.526
29554W        W30418   5.416   4.927   5.995
29555W        W30419   6.174   3.739   5.803
29556W        W30420   3.634   5.718   5.911
29557W        W30421   5.175   5.329   4.109
29558W        W30422   4.630   3.791   3.725
29559W        W30423   5.187   4.622   4.714
29560W        W30424   6.125   3.979   6.260
29561W        W30425   4.941   5.888   6.629
29562W        W30426   5.786   5.589   6.887
29563W        W30427   6.224   5.782   6.714
29564W        W30428   5.422   3.887   7.292
29565W        W30429   4.790   4.244   5.455
29566W        W30430   4.357   4.337   4.994
29567W        W30431   3.971   7.073   4.867
29568W        W30432   5.592   6.561   6.862
29569W        W30433   4.733   6.290   4.138
29570W        W30434   6.071   5.423   5.365
29571W        W30435   6.284   5.196   5.771
29572W        W30436   5.490   5.624   5.801
29573W        W30437   6.111   6.051   3.674
29574W        W30438   5.651   4.148   5.191
29575W        W30439   7.115   4.448   4.490
29576W        W30440   3.919   7.064   6.690
29577W        W30441   4.076   6.206   6.089
29578W        W30442   3.625   7.172   4.412
29579W        W30443   5.733   4.502   5.980
29580W        W30444   4.619   6.814   4.133
29581W        W30445   6.883   7.033   4.173
29582W        W30446   5.682   5.291   4.205
29583W        W30447   4.666   4.561   4.629
29584W        W30448   5.709   4.441   3.888
29585W        W30449   5.915   6.157   6.841
29586W        W30450   6.392   4.013   4.516
29587W        W30451   3.822   3.748   3.928
29588W        W30452   4.975   6.260   6.239
29589W        W30453   4.734   6.041   5.450
29590W        W30454   4.687   6.283   3.521
29591W        W30455   3.795   6.657   4.580
29592W        W30456   4.461   5.246   6.884
29593W        W30457   4.983   3.839   7.028
29594W        W30458   5.614   4.108   6.331
29595W        W30459   4.980   3.707   4.827
29596W        W30460   5.804   3.815   4.505
29597W        W30461   3.957   3.839   5.796
29598W        W30462   3.917   4.653   5.118
29599W        W30463   6.703   3.759   5.615
29600W        W30464   4.136   4.316   4.510
29601W        W30465   6.565   4.042   6.028
29602W        W30466   6.826   5.139   3.761
29603W        W30467   4.269   4.093   5.432
29604W        W30468   5.634   4.649   6.457
29605W        W30469   3.618   4.240   3.963
29606W        W30470   4.422   5.701   6.592
29607W        W30471   5.754   5.151   5.672
29608W        W30472   5.548   7.087   3.938
29609W        W30473   3.779   5.894   3.412
29610W        W30474   4.634   6.283   6.798
29611W        W30475   4.082   5.304   6.525
29612W        W30476   5.120   5.387   6.091
29613W        W30477   6.589   3.757   6.481
29614W        W30478   7.266   5.469   6.623
29615W        W30479   7.216   5.293   4.367
29616W        W30480   5.883   5.739   4.025
29617W        W30481   6.414   7.256   3.556
29618W        W30482   5.709   5.231   7.256
29619W        W30483   4.228   6.273   7.127
29620W        W30484   7.258   4.226   7.125
29621W        W30485   6.719   5.001   5.579
29622W        W30486   5.213   7.129   7.212
29623W        W30487   5.099   3.756   3.970
29624W        W30488   6.542   6.333   3.626
29625W        W30489   4.416   4.463   6.772
29626W        W30490   5.129   6.386   6.710
29627W        W30491   6.945   4.144   6.342
29628W        W30492   6.472   7.324   4.066
29629W        W30493   6.370   5.723   5.692
29630W        W30494   4.605   4.017   6.376
29631W        W30495   5.261   5.117   7.011
29632W        W30496   4.462   6.336   4.626
29633W        W30497   6.512   5.610   4.654
29634W        W30498   4.290   4.431   6.284
29635W        W30499   5.304   6.473   4.904
29636W        W30500   7.068   5.009   5.202
29637W        W30501   5.414   3.691   6.808
29638W        W30502   6.271   6.234   5.829
29639W        W30503   6.659   6.556   5.697
29640W        W30504   5.589   6.598   3.713
29641W        W30505   3.750   6.310   6.922
29642W        W30506   4.630   4.490   5.891
29643W        W30507   4.585   3.874   5.112
29644W        W30508   6.151   4.684   5.721
29645W        W30509   5.034   5.707   3.763
29646W        W30510   6.865   5.682   5.561
29647W        W30511   4.233   6.658   6.785
29648W        W30512   6.717   7.223   4.637
29649W        W30513   4.915   4.218   4.918
29650W        W30514   4.426   5.647   5.346
29651W        W30515   4.968   7.265   5.859
29652W        W30516   6.724   7.222   6.952
29653W        W30517   5.978   5.545   5.978
29654W        W30518   4.089   4.809   3.324
29655W        W30519   7.033   6.945   4.966
29656W        W30520   6.697   4.263   4.164
29657W        W30521   4.836   3.597   6.590
29658W        W30522   6.836   6.522   5.201
29659W        W30523   6.628   4.927   4.930
29660W        W30524   4.809   4.706   5.215
29661W        W30525   5.238   5.002   6.480
29662W        W30526   6.183   6.160   6.358
29663W        W30527   4.799   4.498   6.411
29664W        W30528   4.767   7.159   5.202
29665W        W30529   4.346   7.157   6.991
29666W        W30530   4.266   6.599   3.505
29667W        W30531   7.028   6.251   4.818
29668W        W30532   4.456   4.900   6.449
29669W        W30533   7.074   4.664   4.010
29670W        W30534   4.888   6.007   4.563
29671W        W30535   6.101   5.327   6.476
29672W        W30536   5.937   4.966   6.115
29673W        W30537   4.473   5.288   6.117
29674W        W30538   6.642   7.036   5.959
29675W        W30539   6.353   3.961   6.958
29676W        W30540   4.021   4.007   6.781
29677W        W30541   4.680   4.972   5.657
29678W        W30542   4.981   4.676   3.756
29679W        W30543   3.759   6.541   6.464
29680W        W30544   5.192   5.196   5.605
29681W        W30545   5.251   4.236   3.740
29682W        W30546   4.440   5.368   4.906
29683W        W30547   3.911   7.274   6.198
29684W        W30548   6.698   5.353   4.234
29685W        W30549   6.881   4.052   6.839
29686W        W30550   6.505   6.253   4.927
29687W        W30551   3.773   5.249   6.957
29688W        W30552   6.883   3.734   4.074
29689W        W30553   6.690   6.128   4.453
29690W        W30554   5.338   5.105   4.568
29691W        W30555   6.450   4.036   3.752
29692W        W30556   6.812   4.634   6.339
29693W        W30557   4.001   5.160   5.218
29694W        W30558   4.355   6.088   5.076
29695W        W30559   6.180   4.691   4.852
29696W        W30560   5.377   4.218   5.675
29697W        W30561   7.337   6.174   6.151
29698W        W30562   7.020   4.162   5.799
29699W        W30563   3.685   7.038   5.337
29700W        W30564   3.943   6.154   4.714
29701W        W30565   4.092   3.990   7.332
29702W        W30566   5.179   6.596   7.186
29703W        W30567   7.164   5.516   5.201
29704W        W30568   6.394   5.796   4.156
29705W        W30569   5.742   7.259   6.142
29706W        W30570   6.505   5.877   7.122
29707W        W30571   5.323   3.577   4.440
29708W        W30572   6.055   4.453   5.274
29709W        W30573   3.727   6.181   5.693
29710W        W30574   5.031   4.007   4.423
29711W        W30575   4.904   5.502   6.973
29712W        W30576   5.653   4.597   4.933
29713W        W30577   5.810   6.041   5.987
29714W        W30578   4.140   6.825   6.289
29715W        W30579   4.741   6.759   6.969
29716W        W30580   4.786   4.190   4.012
29717W        W30581   6.187   4.467   4.346
29718W        W30582   6.054   6.614   6.597
29719W        W30583   4.805   5.270   5.259
29720W        W30584   4.461   7.131   6.047
29721W        W30585   6.965   7.011   3.667
29722W        W30586   3.934   5.735   6.847
29723W        W30587   5.888   5.882   5.510
29724W        W30588   4.404   5.816   4.642
29725W        W30589   4.849   6.789   6.125
29726W        W30590   5.184   3.925   5.269
29727W        W30591   3.503   6.009   4.408
29728W        W30592   5.433   4.864   4.038
29729W        W30593   4.016   5.685   4.982
29730W        W30594   5.123   4.037   6.501
29731W        W30595   7.063   3.910   3.611
29732W        W30596   6.954   5.660   6.976
29733W        W30597   5.706   7.009   7.123
29734W        W30598   7.242   6.005   6.638
29735W        W30599   6.561   6.715   7.164
29736W        W30600   4.476   7.363   5.593
29737W        W30601   7.377   5.880   4.899
29738W        W30602   5.796   5.032   5.140
29739W        W30603   5.498   3.684   4.938
29740W        W30604   4.634   6.758   4.915
29741W        W30605   5.244   4.470   6.161
29742W        W30606   4.834   3.740   5.584
29743W        W30607   3.837   6.887   4.033
29744W        W30608   5.263   5.950   4.945
29745W        W30609   4.578   6.952   6.527
29746W        W30610   3.611   5.499   4.578
29747W        W30611   3.787   4.250   5.411
29748W        W30612   5.239   6.221   5.400
29749W        W30613   3.741   3.999   4.405
29750W        W30614   6.455   4.975   6.196
29751W        W30615   6.228   4.492   3.820
29752W        W30616   6.995   6.128   5.777
29753W        W30617   5.495   6.700   5.340
29754W        W30618   4.880   7.094   4.477
29755W        W30619   6.085   3.665   3.672
29756W        W30620   4.057   7.050   5.732
29757W        W30621   5.780   4.683   6.977
29758W        W30622   4.031   4.443   7.111
29759W        W30623   3.663   4.988   4.791
29760W        W30624   4.956   4.885   4.299
29761W        W30625   6.171   5.104   6.998
29762W        W30626   4.748   5.506   5.726
29763W        W30627   6.106   3.899   5.236
29764W        W30628   5.240   7.138   5.399
29765W        W30629   6.475   6.588   6.199
29766W        W30630   6.276   6.483   5.357
29767W        W30631   6.306   5.811   5.141
29768W        W30632   5.501   4.026   4.153
29769W        W30633   7.134   3.685   4.983
29770W        W30634   4.767   5.251   3.413
29771W        W30635   6.974   4.540   4.986
29772W        W30636   5.534   5.547   3.703
29773W        W30637   6.702   5.923   6.617
29774W        W30638   6.512   6.819   3.887
29775W        W30639   4.892   4.312   6.882
29776W        W30640   4.881   4.918   6.119
29777W        W30641   6.888   6.420   6.543
29778W        W30642   5.996   4.305   6.657
29779W        W30643   3.660   4.954   6.517
29780W        W30644   5.604   5.336   6.252
29781W        W30645   3.853   6.121   5.214
29782W        W30646   4.262   5.263   5.641
29783W        W30647   6.434   5.657   6.240
29784W        W30648   6.197   7.068   6.940
29785W        W30649   6.102   4.811   6.572
29786W        W30650   6.503   6.879   5.050
29787W        W30651   5.322   6.667   6.311
29788W        W30652   4.692   6.901   5.636
29789W        W30653   6.667   6.122   6.151
29790W        W30654   5.542   6.174   7.245
29791W        W30655   4.225   6.115   5.576
29792W        W30656   6.809   5.826   5.018
29793W        W30657   6.203   6.796   5.798
29794W        W30658   4.349   6.602   5.862
29795W        W30659   5.291   4.629   6.835
29796W        W30660   5.356   6.788   4.432
29797W        W30661   5.053   6.053   7.105
29798W        W30662   4.917   6.561   4.541
29799W        W30663   4.610   4.743   3.267
29800W        W30664   3.701   7.268  10.759
29801W        W30665   4.121   6.219  10.194
29802W        W30666   6.779   5.842   7.983
29803W        W30667   7.224   6.816   9.956
29804W        W30668   4.728   7.093   7.372
29805W        W30669   5.001   5.113   8.483
29806W        W30670   4.571   4.773   8.767
29807W        W30671   5.524   5.667   7.970
29808W        W30672   5.141   6.964  10.291
29809W        W30673   3.680   4.393  10.301
29810W        W30674   4.296   3.591  10.126
29811W        W30675   6.164   4.153   9.375
29812W        W30676   5.865   4.782   7.473
29813W        W30677   6.386   4.448  10.576
29814W        W30678   3.803   4.067   9.882
29815W        W30679   3.863   6.778  10.828
29816W        W30680   5.142   6.400   7.658
29817W        W30681   3.796   4.761   9.328
29818W        W30682   4.908   4.886  10.402
29819W        W30683   7.061   4.527   9.070
29820W        W30684   6.931   5.679   9.832
29821W        W30685   5.392   5.165   8.852
29822W        W30686   5.944   6.436   9.269
29823W        W30687   4.131   5.717   9.497
29824W        W30688   3.512   5.197   9.212
29825W        W30689   4.816   5.323  10.089
29826W        W30690   7.033   5.100  10.490
29827W        W30691   4.528   6.481   8.943
29828W        W30692   5.723   6.325   9.829
29829W        W30693   4.891   4.674   9.271
29830W        W30694   5.119   5.586   8.995
29831W        W30695   6.102   6.428  10.647
29832W        W30696   5.402   5.741  10.663
29833W        W30697   5.321   5.568  10.136
29834W        W30698   3.481   4.719  10.701
29835W        W30699   6.560   6.436  10.406
29836W        W30700   4.021   3.849   8.403
29837W        W30701   4.826   6.358   9.344
29838W        W30702   7.175   6.010   8.986
29839W        W30703   6.678   4.251   9.312
29840W        W30704   6.685   4.348   7.211
29841W        W30705   7.304   5.070   9.750
29842W        W30706   5.273   7.172   9.385
29843W        W30707   6.919   6.337   7.843
29844W        W30708   4.088   7.276   8.037
29845W        W30709   4.478   7.222   8.416
29846W        W30710   4.262   3.857   9.664
29847W        W30711   6.917   4.876  10.030
29848W        W30712   6.240   5.294   8.587
29849W        W30713   6.269   5.096   7.529
29850W        W30714   5.509   6.196   9.348
29851W        W30715   5.522   4.395   8.715
29852W        W30716   6.028   6.769   9.683
29853W        W30717   6.813   5.492   8.392
29854W        W30718   5.845   4.032   8.145
29855W        W30719   4.317   6.824   8.122
29856W        W30720   3.644   4.186   8.578
29857W        W30721   6.263   4.968   9.009
29858W        W30722   3.998   6.551   9.084
29859W        W30723   5.122   6.905   7.664
29860W        W30724   6.649   4.873   7.219
29861W        W30725   3.818   6.583   9.579
29862W        W30726   4.639   6.361   9.838
29863W        W30727   5.166   5.786   8.518
29864W        W30728   4.732   4.092   9.421
29865W        W30729   7.166   3.775   9.165
29866W        W30730   4.555   5.864   7.076
29867W        W30731   4.156   4.461   7.611
29868W        W30732   4.169   6.580   8.590
29869W        W30733   4.846   6.238   8.589
29870W        W30734   6.782   6.878  10.201
29871W        W30735   5.632   4.717   7.940
29872W        W30736   6.814   7.224   8.944
29873W        W30737   6.556   4.904  10.398
29874W        W30738   7.324   6.425   8.698
29875W        W30739   5.885   5.788  10.005
29876W        W30740   3.598   5.350   8.339
29877W        W30741   4.598   5.915   9.585
29878W        W30742   5.891   5.062   8.263
29879W        W30743   5.894   5.582   8.350
29880W        W30744   4.118   4.865   9.732
29881W        W30745   4.115   4.830  10.281
29882W        W30746   3.983   3.783   8.902
29883W        W30747   5.696   4.236   9.163
29884W        W30748   5.477   4.205  10.495
29885W        W30749   5.885   4.333   7.720
29886W        W30750   7.183   6.640  10.450
29887W        W30751   5.885   3.789  10.363
29888W        W30752   6.970   6.149  10.571
29889W        W30753   6.554   4.485  10.074
29890W        W30754   6.393   4.293   8.512
29891W        W30755   6.570   5.315  10.696
29892W        W30756   4.344   6.976   8.897
29893W        W30757   5.170   4.508   7.781
29894W        W30758   4.501   3.974  10.463
29895W        W30759   6.616   4.602   8.166
29896W        W30760   6.969   4.986   8.196
29897W        W30761   4.684   7.069  10.541
29898W        W30762   4.527   3.680   7.904
29899W        W30763   6.883   4.099   8.840
29900W        W30764   7.028   6.517   7.361
29901W        W30765   3.782   5.654   9.110
29902W        W30766   5.960   4.258   7.211
29903W        W30767   7.167   6.492   9.177
29904W        W30768   7.023   3.760   9.720
29905W        W30769   5.672   5.000  10.279
29906W        W30770   5.593   6.185   7.782
29907W        W30771   6.112   5.555  10.818
29908W        W30772   5.899   3.766   9.138
29909W        W30773   4.248   4.576   9.124
29910W        W30774   3.931   5.788   9.962
29911W        W30775   5.902   6.961   8.819
29912W        W30776   6.926   4.685   9.554
29913W        W30777   5.779   7.056  10.095
29914W        W30778   6.884   5.777   7.480
29915W        W30779   5.447   5.346   8.370
29916W        W30780   7.208   3.730  10.223
29917W        W30781   5.462   5.861   9.736
29918W        W30782   5.467   4.718   9.126
29919W        W30783   6.469   5.115   8.165
29920W        W30784   6.704   4.866   7.736
29921W        W30785   6.716   6.613   8.245
29922W        W30786   6.338   6.211   9.011
29923W        W30787   6.139   5.421   7.910
29924W        W30788   5.614   5.698   8.785
29925W        W30789   6.541   5.417   8.981
29926W        W30790   4.038   4.349   9.533
29927W        W30791   6.701   5.346  10.158
29928W        W30792   7.151   6.954   9.469
29929W        W30793   5.024   6.620   8.879
29930W        W30794   6.297   7.085   9.995
29931W        W30795   6.151   4.463   9.779
29932W        W30796   5.272   7.271   9.897
29933W        W30797   6.844   4.126   8.314
29934W        W30798   6.821   5.218   9.633
29935W        W30799   3.688   4.590   9.827
29936W        W30800   6.568   4.565   8.918
29937W        W30801   6.913   4.544  10.430
29938W        W30802   5.886   6.201   8.737
29939W        W30803   5.169   6.903   8.448
29940W        W30804   4.111   3.992   7.849
29941W        W30805   5.466   3.862   9.444
29942W        W30806   4.229   7.234   7.494
29943W        W30807   5.046   5.522   8.078
29944W        W30808   5.429   6.070  10.208
29945W        W30809   5.422   4.337   8.212
29946W        W30810   6.371   3.984   8.932
29947W        W30811   6.274   7.309   8.965
29948W        W30812   5.708   6.894   9.300
29949W        W30813   5.082   5.914   9.398
29950W        W30814   6.897   6.548   9.621
29951W        W30815   4.484   4.049   8.268
29952W        W30816   5.244   6.659   9.335
29953W        W30817   4.526   4.304   7.259
29954W        W30818   5.304   4.714   9.613
29955W        W30819   6.215   3.625   9.518
29956W        W30820   3.617   5.612   9.599
29957W        W30821   5.262   5.388   7.593
29958W        W30822   4.588   3.809   7.374
29959W        W30823   5.444   4.821   8.424
29960W        W30824   6.028   3.958   9.860
29961W        W30825   4.963   5.930   9.972
29962W        W30826   5.758   5.487  10.397
29963W        W30827   6.280   5.609  10.326
29964W        W30828   5.474   3.873  10.889
29965W        W30829   4.680   4.299   8.942
29966W        W30830   4.174   4.260   8.699
29967W        W30831   3.976   7.060   8.512
29968W        W30832   5.516   6.586  10.238
29969W        W30833   4.730   6.146   7.815
29970W        W30834   6.009   5.427   9.039
29971W        W30835   6.341   5.242   9.437
29972W        W30836   5.521   5.597   9.297
29973W        W30837   6.064   6.085   7.337
29974W        W30838   5.880   4.021   8.674
29975W        W30839   7.125   4.481   8.074
29976W        W30840   3.831   6.994  10.346
29977W        W30841   4.146   6.194   9.693
29978W        W30842   3.584   7.154   8.053
29979W        W30843   5.673   4.337   9.663
29980W        W30844   4.662   6.671   7.740
29981W        W30845   6.627   6.754   7.705
29982W        W30846   5.702   5.201   7.783
29983W        W30847   4.985   4.605   8.271
29984W        W30848   5.479   4.412   7.354
29985W        W30849   5.934   5.955  10.498
29986W        W30850   6.312   4.223   7.995
29987W        W30851   3.722   3.697   7.623
29988W        W30852   5.195   6.330   9.732
29989W        W30853   4.734   5.950   9.022
29990W        W30854   4.720   6.365   7.321
29991W        W30855   3.814   6.669   8.203
29992W        W30856   4.398   5.281  10.397
29993W        W30857   4.971   3.868  10.636
29994W        W30858   5.532   3.974   9.989
29995W        W30859   4.882   3.701   8.416
29996W        W30860   5.915   3.826   7.668
29997W        W30861   3.820   3.866   9.409
29998W        W30862   3.842   4.681   8.787
29999W        W30863   6.676   3.734   9.312
30000W        W30864   3.971   4.340   8.202
30001W        W30865   6.529   4.002   9.750
30002W        W30866   7.032   5.184   7.458
30003W        W30867   4.281   4.068   9.185
30004W        W30868   5.439   4.539  10.098
30005W        W30869   3.678   4.211   7.630
30006W        W30870   4.440   5.711  10.076
30007W        W30871   5.753   5.114   9.332
30008W        W30872   5.569   7.161   7.609
30009W        W30873   3.699   5.502   7.397
30010W        W30874   4.618   6.123  10.320
30011W        W30875   3.993   5.286  10.055
30012W        W30876   5.076   5.498   9.687
30013W        W30877   6.698   3.678  10.128
30014W        W30878   7.258   5.398  10.129
30015W        W30879   7.125   5.453   7.970
30016W        W30880   5.991   5.914   7.952
30017W        W30881   6.462   7.175   7.387
30018W        W30882   5.705   5.167  10.800
30019W        W30883   4.259   6.228  10.693
30020W        W30884   7.297   4.179  10.829
30021W        W30885   6.775   4.993   9.161
30022W        W30886   5.113   7.096  10.833
30023W        W30887   5.009   3.718   7.667
30024W        W30888   6.567   6.271   7.448
30025W        W30889   4.580   4.470  10.324
30026W        W30890   5.023   6.450  10.189
30027W        W30891   6.951   4.178   9.999
30028W        W30892   6.363   7.196   7.903
30029W        W30893   6.397   5.781   9.305
30030W        W30894   4.617   4.113   9.943
30031W        W30895   5.264   5.245  10.519
30032W        W30896   4.465   6.339   8.236
30033W        W30897   6.375   5.724   8.260
30034W        W30898   4.169   4.390  10.030
30035W        W30899   5.322   6.401   8.485
30036W        W30900   7.183   4.969   8.840
30037W        W30901   5.373   3.706  10.388
30038W        W30902   6.419   6.466   9.447
30039W        W30903   6.743   6.769   9.165
30040W        W30904   5.590   6.644   7.491
30041W        W30905   3.768   6.321  10.555
30042W        W30906   4.522   4.545   9.626
30043W        W30907   4.470   3.833   8.742
30044W        W30908   5.943   4.648   9.335
30045W        W30909   5.209   5.897   7.584
30046W        W30910   6.902   5.654   9.314
30047W        W30911   4.219   6.679  10.440
30048W        W30912   6.672   7.202   8.362
30049W        W30913   5.057   4.178   8.599
30050W        W30914   4.293   5.628   9.007
30051W        W30915   4.850   7.357   9.594
30052W        W30916   7.066   7.177  10.534
30053W        W30917   5.966   5.572   9.546
30054W        W30918   3.969   4.924   7.339
30055W        W30919   6.976   6.831   8.633
30056W        W30920   6.752   4.340   7.725
30057W        W30921   4.821   3.652  10.184
30058W        W30922   6.794   6.391   8.815
30059W        W30923   6.704   5.047   8.649
30060W        W30924   5.085   4.675   8.784
30061W        W30925   5.233   5.031  10.020
30062W        W30926   6.243   6.140  10.117
30063W        W30927   4.935   4.581   9.963
30064W        W30928   4.847   7.124   8.817
30065W        W30929   4.206   7.148  10.682
30066W        W30930   4.364   6.740   7.326
30067W        W30931   6.922   6.142   8.386
30068W        W30932   4.537   4.899  10.030
30069W        W30933   7.085   4.648   7.391
30070W        W30934   5.172   6.061   8.081
30071W        W30935   6.038   5.273   9.994
30072W        W30936   5.780   4.843   9.796
30073W        W30937   4.414   5.322   9.729
30074W        W30938   6.640   7.007   9.620
30075W        W30939   6.351   4.028  10.274
30076W        W30940   4.002   3.963  10.358
30077W        W30941   4.469   4.999   9.316
30078W        W30942   4.996   4.644   7.252
30079W        W30943   3.719   6.556  10.096
30080W        W30944   5.241   5.156   9.345
30081W        W30945   5.003   4.167   7.427
30082W        W30946   4.712   5.548   8.685
30083W        W30947   3.886   7.107   9.832
30084W        W30948   6.650   5.384   7.769
30085W        W30949   6.870   4.038  10.491
30086W        W30950   6.413   6.201   8.495
30087W        W30951   3.714   5.345  10.528
30088W        W30952   6.880   3.858   7.859
30089W        W30953   6.428   6.222   7.968
30090W        W30954   5.226   5.028   7.992
30091W        W30955   6.355   4.060   7.491
30092W        W30956   6.437   4.701   9.419
30093W        W30957   3.888   5.212   8.852
30094W        W30958   4.369   6.041   8.664
30095W        W30959   6.279   4.789   8.519
30096W        W30960   5.178   4.268   9.141
30097W        W30961   7.158   6.113   9.673
30098W        W30962   7.162   4.205   9.483
30099W        W30963   3.674   6.968   8.954
30100W        W30964   3.956   6.177   8.345
30101W        W30965   4.118   3.988  10.905
30102W        W30966   5.202   6.616  10.667
30103W        W30967   7.040   5.469   8.857
30104W        W30968   6.387   5.804   7.636
30105W        W30969   5.716   7.300   9.649
30106W        W30970   6.561   5.839  10.727
30107W        W30971   5.251   3.523   8.064
30108W        W30972   6.067   4.455   8.878
30109W        W30973   3.765   6.113   9.341
30110W        W30974   5.000   4.067   8.069
30111W        W30975   4.921   5.670  10.432
30112W        W30976   5.894   4.505   8.358
30113W        W30977   6.118   6.074   9.619
30114W        W30978   4.184   6.672   9.925
30115W        W30979   4.700   6.551  10.586
30116W        W30980   4.596   4.165   7.756
30117W        W30981   6.158   4.748   7.954
30118W        W30982   6.030   6.613  10.175
30119W        W30983   4.876   5.122   8.989
30120W        W30984   4.468   7.026   9.695
30121W        W30985   6.945   7.010   7.388
30122W        W30986   4.038   5.772  10.458
30123W        W30987   5.910   5.922   9.166
30124W        W30988   4.705   5.872   8.268
30125W        W30989   4.974   6.844   9.756
30126W        W30990   5.430   3.874   8.915
30127W        W30991   3.502   6.203   8.047
30128W        W30992   5.366   4.901   7.492
30129W        W30993   3.962   5.659   8.587
30130W        W30994   5.072   4.113  10.182
30131W        W30995   6.879   3.909   7.355
30132W        W30996   6.994   5.619  10.515
30133W        W30997   5.591   6.963  10.588
30134W        W30998   7.249   5.928  10.167
30135W        W30999   6.781   6.797  10.731
30136W        W31000   4.443   7.336   9.271
30137W        W31001   7.285   5.802   8.537
30138W        W31002   5.821   4.896   8.767
30139W        W31003   5.419   3.863   8.405
30140W        W31004   4.664   6.743   8.514
30141W        W31005   5.163   4.211   9.678
30142W        W31006   4.925   3.836   8.983
30143W        W31007   3.902   6.892   7.706
30144W        W31008   5.619   6.010   8.338
30145W        W31009   4.634   6.779  10.132
30146W        W31010   3.799   5.748   8.065
30147W        W31011   3.802   4.257   9.070
30148W        W31012   5.232   6.109   8.924
30149W        W31013   3.624   3.931   8.078
30150W        W31014   6.434   4.963   9.871
30151W        W31015   6.328   4.568   7.511
30152W        W31016   6.785   6.154   9.275
30153W        W31017   5.551   6.535   8.939
30154W        W31018   4.828   7.020   8.083
30155W        W31019   5.899   3.755   7.166
30156W        W31020   4.044   7.005   9.341
30157W        W31021   5.883   4.682  10.670
30158W        W31022   4.129   4.409  10.577
30159W        W31023   3.723   4.826   8.307
30160W        W31024   4.674   4.661   7.644
30161W        W31025   6.122   5.146  10.506
30162W        W31026   4.708   5.487   9.315
30163W        W31027   6.269   3.819   8.388
30164W        W31028   5.367   7.012   8.914
30165W        W31029   6.474   6.585   9.926
30166W        W31030   6.231   6.867   9.208
30167W        W31031   6.199   5.787   8.744
30168W        W31032   5.436   4.035   7.784
30169W        W31033   7.195   3.752   8.576
30170W        W31034   4.859   5.126   7.336
30171W        W31035   6.934   4.584   8.565
30172W        W31036   5.718   5.723   7.509
30173W        W31037   6.689   5.907  10.220
30174W        W31038   6.052   6.902   7.537
30175W        W31039   5.004   4.400  10.601
30176W        W31040   4.857   5.020   9.655
30177W        W31041   6.949   6.357  10.087
30178W        W31042   5.894   4.298  10.217
30179W        W31043   3.625   4.920  10.217
30180W        W31044   5.568   5.328   9.762
30181W        W31045   3.897   6.089   8.852
30182W        W31046   4.007   5.241   9.374
30183W        W31047   6.404   5.633   9.819
30184W        W31048   6.336   6.920  10.481
30185W        W31049   6.112   4.747  10.202
30186W        W31050   6.462   6.872   8.726
30187W        W31051   5.491   6.800   9.762
30188W        W31052   4.768   6.899   9.273
30189W        W31053   6.627   6.103   9.754
30190W        W31054   5.566   6.260  10.671
30191W        W31055   4.280   6.118   9.202
30192W        W31056   6.709   5.874   8.804
30193W        W31057   6.209   7.293   9.494
30194W        W31058   4.368   6.591   9.438
30195W        W31059   5.379   4.743  10.609
30196W        W31060   5.422   6.678   8.018
30197W        W31061   5.059   6.130  10.584
30198W        W31062   4.945   6.517   8.143
30199W        W31063   4.465   4.802   7.179
30200W        W31064   3.692   7.369  14.400
30201W        W31065   4.075   6.268  13.870
30202W        W31066   6.533   5.357  11.775
30203W        W31067   7.149   6.953  13.659
30204W        W31068   4.625   7.131  11.040
30205W        W31069   4.906   4.948  12.040
30206W        W31070   4.512   4.769  12.427
30207W        W31071   5.163   5.406  11.802
30208W        W31072   5.134   6.933  14.015
30209W        W31073   3.710   4.366  13.966
30210W        W31074   4.265   3.541  13.769
30211W        W31075   6.232   3.988  12.592
30212W        W31076   5.939   4.685  11.211
30213W        W31077   6.381   4.512  14.185
30214W        W31078   3.775   4.039  13.552
30215W        W31079   3.866   6.896  14.513
30216W        W31080   5.240   5.723  11.379
30217W        W31081   3.768   4.752  12.993
30218W        W31082   4.950   4.810  14.042
30219W        W31083   6.922   4.559  12.759
30220W        W31084   6.943   5.793  13.494
30221W        W31085   5.492   4.772  12.715
30222W        W31086   5.941   6.505  13.008
30223W        W31087   4.190   5.743  13.136
30224W        W31088   3.468   5.198  12.929
30225W        W31089   4.871   5.250  13.810
30226W        W31090   7.023   5.174  14.163
30227W        W31091   4.452   6.622  12.643
30228W        W31092   5.728   6.285  13.617
30229W        W31093   4.887   4.636  12.953
30230W        W31094   5.079   5.533  12.696
30231W        W31095   5.985   6.534  14.424
30232W        W31096   5.386   5.714  14.368
30233W        W31097   5.317   5.502  13.886
30234W        W31098   3.582   4.696  14.394
30235W        W31099   6.450   6.474  14.111
30236W        W31100   4.014   3.858  12.092
30237W        W31101   4.715   6.295  13.153
30238W        W31102   7.113   6.072  12.552
30239W        W31103   6.673   4.105  12.845
30240W        W31104   6.794   4.342  10.905
30241W        W31105   7.313   5.070  13.398
30242W        W31106   5.313   6.871  13.160
30243W        W31107   7.015   6.096  11.677
30244W        W31108   4.014   7.231  11.664
30245W        W31109   4.376   7.132  12.041
30246W        W31110   4.250   3.851  13.345
30247W        W31111   6.897   5.023  13.663
30248W        W31112   6.171   5.168  12.148
30249W        W31113   6.049   5.196  11.207
30250W        W31114   5.595   6.134  13.123
30251W        W31115   5.484   4.378  12.379
30252W        W31116   5.898   6.764  13.450
30253W        W31117   6.618   5.390  12.293
30254W        W31118   5.921   3.940  11.752
30255W        W31119   4.164   6.743  11.759
30256W        W31120   3.636   4.218  12.273
30257W        W31121   5.972   5.003  12.617
30258W        W31122   3.948   6.583  12.763
30259W        W31123   4.871   6.661  11.063
30260W        W31124   6.314   4.860  10.895
30261W        W31125   3.810   6.588  13.268
30262W        W31126   4.589   6.479  13.630
30263W        W31127   4.820   5.432  12.249
30264W        W31128   4.780   4.121  13.072
30265W        W31129   7.151   3.769  12.765
30266W        W31130   4.500   5.756  10.699
30267W        W31131   4.041   4.460  11.088
30268W        W31132   4.061   6.566  12.258
30269W        W31133   4.851   5.961  12.206
30270W        W31134   6.677   6.917  13.912
30271W        W31135   5.556   4.521  11.513
30272W        W31136   6.899   7.277  12.499
30273W        W31137   6.556   4.997  14.033
30274W        W31138   7.346   6.537  12.419
30275W        W31139   5.902   5.800  13.628
30276W        W31140   3.625   5.220  12.106
30277W        W31141   4.604   5.858  13.423
30278W        W31142   5.871   4.875  11.727
30279W        W31143   5.682   5.318  12.106
30280W        W31144   4.117   4.819  13.367
30281W        W31145   4.108   4.745  13.877
30282W        W31146   3.980   3.795  12.588
30283W        W31147   5.727   4.151  12.805
30284W        W31148   5.539   4.176  14.126
30285W        W31149   5.860   4.130  11.247
30286W        W31150   7.141   6.802  14.172
30287W        W31151   5.944   3.835  14.047
30288W        W31152   6.851   6.259  14.360
30289W        W31153   6.435   4.126  13.825
30290W        W31154   6.254   4.174  12.088
30291W        W31155   6.615   5.423  14.341
30292W        W31156   4.166   7.011  12.509
30293W        W31157   5.052   4.480  11.433
30294W        W31158   4.484   3.917  14.036
30295W        W31159   6.604   4.454  11.819
30296W        W31160   6.670   4.939  12.037
30297W        W31161   4.759   7.073  14.359
30298W        W31162   4.498   3.690  11.525
30299W        W31163   7.020   4.146  12.465
30300W        W31164   7.156   6.456  10.934
30301W        W31165   3.797   5.671  12.806
30302W        W31166   5.957   4.177  10.727
30303W        W31167   7.151   6.569  12.900
30304W        W31168   7.065   3.701  13.349
30305W        W31169   5.699   5.109  13.980
30306W        W31170   5.198   5.970  11.829
30307W        W31171   5.862   5.837  14.553
30308W        W31172   5.837   3.662  12.635
30309W        W31173   4.253   4.586  12.833
30310W        W31174   4.082   5.779  13.642
30311W        W31175   5.618   7.300  12.626
30312W        W31176   6.843   4.892  13.151
30313W        W31177   5.710   7.028  13.864
30314W        W31178   6.933   5.476  11.007
30315W        W31179   5.271   5.125  12.368
30316W        W31180   7.176   3.754  13.975
30317W        W31181   5.411   5.852  13.511
30318W        W31182   5.918   4.645  12.998
30319W        W31183   6.358   4.899  11.616
30320W        W31184   6.686   4.648  11.320
30321W        W31185   6.934   6.400  12.135
30322W        W31186   6.290   6.159  12.741
30323W        W31187   6.027   5.372  11.696
30324W        W31188   5.622   5.402  12.626
30325W        W31189   6.692   5.309  12.795
30326W        W31190   4.024   4.326  13.212
30327W        W31191   6.711   5.466  13.837
30328W        W31192   7.200   7.054  13.138
30329W        W31193   4.884   6.438  12.456
30330W        W31194   6.213   7.092  13.746
30331W        W31195   6.212   4.497  13.461
30332W        W31196   5.307   7.229  13.593
30333W        W31197   6.940   4.047  11.888
30334W        W31198   6.715   5.368  13.309
30335W        W31199   3.682   4.561  13.498
30336W        W31200   6.530   4.408  12.443
30337W        W31201   6.659   4.574  13.743
30338W        W31202   5.759   6.261  12.598
30339W        W31203   4.865   6.975  11.890
30340W        W31204   4.107   4.050  11.443
30341W        W31205   5.425   3.744  12.993
30342W        W31206   4.134   7.119  11.181
30343W        W31207   4.834   5.409  11.323
30344W        W31208   5.416   6.054  13.976
30345W        W31209   5.428   4.010  11.968
30346W        W31210   6.631   3.852  12.302
30347W        W31211   6.458   7.323  12.765
30348W        W31212   5.799   7.000  13.003
30349W        W31213   5.064   5.887  13.114
30350W        W31214   6.862   6.682  13.335
30351W        W31215   4.465   4.022  11.913
30352W        W31216   5.166   6.349  12.883
30353W        W31217   4.558   4.317  10.858
30354W        W31218   5.354   4.662  13.216
30355W        W31219   6.175   3.688  13.052
30356W        W31220   3.712   5.590  13.315
30357W        W31221   5.248   5.316  11.031
30358W        W31222   4.594   3.804  10.975
30359W        W31223   5.222   4.484  11.939
30360W        W31224   6.089   3.945  13.505
30361W        W31225   4.970   5.873  13.777
30362W        W31226   5.781   5.611  14.073
30363W        W31227   6.274   5.690  14.009
30364W        W31228   5.519   3.880  14.540
30365W        W31229   4.673   4.306  12.601
30366W        W31230   4.193   4.277  12.386
30367W        W31231   3.855   7.015  12.116
30368W        W31232   5.532   6.567  14.121
30369W        W31233   4.527   5.812  11.248
30370W        W31234   6.212   5.468  12.612
30371W        W31235   6.277   5.118  13.017
30372W        W31236   5.503   5.592  13.085
30373W        W31237   6.605   6.340  10.906
30374W        W31238   5.824   4.021  12.286
30375W        W31239   7.092   4.519  11.682
30376W        W31240   3.872   7.101  13.987
30377W        W31241   4.214   6.216  13.378
30378W        W31242   3.526   7.094  11.739
30379W        W31243   5.747   4.295  13.317
30380W        W31244   4.866   6.143  11.459
30381W        W31245   6.962   7.173  11.429
30382W        W31246   5.566   5.242  11.470
30383W        W31247   4.702   4.457  12.057
30384W        W31248   5.506   4.384  10.980
30385W        W31249   5.889   6.128  14.124
30386W        W31250   6.472   3.854  11.772
30387W        W31251   3.725   3.757  11.243
30388W        W31252   5.172   6.307  13.405
30389W        W31253   4.761   5.989  12.714
30390W        W31254   4.697   6.194  10.952
30391W        W31255   3.667   6.590  11.876
30392W        W31256   4.431   5.113  14.085
30393W        W31257   4.950   3.812  14.240
30394W        W31258   5.608   3.946  13.660
30395W        W31259   4.866   3.693  12.083
30396W        W31260   6.294   3.851  11.291
30397W        W31261   3.813   3.861  13.080
30398W        W31262   3.862   4.692  12.488
30399W        W31263   6.698   3.602  12.933
30400W        W31264   4.019   4.333  11.895
30401W        W31265   6.572   3.907  13.329
30402W        W31266   6.819   4.846  10.861
30403W        W31267   4.303   4.069  12.871
30404W        W31268   5.446   4.454  13.704
30405W        W31269   3.583   4.252  11.295
30406W        W31270   4.498   5.594  13.891
30407W        W31271   5.746   5.122  13.063
30408W        W31272   5.005   7.044  11.369
30409W        W31273   3.639   5.875  10.797
30410W        W31274   4.547   6.095  13.967
30411W        W31275   4.055   5.252  13.646
30412W        W31276   5.085   5.463  13.397
30413W        W31277   6.693   3.679  13.776
30414W        W31278   7.236   5.448  13.785
30415W        W31279   6.922   5.023  11.597
30416W        W31280   5.613   5.682  11.758
30417W        W31281   6.608   7.311  10.750
30418W        W31282   5.741   5.327  14.494
30419W        W31283   4.249   6.277  14.374
30420W        W31284   7.327   4.087  14.399
30421W        W31285   6.422   4.633  12.906
30422W        W31286   5.255   7.065  14.535
30423W        W31287   4.984   3.724  11.332
30424W        W31288   6.889   5.979  11.142
30425W        W31289   4.618   4.418  13.939
30426W        W31290   5.055   6.432  13.886
30427W        W31291   6.939   4.123  13.640
30428W        W31292   6.594   7.532  11.248
30429W        W31293   6.454   5.735  13.024
30430W        W31294   4.664   4.065  13.562
30431W        W31295   5.284   5.178  14.284
30432W        W31296   4.502   6.189  11.848
30433W        W31297   6.234   5.676  12.111
30434W        W31298   4.201   4.272  13.688
30435W        W31299   5.316   6.195  12.288
30436W        W31300   6.974   5.006  12.466
30437W        W31301   5.416   3.689  14.057
30438W        W31302   6.453   6.517  13.075
30439W        W31303   6.756   6.914  12.872
30440W        W31304   5.207   6.211  11.069
30441W        W31305   3.744   6.400  14.248
30442W        W31306   4.508   4.493  13.293
30443W        W31307   4.474   3.840  12.411
30444W        W31308   6.198   4.198  13.054
30445W        W31309   4.964   5.751  10.945
30446W        W31310   6.991   5.690  12.980
30447W        W31311   4.168   6.716  14.128
30448W        W31312   6.862   7.314  11.958
30449W        W31313   5.025   4.138  12.278
30450W        W31314   4.287   5.748  12.623
30451W        W31315   4.929   7.250  13.189
30452W        W31316   6.842   7.252  14.253
30453W        W31317   6.030   5.521  13.224
30454W        W31318   3.957   4.892  10.758
30455W        W31319   7.121   6.928  12.187
30456W        W31320   6.695   4.149  11.400
30457W        W31321   4.811   3.608  13.749
30458W        W31322   6.716   6.452  12.603
30459W        W31323   6.464   4.933  12.506
30460W        W31324   5.045   4.643  12.441
30461W        W31325   5.300   4.963  13.689
30462W        W31326   6.228   6.174  13.756
30463W        W31327   4.961   4.509  13.560
30464W        W31328   4.708   7.019  12.444
30465W        W31329   4.257   7.215  14.316
30466W        W31330   4.362   6.694  10.950
30467W        W31331   6.915   5.848  12.125
30468W        W31332   4.556   4.854  13.661
30469W        W31333   7.187   4.575  11.160
30470W        W31334   4.754   5.722  11.744
30471W        W31335   6.115   5.314  13.694
30472W        W31336   5.775   4.819  13.490
30473W        W31337   4.516   5.336  13.434
30474W        W31338   6.555   7.448  13.280
30475W        W31339   6.414   3.965  14.318
30476W        W31340   3.976   3.902  14.014
30477W        W31341   4.498   4.983  13.055
30478W        W31342   4.977   4.802  10.943
30479W        W31343   3.675   6.590  13.770
30480W        W31344   5.247   5.143  12.984
30481W        W31345   5.041   4.149  11.048
30482W        W31346   4.360   5.241  12.629
30483W        W31347   3.920   7.181  13.476
30484W        W31348   6.586   5.154  11.224
30485W        W31349   6.863   4.142  14.152
30486W        W31350   6.484   6.138  12.226
30487W        W31351   3.907   5.259  14.136
30488W        W31352   6.892   3.672  11.463
30489W        W31353   6.548   5.872  11.743
30490W        W31354   5.393   4.954  11.869
30491W        W31355   6.454   3.952  10.796
30492W        W31356   6.687   4.408  13.269
30493W        W31357   3.848   5.207  12.580
30494W        W31358   4.411   6.193  12.362
30495W        W31359   6.214   4.676  12.080
30496W        W31360   5.203   4.259  12.792
30497W        W31361   7.155   6.271  13.404
30498W        W31362   7.109   4.163  13.138
30499W        W31363   3.624   6.990  12.605
30500W        W31364   3.986   6.121  12.007
30501W        W31365   4.156   3.933  14.509
30502W        W31366   5.114   6.583  14.432
30503W        W31367   7.071   5.521  12.502
30504W        W31368   6.467   5.648  11.226
30505W        W31369   5.826   7.290  13.434
30506W        W31370   6.345   6.031  14.359
30507W        W31371   5.252   3.581  11.741
30508W        W31372   6.009   4.472  12.508
30509W        W31373   3.819   6.134  13.020
30510W        W31374   4.961   4.063  11.742
30511W        W31375   4.920   5.575  14.212
30512W        W31376   5.781   4.404  11.954
30513W        W31377   6.129   6.088  13.248
30514W        W31378   4.147   6.742  13.624
30515W        W31379   4.660   6.549  14.188
30516W        W31380   4.621   4.161  11.361
30517W        W31381   6.152   4.398  11.594
30518W        W31382   6.004   6.620  13.925
30519W        W31383   4.847   5.076  12.668
30520W        W31384   4.488   7.047  13.392
30521W        W31385   7.204   6.984  11.009
30522W        W31386   4.094   5.823  14.157
30523W        W31387   5.905   5.823  12.837
30524W        W31388   4.382   5.741  12.114
30525W        W31389   4.941   6.837  13.521
30526W        W31390   5.389   3.866  12.491
30527W        W31391   3.434   6.144  11.679
30528W        W31392   5.466   4.862  11.127
30529W        W31393   3.883   5.660  12.279
30530W        W31394   5.121   4.023  13.785
30531W        W31395   6.939   3.866  10.998
30532W        W31396   7.012   5.727  14.191
30533W        W31397   5.739   6.995  14.376
30534W        W31398   7.241   6.028  13.842
30535W        W31399   6.706   6.771  14.433
30536W        W31400   4.489   7.187  12.891
30537W        W31401   7.381   6.149  12.074
30538W        W31402   5.713   4.820  12.234
30539W        W31403   5.604   3.536  12.156
30540W        W31404   4.538   6.644  12.116
30541W        W31405   5.248   4.134  13.302
30542W        W31406   4.921   3.817  12.687
30543W        W31407   3.774   6.818  11.373
30544W        W31408   5.295   5.654  12.240
30545W        W31409   4.579   6.943  13.889
30546W        W31410   3.488   5.651  11.878
30547W        W31411   3.824   4.259  12.754
30548W        W31412   5.403   5.910  12.698
30549W        W31413   3.644   4.004  11.746
30550W        W31414   6.426   4.961  13.481
30551W        W31415   6.311   4.355  11.091
30552W        W31416   6.833   6.161  12.994
30553W        W31417   5.491   6.712  12.699
30554W        W31418   4.648   6.629  11.555
30555W        W31419   5.986   3.699  10.898
30556W        W31420   4.010   7.046  12.991
30557W        W31421   5.934   4.782  14.369
30558W        W31422   4.176   4.344  14.200
30559W        W31423   3.657   4.696  12.025
30560W        W31424   5.099   4.995  11.455
30561W        W31425   6.143   5.234  14.203
30562W        W31426   4.650   5.529  12.977
30563W        W31427   6.153   3.653  12.166
30564W        W31428   5.133   7.138  12.729
30565W        W31429   6.396   6.635  13.582
30566W        W31430   6.241   6.840  12.724
30567W        W31431   5.779   5.800  12.329
30568W        W31432   5.387   4.035  11.434
30569W        W31433   7.214   3.729  12.234
30570W        W31434   4.794   5.276  10.758
30571W        W31435   6.949   4.546  12.187
30572W        W31436   5.678   5.597  11.104
30573W        W31437   6.681   5.999  13.925
30574W        W31438   6.825   6.697  11.246
30575W        W31439   5.059   4.324  14.181
30576W        W31440   4.923   4.979  13.340
30577W        W31441   6.901   6.459  13.835
30578W        W31442   5.943   4.326  13.858
30579W        W31443   3.625   4.889  13.886
30580W        W31444   5.625   5.345  13.517
30581W        W31445   3.916   6.119  12.520
30582W        W31446   4.030   5.243  13.074
30583W        W31447   6.411   5.739  13.525
30584W        W31448   6.260   6.987  14.263
30585W        W31449   6.110   4.815  13.873
30586W        W31450   6.615   6.888  12.348
30587W        W31451   5.419   6.696  13.631
30588W        W31452   4.821   6.779  12.981
30589W        W31453   6.635   6.204  13.452
30590W        W31454   5.485   6.205  14.491
30591W        W31455   4.300   6.192  12.871
30592W        W31456   6.661   5.819  12.580
30593W        W31457   6.287   7.014  13.212
30594W        W31458   4.321   6.650  13.134
30595W        W31459   5.451   4.693  14.168
30596W        W31460   5.167   6.559  11.480
30597W        W31461   4.993   6.098  14.263
30598W        W31462   4.960   6.415  11.936
30599W        W31463   4.477   4.824  10.683
30600W        W31464   3.736   7.344  18.035
30601W        W31465   4.158   6.310  17.499
30602W        W31466   6.661   5.850  15.170
30603W        W31467   7.026   6.904  17.190
30604W        W31468   4.714   7.045  14.874
30605W        W31469   5.021   5.279  16.035
30606W        W31470   4.620   4.426  16.115
30607W        W31471   5.674   5.916  15.513
30608W        W31472   5.243   6.999  17.715
30609W        W31473   3.779   4.450  17.671
30610W        W31474   4.316   3.673  17.487
30611W        W31475   6.288   4.076  16.272
30612W        W31476   6.003   5.040  14.833
30613W        W31477   6.382   4.583  17.956
30614W        W31478   3.906   4.134  17.265
30615W        W31479   3.911   6.836  18.097
30616W        W31480   5.157   6.344  14.906
30617W        W31481   3.876   4.856  16.679
30618W        W31482   4.875   4.904  17.850
30619W        W31483   7.114   4.598  16.499
30620W        W31484   6.995   5.782  17.215
30621W        W31485   5.430   5.212  16.320
30622W        W31486   5.836   6.474  16.611
30623W        W31487   4.179   5.832  16.835
30624W        W31488   3.468   5.333  16.654
30625W        W31489   4.871   5.336  17.539
30626W        W31490   7.060   5.185  17.966
30627W        W31491   4.566   6.643  16.353
30628W        W31492   5.744   6.277  17.405
30629W        W31493   5.150   4.904  16.632
30630W        W31494   5.185   5.685  16.358
30631W        W31495   6.100   6.529  18.115
30632W        W31496   5.429   5.650  18.128
30633W        W31497   5.386   5.502  17.620
30634W        W31498   3.647   4.766  18.062
30635W        W31499   6.475   6.398  17.789
30636W        W31500   3.999   3.824  15.849
30637W        W31501   4.716   6.315  16.820
30638W        W31502   6.909   6.187  15.999
30639W        W31503   6.591   4.340  16.612
30640W        W31504   6.696   4.439  14.572
30641W        W31505   7.255   5.336  17.120
30642W        W31506   5.470   6.818  16.809
30643W        W31507   6.863   6.251  14.914
30644W        W31508   4.063   7.221  15.341
30645W        W31509   4.431   7.149  15.701
30646W        W31510   4.348   3.958  17.024
30647W        W31511   6.885   4.882  17.331
30648W        W31512   6.344   5.389  15.980
30649W        W31513   6.223   5.471  14.654
30650W        W31514   5.498   6.299  16.952
30651W        W31515   5.523   4.443  16.067
30652W        W31516   5.876   6.664  17.107
30653W        W31517   6.857   5.452  15.925
30654W        W31518   5.947   4.084  15.425
30655W        W31519   4.284   6.750  15.401
30656W        W31520   3.616   4.200  16.031
30657W        W31521   6.228   4.993  16.302
30658W        W31522   4.039   6.598  16.408
30659W        W31523   5.167   6.856  15.025
30660W        W31524   6.427   4.962  14.535
30661W        W31525   3.818   6.647  16.895
30662W        W31526   4.594   6.520  17.295
30663W        W31527   4.716   5.710  16.131
30664W        W31528   4.842   4.104  16.888
30665W        W31529   7.117   3.744  16.439
30666W        W31530   4.557   5.860  14.430
30667W        W31531   4.227   4.408  14.707
30668W        W31532   4.165   6.623  15.895
30669W        W31533   4.953   6.211  15.814
30670W        W31534   6.630   6.903  17.523
30671W        W31535   5.767   4.627  15.052
30672W        W31536   6.818   7.098  16.143
30673W        W31537   6.608   5.009  17.752
30674W        W31538   7.154   6.616  15.801
30675W        W31539   5.897   5.796  17.396
30676W        W31540   3.331   5.601  15.670
30677W        W31541   4.567   5.984  17.196
30678W        W31542   6.035   5.023  15.347
30679W        W31543   5.992   5.487  15.594
30680W        W31544   4.134   4.952  17.130
30681W        W31545   4.194   4.864  17.807
30682W        W31546   4.061   3.868  16.352
30683W        W31547   5.804   4.244  16.473
30684W        W31548   5.558   4.230  17.778
30685W        W31549   5.892   4.149  14.902
30686W        W31550   7.179   6.908  17.689
30687W        W31551   5.916   3.832  17.740
30688W        W31552   6.927   6.184  17.984
30689W        W31553   6.561   4.487  17.475
30690W        W31554   6.273   4.320  15.757
30691W        W31555   6.617   5.330  18.184
30692W        W31556   4.250   7.030  16.187
30693W        W31557   5.257   4.509  15.008
30694W        W31558   4.603   3.882  17.876
30695W        W31559   6.628   4.659  15.588
30696W        W31560   7.000   5.017  15.623
30697W        W31561   4.736   7.207  17.870
30698W        W31562   4.520   3.664  15.168
30699W        W31563   6.927   4.196  16.239
30700W        W31564   7.183   6.561  14.669
30701W        W31565   3.767   5.707  16.482
30702W        W31566   5.984   4.249  14.388
30703W        W31567   7.046   6.629  16.320
30704W        W31568   7.056   3.749  17.028
30705W        W31569   5.707   5.093  17.722
30706W        W31570   5.550   6.378  15.239
30707W        W31571   6.177   5.552  18.296
30708W        W31572   5.844   3.749  16.384
30709W        W31573   4.270   4.678  16.416
30710W        W31574   4.086   5.806  17.336
30711W        W31575   5.684   7.008  15.943
30712W        W31576   7.024   4.962  16.848
30713W        W31577   5.720   7.026  17.470
30714W        W31578   6.731   5.826  14.642
30715W        W31579   5.481   5.477  15.809
30716W        W31580   7.269   3.724  17.517
30717W        W31581   5.410   5.878  17.238
30718W        W31582   5.647   4.758  16.472
30719W        W31583   6.520   5.190  15.538
30720W        W31584   6.464   4.932  15.067
30721W        W31585   6.715   6.764  15.478
30722W        W31586   6.324   6.301  16.216
30723W        W31587   6.300   5.467  15.172
30724W        W31588   5.689   5.663  16.250
30725W        W31589   6.686   5.369  16.416
30726W        W31590   4.150   4.458  16.903
30727W        W31591   6.852   5.369  17.471
30728W        W31592   7.013   7.031  16.638
30729W        W31593   5.027   6.605  16.139
30730W        W31594   6.197   7.080  17.256
30731W        W31595   6.154   4.399  17.128
30732W        W31596   5.275   7.112  17.188
30733W        W31597   6.823   4.196  15.740
30734W        W31598   6.764   5.399  16.937
30735W        W31599   3.720   4.609  17.151
30736W        W31600   6.540   4.521  16.129
30737W        W31601   7.006   4.682  17.783
30738W        W31602   5.817   6.296  16.079
30739W        W31603   5.159   6.956  15.782
30740W        W31604   4.103   3.996  15.022
30741W        W31605   5.599   3.949  16.838
30742W        W31606   4.211   7.197  14.839
30743W        W31607   5.378   5.558  15.290
30744W        W31608   5.513   5.982  17.750
30745W        W31609   5.448   4.072  15.616
30746W        W31610   6.746   3.756  16.087
30747W        W31611   6.269   7.198  16.310
30748W        W31612   5.753   7.112  16.467
30749W        W31613   5.136   5.968  16.786
30750W        W31614   6.824   6.589  16.843
30751W        W31615   4.355   4.016  15.514
30752W        W31616   5.154   6.470  16.619
30753W        W31617   4.624   4.189  14.435
30754W        W31618   5.478   4.938  17.013
30755W        W31619   6.134   3.883  16.828
30756W        W31620   3.720   5.663  17.001
30757W        W31621   5.339   5.428  14.785
30758W        W31622   4.607   3.708  14.623
30759W        W31623   5.480   4.927  15.879
30760W        W31624   6.249   3.938  17.355
30761W        W31625   5.014   5.861  17.587
30762W        W31626   5.881   5.585  17.863
30763W        W31627   6.403   5.498  17.737
30764W        W31628   5.578   3.876  18.149
30765W        W31629   4.788   4.542  16.591
30766W        W31630   4.124   4.293  16.066
30767W        W31631   3.906   7.064  15.806
30768W        W31632   5.641   6.506  17.847
30769W        W31633   4.752   6.070  15.096
30770W        W31634   6.152   5.507  16.430
30771W        W31635   6.336   5.153  16.767
30772W        W31636   5.623   5.759  16.764
30773W        W31637   5.893   6.274  14.856
30774W        W31638   5.862   4.068  15.959
30775W        W31639   7.119   4.525  15.447
30776W        W31640   3.856   7.043  17.620
30777W        W31641   4.217   6.334  16.983
30778W        W31642   3.570   7.110  15.392
30779W        W31643   5.678   4.474  16.918
30780W        W31644   4.687   6.585  15.089
30781W        W31645   6.707   6.755  14.944
30782W        W31646   5.825   5.535  14.995
30783W        W31647   5.066   4.261  15.920
30784W        W31648   5.538   4.396  14.597
30785W        W31649   6.010   6.104  17.832
30786W        W31650   6.483   4.073  15.358
30787W        W31651   3.688   3.673  14.931
30788W        W31652   5.035   6.239  17.215
30789W        W31653   4.885   6.141  16.346
30790W        W31654   4.709   6.319  14.640
30791W        W31655   3.757   6.658  15.525
30792W        W31656   4.509   5.255  17.926
30793W        W31657   5.085   3.755  17.982
30794W        W31658   5.725   4.121  17.306
30795W        W31659   5.060   3.761  15.829
30796W        W31660   6.161   3.728  15.092
30797W        W31661   3.872   3.912  16.819
30798W        W31662   3.770   4.698  16.166
30799W        W31663   6.637   3.803  16.630
30800W        W31664   3.873   4.253  15.578
30801W        W31665   6.648   4.118  17.073
30802W        W31666   7.124   5.446  14.597
30803W        W31667   4.401   4.202  16.538
30804W        W31668   5.665   4.641  17.431
30805W        W31669   3.586   4.201  14.949
30806W        W31670   4.514   5.703  17.633
30807W        W31671   5.792   5.217  16.682
30808W        W31672   5.594   7.144  14.962
30809W        W31673   3.643   5.934  14.465
30810W        W31674   4.658   6.216  17.696
30811W        W31675   4.182   5.305  17.513
30812W        W31676   4.953   5.625  17.120
30813W        W31677   6.721   3.667  17.392
30814W        W31678   7.316   5.570  17.581
30815W        W31679   6.943   5.485  15.402
30816W        W31680   6.160   5.936  15.361
30817W        W31681   6.551   7.205  14.683
30818W        W31682   5.741   5.242  18.221
30819W        W31683   4.272   6.376  18.010
30820W        W31684   7.298   4.098  17.868
30821W        W31685   6.671   4.850  16.502
30822W        W31686   5.416   7.079  18.197
30823W        W31687   5.021   3.662  14.930
30824W        W31688   6.426   6.410  14.677
30825W        W31689   4.560   4.492  17.776
30826W        W31690   5.168   6.354  17.691
30827W        W31691   7.051   4.480  17.096
30828W        W31692   6.473   7.150  15.200
30829W        W31693   6.419   5.844  16.717
30830W        W31694   4.647   4.139  17.412
30831W        W31695   5.283   5.172  18.000
30832W        W31696   4.520   6.285  15.508
30833W        W31697   6.529   5.722  15.646
30834W        W31698   4.213   4.525  17.407
30835W        W31699   5.419   6.489  15.803
30836W        W31700   7.113   5.063  16.247
30837W        W31701   5.431   3.743  17.614
30838W        W31702   6.324   6.379  16.725
30839W        W31703   6.552   6.774  16.454
30840W        W31704   5.555   6.660  14.733
30841W        W31705   3.771   6.358  17.870
30842W        W31706   4.626   4.552  17.083
30843W        W31707   4.492   3.897  16.059
30844W        W31708   6.143   4.625  16.652
30845W        W31709   5.032   5.862  14.712
30846W        W31710   6.924   5.830  16.707
30847W        W31711   4.320   6.791  17.703
30848W        W31712   6.815   7.268  15.625
30849W        W31713   4.882   4.054  16.363
30850W        W31714   4.245   5.713  16.329
30851W        W31715   4.855   7.252  16.943
30852W        W31716   6.808   7.226  17.881
30853W        W31717   6.060   5.557  16.953
30854W        W31718   4.077   4.825  14.384
30855W        W31719   7.125   6.604  15.219
30856W        W31720   6.701   4.461  15.093
30857W        W31721   4.901   3.684  17.490
30858W        W31722   6.650   6.628  15.972
30859W        W31723   6.661   4.994  16.008
30860W        W31724   5.087   4.718  16.170
30861W        W31725   5.266   5.011  17.480
30862W        W31726   6.251   6.177  17.382
30863W        W31727   4.974   4.583  17.466
30864W        W31728   4.769   7.066  16.109
30865W        W31729   4.235   7.241  17.951
30866W        W31730   4.389   6.757  14.595
30867W        W31731   6.869   6.232  15.477
30868W        W31732   4.559   4.933  17.436
30869W        W31733   6.934   4.918  14.618
30870W        W31734   5.187   6.042  15.375
30871W        W31735   6.039   5.318  17.428
30872W        W31736   5.991   4.912  17.071
30873W        W31737   4.469   5.431  17.093
30874W        W31738   6.593   7.050  16.933
30875W        W31739   6.410   4.021  17.850
30876W        W31740   4.162   4.099  17.720
30877W        W31741   4.515   4.969  16.788
30878W        W31742   5.071   4.671  14.541
30879W        W31743   3.711   6.585  17.398
30880W        W31744   5.273   5.385  16.789
30881W        W31745   5.081   4.124  14.668
30882W        W31746   4.350   5.204  16.355
30883W        W31747   3.834   7.199  17.129
30884W        W31748   6.692   5.352  14.864
30885W        W31749   6.952   4.145  17.494
30886W        W31750   6.422   6.218  15.724
30887W        W31751   3.860   5.253  17.939
30888W        W31752   7.020   4.063  15.237
30889W        W31753   6.441   6.351  15.197
30890W        W31754   5.567   5.100  15.138
30891W        W31755   6.414   4.083  14.828
30892W        W31756   6.555   4.698  16.984
30893W        W31757   3.824   5.216  16.290
30894W        W31758   4.489   6.250  16.024
30895W        W31759   6.206   4.870  15.799
30896W        W31760   5.287   4.356  16.531
30897W        W31761   7.152   6.254  17.046
30898W        W31762   7.064   4.148  16.730
30899W        W31763   3.731   7.006  16.286
30900W        W31764   4.005   6.221  15.621
30901W        W31765   4.206   3.939  18.234
30902W        W31766   5.226   6.591  18.142
30903W        W31767   7.118   5.768  16.234
30904W        W31768   6.271   5.934  14.862
30905W        W31769   5.775   7.194  16.979
30906W        W31770   6.462   5.913  18.041
30907W        W31771   5.291   3.579  15.384
30908W        W31772   6.020   4.550  16.142
30909W        W31773   3.838   6.185  16.643
30910W        W31774   4.927   3.952  15.359
30911W        W31775   4.933   5.556  18.002
30912W        W31776   5.815   4.553  15.637
30913W        W31777   5.972   6.088  16.969
30914W        W31778   4.162   6.803  17.229
30915W        W31779   4.817   6.708  17.799
30916W        W31780   4.624   4.115  14.948
30917W        W31781   6.216   4.523  15.286
30918W        W31782   6.083   6.664  17.589
30919W        W31783   4.833   5.317  16.534
30920W        W31784   4.353   7.243  17.046
30921W        W31785   7.073   7.052  14.668
30922W        W31786   4.057   5.908  17.837
30923W        W31787   5.998   6.002  16.469
30924W        W31788   4.289   5.833  15.815
30925W        W31789   4.984   6.727  17.027
30926W        W31790   5.393   3.958  16.209
30927W        W31791   3.545   6.226  15.306
30928W        W31792   5.518   4.902  14.664
30929W        W31793   3.820   5.668  15.970
30930W        W31794   5.185   4.110  17.327
30931W        W31795   6.883   3.946  14.650
30932W        W31796   6.886   5.663  17.878
30933W        W31797   5.846   6.956  17.966
30934W        W31798   7.326   6.077  17.493
30935W        W31799   6.808   6.712  17.995
30936W        W31800   4.522   7.256  16.552
30937W        W31801   7.163   5.836  15.720
30938W        W31802   5.867   5.222  16.040
30939W        W31803   5.581   3.623  15.856
30940W        W31804   4.675   6.687  15.777
30941W        W31805   5.151   4.530  16.995
30942W        W31806   5.176   3.746  16.639
30943W        W31807   3.883   6.844  15.039
30944W        W31808   5.395   5.979  15.949
30945W        W31809   4.721   7.011  17.380
30946W        W31810   3.776   5.776  15.453
30947W        W31811   3.844   4.332  16.513
30948W        W31812   5.481   6.131  16.433
30949W        W31813   3.548   3.908  15.389
30950W        W31814   6.457   5.130  17.256
30951W        W31815   6.208   4.554  14.761
30952W        W31816   6.752   6.239  16.482
30953W        W31817   5.501   6.686  16.295
30954W        W31818   4.813   7.004  15.388
30955W        W31819   6.015   3.766  14.580
30956W        W31820   4.053   7.049  16.676
30957W        W31821   5.847   4.664  17.940
30958W        W31822   4.124   4.450  18.085
30959W        W31823   3.430   5.105  15.827
30960W        W31824   5.083   5.008  14.929
30961W        W31825   6.171   5.086  18.007
30962W        W31826   4.666   5.789  16.680
30963W        W31827   6.317   3.810  15.799
30964W        W31828   5.250   7.239  16.211
30965W        W31829   6.410   6.614  17.166
30966W        W31830   6.055   6.744  16.224
30967W        W31831   6.093   5.855  15.959
30968W        W31832   5.412   4.000  15.066
30969W        W31833   7.259   3.832  15.962
30970W        W31834   4.813   5.130  14.463
30971W        W31835   7.029   4.631  15.972
30972W        W31836   5.497   5.934  14.941
30973W        W31837   6.698   6.001  17.561
30974W        W31838   6.177   6.859  14.787
30975W        W31839   5.018   4.245  17.848
30976W        W31840   4.937   5.061  17.081
30977W        W31841   6.930   6.466  17.489
30978W        W31842   6.061   4.326  17.634
30979W        W31843   3.778   4.944  17.532
30980W        W31844   5.612   5.402  17.170
30981W        W31845   3.978   6.137  16.138
30982W        W31846   4.052   5.336  16.762
30983W        W31847   6.453   5.680  17.248
30984W        W31848   6.354   6.973  17.953
30985W        W31849   6.156   4.824  17.549
30986W        W31850   6.387   7.050  15.817
30987W        W31851   5.395   6.640  17.334
30988W        W31852   4.990   6.950  16.556
30989W        W31853   6.653   6.147  17.058
30990W        W31854   5.570   6.160  18.241
30991W        W31855   4.348   6.187  16.502
30992W        W31856   6.568   5.828  16.194
30993W        W31857   6.140   6.879  16.736
30994W        W31858   4.505   6.798  16.837
30995W        W31859   5.340   4.678  17.873
30996W        W31860   5.524   6.856  15.427
30997W        W31861   5.085   6.051  18.099
30998W        W31862   5.068   6.548  15.432
30999W        W31863   4.567   4.686  14.371
31000W        W31864   3.766   7.235  21.677
31001W        W31865   4.112   6.208  21.074
31002W        W31866   6.874   5.912  19.033
31003W        W31867   7.159   6.967  20.977
31004W        W31868   4.922   6.979  18.293
31005W        W31869   5.108   5.137  19.462
31006W        W31870   4.701   4.884  19.785
31007W        W31871   5.521   5.675  19.008
31008W        W31872   5.130   6.912  21.264
31009W        W31873   3.741   4.374  21.217
31010W        W31874   4.310   3.487  21.052
31011W        W31875   6.342   4.056  19.915
31012W        W31876   5.920   4.762  18.425
31013W        W31877   6.552   4.359  21.645
31014W        W31878   3.846   4.076  20.807
31015W        W31879   3.860   6.735  21.750
31016W        W31880   5.247   6.368  18.618
31017W        W31881   3.837   4.710  20.254
31018W        W31882   4.971   4.941  21.482
31019W        W31883   7.082   4.670  20.043
31020W        W31884   6.900   5.796  20.797
31021W        W31885   5.407   5.171  19.894
31022W        W31886   5.963   6.485  20.277
31023W        W31887   4.272   5.662  20.343
31024W        W31888   3.502   5.094  20.137
31025W        W31889   4.853   5.268  21.114
31026W        W31890   7.009   5.134  21.484
31027W        W31891   4.578   6.564  19.956
31028W        W31892   5.749   6.336  21.038
31029W        W31893   5.056   4.865  20.197
31030W        W31894   5.241   5.713  19.969
31031W        W31895   6.101   6.681  21.784
31032W        W31896   5.431   5.670  21.748
31033W        W31897   5.384   5.569  21.217
31034W        W31898   3.738   4.728  21.627
31035W        W31899   6.497   6.510  21.454
31036W        W31900   4.108   3.911  19.338
31037W        W31901   4.714   6.309  20.418
31038W        W31902   7.022   6.110  19.920
31039W        W31903   6.612   4.563  20.240
31040W        W31904   6.809   4.282  18.014
31041W        W31905   7.362   5.151  20.732
31042W        W31906   5.343   6.987  20.430
31043W        W31907   6.849   6.390  18.775
31044W        W31908   3.992   7.159  18.994
31045W        W31909   4.449   7.135  19.379
31046W        W31910   4.347   3.927  20.773
31047W        W31911   6.937   4.968  21.006
31048W        W31912   6.306   5.384  19.561
31049W        W31913   6.297   5.096  18.525
31050W        W31914   5.595   6.273  20.544
31051W        W31915   5.568   4.391  19.645
31052W        W31916   5.925   6.728  20.741
31053W        W31917   6.837   5.475  19.398
31054W        W31918   5.991   3.966  19.073
31055W        W31919   4.374   6.768  19.033
31056W        W31920   3.717   4.275  19.456
31057W        W31921   6.310   4.945  19.957
31058W        W31922   4.036   6.585  20.028
31059W        W31923   5.249   6.876  18.684
31060W        W31924   6.779   4.824  18.231
31061W        W31925   3.841   6.590  20.508
31062W        W31926   4.564   6.420  20.902
31063W        W31927   5.095   5.668  19.475
31064W        W31928   4.709   4.088  20.415
31065W        W31929   7.173   3.802  20.028
31066W        W31930   4.571   5.930  18.113
31067W        W31931   4.252   4.451  18.574
31068W        W31932   4.212   6.594  19.521
31069W        W31933   5.038   6.215  19.493
31070W        W31934   6.713   6.953  21.257
31071W        W31935   5.663   4.711  18.892
31072W        W31936   6.738   7.212  19.775
31073W        W31937   6.463   4.754  21.260
31074W        W31938   7.282   6.507  19.607
31075W        W31939   5.884   5.845  20.980
31076W        W31940   3.492   5.375  19.266
31077W        W31941   4.655   5.914  20.747
31078W        W31942   5.939   5.205  19.202
31079W        W31943   5.938   5.709  19.322
31080W        W31944   4.182   4.905  20.599
31081W        W31945   4.206   4.834  21.361
31082W        W31946   4.068   3.758  19.838
31083W        W31947   5.813   4.141  20.087
31084W        W31948   5.585   4.281  21.352
31085W        W31949   5.966   4.322  18.689
31086W        W31950   7.173   6.816  21.492
31087W        W31951   5.868   3.858  21.334
31088W        W31952   6.946   6.354  21.669
31089W        W31953   6.578   4.255  21.147
31090W        W31954   6.374   4.183  19.385
31091W        W31955   6.657   5.413  21.732
31092W        W31956   4.316   6.994  19.867
31093W        W31957   5.277   4.431  18.713
31094W        W31958   4.519   4.002  21.268
31095W        W31959   6.605   4.646  19.222
31096W        W31960   6.982   5.007  19.181
31097W        W31961   4.777   7.160  21.550
31098W        W31962   4.589   3.678  18.891
31099W        W31963   6.924   4.218  19.878
31100W        W31964   7.128   6.533  18.350
31101W        W31965   3.847   5.694  20.000
31102W        W31966   6.038   4.239  18.162
31103W        W31967   7.157   6.551  20.190
31104W        W31968   7.000   3.863  20.686
31105W        W31969   5.681   5.222  21.428
31106W        W31970   5.540   6.230  19.059
31107W        W31971   6.215   5.697  21.891
31108W        W31972   5.899   3.642  19.923
31109W        W31973   4.311   4.687  20.071
31110W        W31974   4.158   5.746  20.847
31111W        W31975   5.891   6.919  19.723
31112W        W31976   7.000   4.826  20.516
31113W        W31977   5.684   7.005  21.135
31114W        W31978   6.868   5.764  18.380
31115W        W31979   5.544   5.422  19.472
31116W        W31980   7.280   3.706  21.111
31117W        W31981   5.409   5.925  20.855
31118W        W31982   5.632   4.739  20.052
31119W        W31983   6.468   5.163  19.123
31120W        W31984   6.711   4.869  18.754
31121W        W31985   6.579   6.735  19.069
31122W        W31986   6.499   6.185  20.014
31123W        W31987   6.140   5.507  18.823
31124W        W31988   5.752   5.658  19.882
31125W        W31989   6.655   5.591  19.896
31126W        W31990   4.178   4.371  20.486
31127W        W31991   6.766   5.473  21.180
31128W        W31992   7.150   7.033  20.442
31129W        W31993   5.079   6.644  19.835
31130W        W31994   6.204   7.127  21.005
31131W        W31995   6.046   4.481  20.820
31132W        W31996   5.289   7.230  20.889
31133W        W31997   6.890   4.143  19.362
31134W        W31998   6.846   5.319  20.613
31135W        W31999   3.785   4.590  20.746
31136W        W32000   6.546   4.532  19.727
31137W        W32001   6.949   4.618  21.408
31138W        W32002   5.927   6.322  19.784
31139W        W32003   5.222   6.941  19.440
31140W        W32004   4.195   3.972  18.754
31141W        W32005   5.428   3.854  20.329
31142W        W32006   4.151   7.179  18.471
31143W        W32007   5.034   5.472  18.998
31144W        W32008   5.461   6.057  21.355
31145W        W32009   5.466   4.051  19.251
31146W        W32010   6.749   3.755  19.722
31147W        W32011   6.268   7.190  19.985
31148W        W32012   5.842   6.986  20.259
31149W        W32013   5.143   5.976  20.421
31150W        W32014   6.897   6.637  20.656
31151W        W32015   4.526   4.144  19.127
31152W        W32016   5.181   6.505  20.348
31153W        W32017   4.617   4.260  18.225
31154W        W32018   5.445   4.913  20.544
31155W        W32019   6.268   3.784  20.464
31156W        W32020   3.782   5.619  20.534
31157W        W32021   5.329   5.346  18.564
31158W        W32022   4.703   3.781  18.386
31159W        W32023   5.625   4.871  19.461
31160W        W32024   6.185   3.982  20.941
31161W        W32025   4.983   5.895  21.163
31162W        W32026   5.857   5.713  21.480
31163W        W32027   6.357   5.693  21.402
31164W        W32028   5.470   3.924  21.702
31165W        W32029   4.802   4.431  20.023
31166W        W32030   4.218   4.362  19.587
31167W        W32031   3.947   7.037  19.513
31168W        W32032   5.531   6.600  21.459
31169W        W32033   4.797   6.105  18.613
31170W        W32034   6.195   5.471  20.076
31171W        W32035   6.354   5.128  20.438
31172W        W32036   5.603   5.753  20.377
31173W        W32037   6.065   6.063  18.352
31174W        W32038   5.925   4.045  19.589
31175W        W32039   7.061   4.484  19.018
31176W        W32040   3.866   6.948  21.269
31177W        W32041   4.211   6.198  20.565
31178W        W32042   3.477   7.074  18.935
31179W        W32043   5.638   4.425  20.480
31180W        W32044   4.782   6.647  18.696
31181W        W32045   6.629   6.795  18.524
31182W        W32046   5.797   5.166  18.710
31183W        W32047   5.282   4.565  19.225
31184W        W32048   5.557   4.387  18.283
31185W        W32049   5.915   6.241  21.551
31186W        W32050   6.472   4.291  18.880
31187W        W32051   3.804   3.704  18.565
31188W        W32052   5.056   6.293  20.814
31189W        W32053   4.961   6.181  19.993
31190W        W32054   4.749   6.425  18.215
31191W        W32055   3.826   6.689  19.150
31192W        W32056   4.510   5.228  21.504
31193W        W32057   4.981   3.931  21.487
31194W        W32058   5.673   4.073  20.876
31195W        W32059   4.898   3.822  19.296
31196W        W32060   6.449   3.777  18.810
31197W        W32061   4.035   3.889  20.354
31198W        W32062   3.852   4.733  19.734
31199W        W32063   6.724   3.880  20.238
31200W        W32064   4.032   4.357  19.056
31201W        W32065   6.575   4.186  20.631
31202W        W32066   7.035   5.237  18.473
31203W        W32067   4.351   4.169  20.053
31204W        W32068   5.541   4.606  20.955
31205W        W32069   3.749   4.229  18.569
31206W        W32070   4.519   5.661  21.199
31207W        W32071   5.771   5.230  20.272
31208W        W32072   5.681   7.155  18.630
31209W        W32073   3.576   5.855  18.071
31210W        W32074   4.593   6.179  21.363
31211W        W32075   4.165   5.261  21.055
31212W        W32076   5.062   5.566  20.767
31213W        W32077   6.653   3.752  21.033
31214W        W32078   7.279   5.465  21.130
31215W        W32079   7.101   5.456  18.945
31216W        W32080   5.983   5.993  18.884
31217W        W32081   6.535   7.268  18.343
31218W        W32082   5.834   5.354  21.882
31219W        W32083   4.201   6.155  21.693
31220W        W32084   7.318   4.246  21.742
31221W        W32085   6.768   5.103  20.118
31222W        W32086   5.239   7.055  21.800
31223W        W32087   5.190   3.605  18.483
31224W        W32088   6.556   6.330  18.323
31225W        W32089   4.629   4.528  21.316
31226W        W32090   5.062   6.407  21.315
31227W        W32091   6.954   4.449  20.884
31228W        W32092   6.391   7.176  18.835
31229W        W32093   6.490   5.811  20.393
31230W        W32094   4.702   4.306  20.869
31231W        W32095   5.346   5.150  21.816
31232W        W32096   4.655   6.311  19.097
31233W        W32097   6.432   5.705  19.175
31234W        W32098   4.220   4.447  20.989
31235W        W32099   5.482   6.493  19.524
31236W        W32100   7.152   5.079  19.758
31237W        W32101   5.379   3.776  21.209
31238W        W32102   6.453   6.510  20.427
31239W        W32103   6.714   6.917  20.205
31240W        W32104   5.668   6.664  18.395
31241W        W32105   3.778   6.317  21.447
31242W        W32106   4.635   4.647  20.484
31243W        W32107   4.546   3.948  19.645
31244W        W32108   6.085   4.670  20.331
31245W        W32109   5.257   5.857  18.571
31246W        W32110   6.991   5.716  20.270
31247W        W32111   4.224   6.586  21.402
31248W        W32112   6.711   7.290  19.232
31249W        W32113   5.073   4.220  19.589
31250W        W32114   4.732   5.771  19.828
31251W        W32115   4.914   7.292  20.558
31252W        W32116   6.953   7.286  21.604
31253W        W32117   6.054   5.556  20.568
31254W        W32118   4.050   4.915  18.328
31255W        W32119   6.956   6.887  19.413
31256W        W32120   6.865   4.407  18.533
31257W        W32121   4.863   3.780  20.927
31258W        W32122   6.796   6.581  19.805
31259W        W32123   6.671   5.021  19.598
31260W        W32124   5.191   4.711  19.736
31261W        W32125   5.340   5.084  21.048
31262W        W32126   6.244   6.167  21.170
31263W        W32127   5.022   4.693  21.028
31264W        W32128   4.815   7.078  19.760
31265W        W32129   4.277   7.053  21.629
31266W        W32130   4.442   6.843  18.202
31267W        W32131   6.885   6.383  19.304
31268W        W32132   4.543   4.887  20.957
31269W        W32133   7.219   4.774  18.616
31270W        W32134   5.085   5.997  19.038
31271W        W32135   6.011   5.374  21.080
31272W        W32136   5.932   4.999  20.723
31273W        W32137   4.539   5.391  20.722
31274W        W32138   6.711   7.111  20.741
31275W        W32139   6.365   3.889  21.457
31276W        W32140   4.024   3.889  21.263
31277W        W32141   4.563   5.123  20.272
31278W        W32142   5.014   4.603  18.268
31279W        W32143   3.662   6.537  20.991
31280W        W32144   5.255   5.356  20.347
31281W        W32145   5.121   4.107  18.342
31282W        W32146   4.640   5.363  19.517
31283W        W32147   3.911   7.189  20.804
31284W        W32148   6.637   5.434  18.723
31285W        W32149   7.074   4.135  21.290
31286W        W32150   6.392   6.393  19.540
31287W        W32151   3.874   5.276  21.492
31288W        W32152   6.922   4.005  18.841
31289W        W32153   6.446   6.213  19.064
31290W        W32154   5.430   5.143  19.056
31291W        W32155   6.501   4.071  18.378
31292W        W32156   6.519   4.703  20.733
31293W        W32157   3.855   5.270  19.700
31294W        W32158   4.539   6.202  19.610
31295W        W32159   6.195   4.852  19.457
31296W        W32160   5.303   4.319  20.086
31297W        W32161   7.179   6.226  20.808
31298W        W32162   7.070   4.293  20.400
31299W        W32163   3.637   6.983  19.934
31300W        W32164   4.180   6.107  19.259
31301W        W32165   4.141   3.946  21.802
31302W        W32166   5.115   6.543  21.839
31303W        W32167   7.157   5.592  19.791
31304W        W32168   6.453   5.906  18.649
31305W        W32169   5.776   7.254  20.691
31306W        W32170   6.685   5.918  21.780
31307W        W32171   5.356   3.602  18.986
31308W        W32172   6.041   4.512  19.808
31309W        W32173   3.802   6.148  20.226
31310W        W32174   5.022   3.970  18.825
31311W        W32175   4.991   5.494  21.545
31312W        W32176   5.921   4.453  19.261
31313W        W32177   6.122   6.175  20.665
31314W        W32178   4.146   6.719  20.901
31315W        W32179   4.687   6.653  21.602
31316W        W32180   4.762   4.403  18.696
31317W        W32181   6.183   4.771  18.918
31318W        W32182   6.048   6.683  21.270
31319W        W32183   4.927   5.308  19.940
31320W        W32184   4.454   7.089  20.716
31321W        W32185   7.029   7.046  18.320
31322W        W32186   3.990   5.770  21.343
31323W        W32187   6.030   5.977  20.192
31324W        W32188   4.649   5.827  19.284
31325W        W32189   4.910   6.803  20.752
31326W        W32190   5.456   3.902  19.782
31327W        W32191   3.667   6.206  19.266
31328W        W32192   5.426   4.870  18.406
31329W        W32193   4.258   5.724  19.663
31330W        W32194   5.182   4.205  21.022
31331W        W32195   7.040   3.945  18.329
31332W        W32196   7.077   5.667  21.547
31333W        W32197   5.746   7.054  21.649
31334W        W32198   7.272   6.055  21.270
31335W        W32199   6.739   6.842  21.775
31336W        W32200   4.486   7.292  20.251
31337W        W32201   7.199   5.982  19.461
31338W        W32202   5.897   5.166  19.766
31339W        W32203   5.739   3.612  19.390
31340W        W32204   4.732   6.681  19.445
31341W        W32205   5.120   4.478  20.560
31342W        W32206   4.960   3.920  19.992
31343W        W32207   3.793   6.835  18.616
31344W        W32208   5.515   5.965  19.528
31345W        W32209   4.586   6.870  21.160
31346W        W32210   3.546   5.784  18.968
31347W        W32211   3.850   4.252  19.957
31348W        W32212   5.503   6.146  20.040
31349W        W32213   3.698   3.944  19.024
31350W        W32214   6.444   5.167  20.940
31351W        W32215   6.383   4.574  18.464
31352W        W32216   6.860   6.189  20.394
31353W        W32217   5.552   6.654  20.018
31354W        W32218   4.885   7.037  19.063
31355W        W32219   6.127   3.731  18.208
31356W        W32220   4.031   7.046  20.300
31357W        W32221   5.911   4.818  21.758
31358W        W32222   4.172   4.342  21.486
31359W        W32223   3.691   4.866  19.256
31360W        W32224   5.070   4.897  18.779
31361W        W32225   6.216   5.195  21.525
31362W        W32226   4.790   5.620  20.323
31363W        W32227   6.274   3.668  19.538
31364W        W32228   5.327   7.119  19.924
31365W        W32229   6.433   6.674  20.922
31366W        W32230   6.305   6.682  19.964
31367W        W32231   6.217   5.872  19.718
31368W        W32232   5.541   3.992  18.673
31369W        W32233   7.239   3.771  19.521
31370W        W32234   4.903   5.121  18.330
31371W        W32235   7.018   4.622  19.538
31372W        W32236   5.742   5.679  18.534
31373W        W32237   6.754   6.004  21.273
31374W        W32238   6.127   6.931  18.443
31375W        W32239   5.097   4.421  21.499
31376W        W32240   4.946   5.056  20.656
31377W        W32241   6.924   6.494  21.159
31378W        W32242   6.102   4.346  21.311
31379W        W32243   3.762   4.917  21.126
31380W        W32244   5.590   5.415  20.758
31381W        W32245   3.995   6.158  19.736
31382W        W32246   4.008   5.220  20.215
31383W        W32247   6.399   5.735  20.899
31384W        W32248   6.288   7.099  21.516
31385W        W32249   5.945   4.836  21.217
31386W        W32250   6.410   6.925  19.520
31387W        W32251   5.403   6.678  20.853
31388W        W32252   4.843   6.896  20.242
31389W        W32253   6.619   6.215  20.829
31390W        W32254   5.495   6.189  21.853
31391W        W32255   4.373   6.095  20.083
31392W        W32256   6.692   5.966  19.540
31393W        W32257   6.286   7.008  20.490
31394W        W32258   4.372   6.682  20.421
31395W        W32259   5.462   4.771  21.454
31396W        W32260   5.580   6.793  19.080
31397W        W32261   5.043   6.020  21.658
31398W        W32262   5.118   6.551  19.099
31399W        W32263   4.527   4.771  18.213
31400W        W32264   3.822   7.237  25.321
31401W        W32265   4.071   6.095  24.762
31402W        W32266   6.866   5.754  22.670
31403W        W32267   7.114   7.200  24.709
31404W        W32268   4.753   6.961  22.025
31405W        W32269   5.120   5.180  23.177
31406W        W32270   4.595   4.922  23.478
31407W        W32271   5.619   5.760  22.638
31408W        W32272   5.186   6.898  24.897
31409W        W32273   3.759   4.430  24.888
31410W        W32274   4.411   3.738  24.730
31411W        W32275   6.335   4.024  23.648
31412W        W32276   6.147   4.933  22.438
31413W        W32277   6.482   4.369  25.314
31414W        W32278   3.817   4.105  24.486
31415W        W32279   3.993   6.751  25.442
31416W        W32280   5.219   6.296  22.292
31417W        W32281   3.734   4.824  23.931
31418W        W32282   4.669   4.943  25.255
31419W        W32283   7.083   4.664  23.760
31420W        W32284   6.923   5.681  24.361
31421W        W32285   5.447   5.211  23.586
31422W        W32286   5.965   6.505  23.919
31423W        W32287   4.218   5.789  24.053
31424W        W32288   3.400   5.251  23.916
31425W        W32289   4.717   5.286  24.868
31426W        W32290   6.900   5.143  24.983
31427W        W32291   4.543   6.627  23.572
31428W        W32292   5.790   6.351  24.752
31429W        W32293   4.940   4.860  24.008
31430W        W32294   5.097   5.727  23.702
31431W        W32295   5.923   6.495  25.255
31432W        W32296   5.344   5.654  25.383
31433W        W32297   5.223   5.494  24.900
31434W        W32298   3.643   4.760  25.358
31435W        W32299   6.478   6.336  25.200
31436W        W32300   3.882   3.778  23.071
31437W        W32301   4.693   6.391  24.171
31438W        W32302   7.146   5.980  23.471
31439W        W32303   6.349   4.359  24.033
31440W        W32304   6.923   4.540  21.995
31441W        W32305   7.267   5.096  24.304
31442W        W32306   5.318   6.968  24.063
31443W        W32307   7.114   6.278  22.672
31444W        W32308   4.066   7.217  22.610
31445W        W32309   4.467   7.143  22.991
31446W        W32310   4.291   3.969  24.282
31447W        W32311   6.859   4.817  24.567
31448W        W32312   6.316   5.342  23.265
31449W        W32313   6.315   5.210  22.049
31450W        W32314   5.623   6.242  24.244
31451W        W32315   5.620   4.539  23.607
31452W        W32316   5.984   6.685  24.405
31453W        W32317   6.763   5.360  23.006
31454W        W32318   5.718   4.220  22.651
31455W        W32319   4.350   6.789  22.621
31456W        W32320   3.599   4.213  23.151
31457W        W32321   6.415   4.845  23.810
31458W        W32322   3.993   6.620  23.664
31459W        W32323   5.185   6.824  22.293
31460W        W32324   6.603   4.879  21.750
31461W        W32325   3.848   6.610  24.175
31462W        W32326   4.543   6.343  24.667
31463W        W32327   5.119   5.711  23.199
31464W        W32328   4.767   4.117  24.090
31465W        W32329   7.216   3.771  23.777
31466W        W32330   4.582   5.769  21.703
31467W        W32331   4.091   4.455  21.973
31468W        W32332   4.218   6.626  23.149
31469W        W32333   5.021   6.227  23.195
31470W        W32334   6.738   6.869  24.846
31471W        W32335   5.739   4.720  22.685
31472W        W32336   6.930   7.245  23.473
31473W        W32337   6.471   4.841  25.074
31474W        W32338   7.262   6.387  23.176
31475W        W32339   5.865   5.852  24.634
31476W        W32340   3.322   5.467  23.068
31477W        W32341   4.587   5.909  24.395
31478W        W32342   6.062   5.022  22.940
31479W        W32343   5.997   5.524  22.882
31480W        W32344   4.123   4.902  24.342
31481W        W32345   4.126   4.932  25.253
31482W        W32346   4.061   3.804  23.560
31483W        W32347   5.854   4.197  23.951
31484W        W32348   5.563   4.272  25.208
31485W        W32349   5.901   4.521  22.233
31486W        W32350   7.229   6.914  25.117
31487W        W32351   5.949   3.794  25.092
31488W        W32352   6.967   6.120  25.232
31489W        W32353   6.503   4.428  24.739
31490W        W32354   6.345   4.254  23.185
31491W        W32355   6.514   5.299  25.330
31492W        W32356   4.254   7.034  23.472
31493W        W32357   5.389   4.529  22.341
31494W        W32358   4.573   4.053  25.129
31495W        W32359   6.759   4.536  23.065
31496W        W32360   7.055   4.941  22.869
31497W        W32361   4.830   7.070  25.233
31498W        W32362   4.486   3.605  22.468
31499W        W32363   7.132   4.202  23.502
31500W        W32364   7.214   6.677  21.999
31501W        W32365   3.952   5.710  23.621
31502W        W32366   6.026   4.262  21.801
31503W        W32367   7.150   6.627  23.636
31504W        W32368   7.052   3.818  24.308
31505W        W32369   5.568   5.096  24.873
31506W        W32370   5.566   6.308  22.702
31507W        W32371   6.035   5.612  25.443
31508W        W32372   5.720   3.642  23.897
31509W        W32373   4.210   4.688  23.753
31510W        W32374   3.940   5.675  24.474
31511W        W32375   5.854   6.881  23.377
31512W        W32376   6.824   4.488  24.172
31513W        W32377   5.738   6.876  24.848
31514W        W32378   7.064   5.623  22.047
31515W        W32379   5.554   5.464  23.110
31516W        W32380   7.214   3.779  24.821
31517W        W32381   5.343   5.887  24.523
31518W        W32382   5.448   4.859  23.970
31519W        W32383   6.553   4.916  22.794
31520W        W32384   6.650   4.888  22.286
31521W        W32385   6.798   6.578  22.950
31522W        W32386   6.352   6.085  23.611
31523W        W32387   6.402   5.366  22.621
31524W        W32388   5.602   5.696  23.555
31525W        W32389   6.602   5.312  23.709
31526W        W32390   4.011   4.414  24.136
31527W        W32391   7.110   7.055  23.959
31528W        W32392   5.059   6.636  23.514
31529W        W32393   6.321   7.093  24.607
31530W        W32394   6.028   4.406  24.444
31531W        W32395   5.330   7.224  24.516
31532W        W32396   7.081   4.153  22.972
31533W        W32397   3.664   4.646  24.434
31534W        W32398   6.655   4.440  23.573
31535W        W32399   6.937   4.624  25.040
31536W        W32400   5.860   6.325  23.420
31537W        W32401   5.152   6.956  23.087
31538W        W32402   4.110   4.017  22.314
31539W        W32403   5.434   3.977  24.193
31540W        W32404   4.270   7.147  22.142
31541W        W32405   5.178   5.466  22.723
31542W        W32406   5.467   5.992  24.993
31543W        W32407   5.408   4.461  23.136
31544W        W32408   6.756   3.887  23.369
31545W        W32409   6.256   7.127  23.632
31546W        W32410   5.830   6.995  23.969
31547W        W32411   5.024   5.978  24.138
31548W        W32412   6.905   6.592  24.118
31549W        W32413   4.296   3.966  22.812
31550W        W32414   5.184   6.467  24.028
31551W        W32415   4.617   4.228  21.734
31552W        W32416   5.237   4.999  24.430
31553W        W32417   6.199   3.837  24.106
31554W        W32418   3.638   5.700  24.043
31555W        W32419   5.451   5.464  22.237
31556W        W32420   4.615   3.717  21.827
31557W        W32421   5.596   4.948  23.168
31558W        W32422   6.190   3.963  24.657
31559W        W32423   4.918   5.939  24.821
31560W        W32424   5.730   5.550  25.032
31561W        W32425   6.262   5.591  24.968
31562W        W32426   5.566   3.889  25.563
31563W        W32427   4.728   4.484  23.717
31564W        W32428   4.117   4.217  23.259
31565W        W32429   3.930   7.045  23.086
31566W        W32430   5.422   6.495  25.112
31567W        W32431   4.784   6.032  22.402
31568W        W32432   6.111   5.528  23.704
31569W        W32433   6.294   5.250  24.146
31570W        W32434   5.497   5.771  24.049
31571W        W32435   6.389   6.140  22.133
31572W        W32436   5.870   4.080  23.417
31573W        W32437   7.364   4.551  22.763
31574W        W32438   3.945   6.977  24.900
31575W        W32439   4.190   6.250  24.293
31576W        W32440   3.553   7.141  22.590
31577W        W32441   5.538   4.472  24.302
31578W        W32442   4.744   6.556  22.341
31579W        W32443   7.041   6.816  22.522
31580W        W32444   5.959   5.416  22.366
31581W        W32445   5.254   4.847  22.792
31582W        W32446   5.532   4.440  21.847
31583W        W32447   5.984   6.007  25.110
31584W        W32448   6.587   4.130  22.741
31585W        W32449   3.693   3.739  22.169
31586W        W32450   5.079   6.331  24.527
31587W        W32451   4.848   6.200  23.697
31588W        W32452   4.673   6.249  21.923
31589W        W32453   3.834   6.672  22.751
31590W        W32454   4.369   5.384  25.255
31591W        W32455   5.064   4.052  25.335
31592W        W32456   5.675   4.079  24.681
31593W        W32457   5.076   3.804  23.391
31594W        W32458   6.167   4.104  22.402
31595W        W32459   3.838   3.917  24.004
31596W        W32460   3.713   4.722  23.371
31597W        W32461   6.788   4.043  23.887
31598W        W32462   3.902   4.292  22.731
31599W        W32463   6.592   4.053  24.361
31600W        W32464   7.004   5.118  21.993
31601W        W32465   4.319   4.173  23.798
31602W        W32466   5.579   4.590  24.799
31603W        W32467   3.658   4.267  22.214
31604W        W32468   4.434   5.719  24.847
31605W        W32469   5.768   5.253  23.993
31606W        W32470   5.562   7.176  22.226
31607W        W32471   3.721   5.925  21.775
31608W        W32472   4.547   6.127  25.146
31609W        W32473   4.103   5.314  24.817
31610W        W32474   4.956   5.519  24.464
31611W        W32475   6.685   3.761  24.777
31612W        W32476   7.248   5.437  24.696
31613W        W32477   7.362   5.338  22.331
31614W        W32478   6.186   5.847  22.511
31615W        W32479   6.552   7.298  21.936
31616W        W32480   5.649   5.251  25.517
31617W        W32481   4.181   6.246  25.487
31618W        W32482   7.371   4.121  25.347
31619W        W32483   6.818   5.009  24.071
31620W        W32484   5.298   7.048  25.430
31621W        W32485   4.954   3.644  22.216
31622W        W32486   6.910   6.065  22.238
31623W        W32487   4.227   4.451  25.113
31624W        W32488   4.908   6.474  24.996
31625W        W32489   6.988   4.250  24.614
31626W        W32490   6.670   7.186  22.445
31627W        W32491   6.504   5.753  23.985
31628W        W32492   4.704   4.135  24.604
31629W        W32493   5.153   5.152  25.328
31630W        W32494   4.557   6.333  22.775
31631W        W32495   6.438   5.769  22.964
31632W        W32496   4.237   4.394  24.606
31633W        W32497   5.445   6.535  23.177
31634W        W32498   7.468   5.077  23.179
31635W        W32499   5.441   3.797  25.062
31636W        W32500   6.461   6.429  23.966
31637W        W32501   6.690   6.849  23.730
31638W        W32502   5.590   6.690  21.985
31639W        W32503   3.779   6.278  25.172
31640W        W32504   4.516   4.569  24.192
31641W        W32505   4.534   3.826  23.363
31642W        W32506   5.951   4.717  24.012
31643W        W32507   5.004   5.680  22.051
31644W        W32508   7.020   5.617  23.837
31645W        W32509   4.191   6.529  25.009
31646W        W32510   6.881   7.284  22.927
31647W        W32511   4.515   5.799  23.605
31648W        W32512   4.936   7.304  24.194
31649W        W32513   6.874   7.314  25.161
31650W        W32514   5.985   5.663  24.187
31651W        W32515   4.125   4.991  21.848
31652W        W32516   7.155   6.902  23.145
31653W        W32517   6.877   4.504  22.556
31654W        W32518   4.923   3.741  24.927
31655W        W32519   6.740   6.399  23.455
31656W        W32520   6.864   4.997  23.379
31657W        W32521   5.154   4.775  23.529
31658W        W32522   5.074   4.888  24.892
31659W        W32523   6.317   6.152  24.745
31660W        W32524   4.724   4.515  24.943
31661W        W32525   4.778   7.069  23.437
31662W        W32526   4.325   7.111  25.232
31663W        W32527   4.324   6.647  21.977
31664W        W32528   6.830   6.079  23.073
31665W        W32529   4.368   4.869  24.807
31666W        W32530   7.197   4.848  22.371
31667W        W32531   5.165   5.993  22.750
31668W        W32532   6.001   5.330  24.616
31669W        W32533   5.740   4.938  24.408
31670W        W32534   4.402   5.404  24.406
31671W        W32535   6.772   7.048  24.352
31672W        W32536   6.446   3.844  25.239
31673W        W32537   4.037   4.001  24.946
31674W        W32538   4.478   5.083  23.983
31675W        W32539   5.089   4.701  21.931
31676W        W32540   3.752   6.521  24.703
31677W        W32541   5.226   5.339  24.050
31678W        W32542   5.087   4.150  21.962
31679W        W32543   4.668   5.448  23.262
31680W        W32544   3.928   7.199  24.423
31681W        W32545   6.887   5.276  22.490
31682W        W32546   6.899   4.121  25.110
31683W        W32547   6.343   6.264  23.124
31684W        W32548   3.803   5.337  25.247
31685W        W32549   7.030   4.001  22.477
31686W        W32550   6.583   6.190  22.630
31687W        W32551   5.619   5.208  22.676
31688W        W32552   6.423   3.977  21.973
31689W        W32553   6.388   4.775  24.340
31690W        W32554   3.768   5.218  23.558
31691W        W32555   4.507   6.211  23.282
31692W        W32556   6.380   4.808  23.283
31693W        W32557   5.188   4.405  23.939
31694W        W32558   7.188   6.223  24.340
31695W        W32559   7.255   4.222  24.023
31696W        W32560   3.639   6.983  23.529
31697W        W32561   4.050   6.209  22.903
31698W        W32562   4.181   4.050  25.450
31699W        W32563   5.041   6.609  25.470
31700W        W32564   7.147   5.481  23.333
31701W        W32565   6.589   5.640  22.232
31702W        W32566   5.842   7.199  24.448
31703W        W32567   6.531   5.828  25.337
31704W        W32568   5.222   3.373  22.568
31705W        W32569   6.128   4.487  23.595
31706W        W32570   3.827   6.166  23.892
31707W        W32571   5.276   3.994  22.423
31708W        W32572   4.836   5.639  25.234
31709W        W32573   5.920   4.552  23.141
31710W        W32574   6.141   6.154  24.269
31711W        W32575   4.195   6.720  24.528
31712W        W32576   4.541   6.647  25.346
31713W        W32577   4.622   4.050  22.222
31714W        W32578   6.231   4.515  22.724
31715W        W32579   6.222   6.660  24.876
31716W        W32580   4.930   5.245  23.658
31717W        W32581   4.507   7.079  24.352
31718W        W32582   7.061   7.157  22.100
31719W        W32583   4.043   5.807  25.188
31720W        W32584   5.894   6.011  23.824
31721W        W32585   4.700   5.867  22.941
31722W        W32586   4.947   6.821  24.436
31723W        W32587   5.432   4.034  23.683
31724W        W32588   3.608   6.195  22.614
31725W        W32589   5.675   4.979  22.206
31726W        W32590   4.223   5.777  23.164
31727W        W32591   5.176   4.221  24.844
31728W        W32592   6.934   3.995  21.954
31729W        W32593   7.062   5.603  25.166
31730W        W32594   5.795   7.011  25.332
31731W        W32595   7.233   5.948  24.771
31732W        W32596   6.769   6.819  25.358
31733W        W32597   4.488   7.265  23.869
31734W        W32598   7.283   5.882  22.988
31735W        W32599   5.959   4.998  23.551
31736W        W32600   5.574   3.618  23.400
31737W        W32601   4.725   6.684  23.095
31738W        W32602   5.005   4.530  24.433
31739W        W32603   5.051   3.724  23.912
31740W        W32604   3.870   6.848  22.263
31741W        W32605   5.540   6.006  23.131
31742W        W32606   4.578   6.847  24.841
31743W        W32607   3.710   5.648  22.732
31744W        W32608   3.805   4.315  23.671
31745W        W32609   5.375   6.168  23.617
31746W        W32610   3.546   3.947  22.634
31747W        W32611   6.481   5.176  24.672
31748W        W32612   6.403   4.480  22.129
31749W        W32613   6.872   6.121  23.880
31750W        W32614   5.533   6.653  23.698
31751W        W32615   4.851   6.982  22.658
31752W        W32616   5.974   3.737  21.823
31753W        W32617   3.992   7.085  23.912
31754W        W32618   6.059   4.676  25.416
31755W        W32619   4.062   4.534  25.592
31756W        W32620   3.506   4.991  22.958
31757W        W32621   5.178   5.043  22.320
31758W        W32622   6.032   5.146  25.158
31759W        W32623   4.713   5.558  24.015
31760W        W32624   6.104   3.587  23.542
31761W        W32625   5.301   7.102  23.563
31762W        W32626   6.506   6.597  24.458
31763W        W32627   6.277   6.616  23.519
31764W        W32628   6.028   5.839  23.291
31765W        W32629   5.702   4.050  22.147
31766W        W32630   7.255   3.736  23.239
31767W        W32631   4.837   5.181  21.928
31768W        W32632   7.217   4.640  23.258
31769W        W32633   5.782   5.846  22.124
31770W        W32634   6.725   5.839  24.842
31771W        W32635   6.737   6.544  22.200
31772W        W32636   5.100   4.576  25.309
31773W        W32637   4.718   4.987  24.451
31774W        W32638   6.839   6.349  24.779
31775W        W32639   6.037   4.343  24.987
31776W        W32640   3.750   4.942  24.860
31777W        W32641   5.534   5.427  24.457
31778W        W32642   4.009   6.174  23.413
31779W        W32643   4.003   5.315  24.023
31780W        W32644   6.396   5.676  24.483
31781W        W32645   6.373   7.094  25.132
31782W        W32646   6.071   4.814  24.766
31783W        W32647   6.575   6.958  23.234
31784W        W32648   5.456   6.685  24.470
31785W        W32649   4.830   6.866  23.928
31786W        W32650   6.661   6.119  24.349
31787W        W32651   5.604   6.111  25.475
31788W        W32652   4.336   6.235  23.808
31789W        W32653   6.681   5.730  23.428
31790W        W32654   6.330   6.925  24.099
31791W        W32655   4.335   6.723  24.029
31792W        W32656   5.570   4.790  25.298
31793W        W32657   5.494   6.831  22.720
31794W        W32658   5.081   6.105  25.315
31795W        W32659   5.076   6.515  22.754
31796W        W32660   4.572   4.748  21.768
31797W        W32661   3.792   7.230  28.917
31798W        W32662   4.101   6.130  28.478
31799W        W32663   6.771   5.652  26.176
31800W        W32664   7.014   7.073  28.160
31801W        W32665   4.735   6.937  25.740
31802W        W32666   4.910   4.931  26.659
31803W        W32667   4.301   4.935  26.862
31804W        W32668   5.297   5.636  26.239
31805W        W32669   5.108   6.892  28.252
31806W        W32670   3.930   4.453  28.486
31807W        W32671   4.426   3.773  28.218
31808W        W32672   6.301   4.108  27.257
31809W        W32673   5.911   4.786  25.921
31810W        W32674   6.481   4.377  28.729
31811W        W32675   3.915   4.106  28.094
31812W        W32676   3.857   6.697  28.979
31813W        W32677   5.201   6.265  25.828
31814W        W32678   3.791   4.879  27.564
31815W        W32679   4.669   4.853  28.782
31816W        W32680   7.069   4.547  27.337
31817W        W32681   6.861   5.709  28.100
31818W        W32682   5.304   5.085  27.062
31819W        W32683   5.897   6.536  27.605
31820W        W32684   4.311   5.802  27.823
31821W        W32685   3.529   5.357  27.553
31822W        W32686   4.718   5.241  28.414
31823W        W32687   7.002   5.119  28.707
31824W        W32688   4.490   6.500  27.214
31825W        W32689   5.755   6.267  28.215
31826W        W32690   5.046   4.734  27.430
31827W        W32691   5.126   5.616  27.149
31828W        W32692   6.023   6.477   0.105
31829W        W32693   5.164   5.765  28.934
31830W        W32694   5.328   5.516  28.489
31831W        W32695   3.648   4.683  28.965
31832W        W32696   6.416   6.391  28.748
31833W        W32697   4.093   3.936  26.660
31834W        W32698   4.622   6.195  27.672
31835W        W32699   7.120   6.119  27.229
31836W        W32700   6.366   4.512  27.559
31837W        W32701   6.931   4.490  25.555
31838W        W32702   7.279   5.169  27.960
31839W        W32703   5.153   6.974  27.746
31840W        W32704   7.128   6.059  26.322
31841W        W32705   4.122   7.330  26.226
31842W        W32706   4.490   7.209  26.613
31843W        W32707   4.540   4.006  27.775
31844W        W32708   6.961   4.800  28.109
31845W        W32709   6.531   5.505  26.893
31846W        W32710   6.138   5.167  25.675
31847W        W32711   5.566   6.153  27.722
31848W        W32712   5.251   4.507  27.007
31849W        W32713   5.957   6.737  28.079
31850W        W32714   6.563   5.249  26.454
31851W        W32715   5.848   4.041  26.512
31852W        W32716   4.402   6.842  26.268
31853W        W32717   3.751   4.305  26.738
31854W        W32718   6.326   4.958  27.272
31855W        W32719   3.986   6.595  27.280
31856W        W32720   5.199   6.814  25.922
31857W        W32721   6.527   4.834  25.581
31858W        W32722   3.796   6.639  27.811
31859W        W32723   4.526   6.232  28.183
31860W        W32724   5.031   5.447  26.660
31861W        W32725   5.061   4.011  27.793
31862W        W32726   7.210   3.773  27.320
31863W        W32727   4.458   5.799  25.556
31864W        W32728   3.933   4.705  26.048
31865W        W32729   4.154   6.529  26.796
31866W        W32730   4.934   5.975  26.699
31867W        W32731   6.626   6.832  28.594
31868W        W32732   5.572   4.529  26.214
31869W        W32733   6.931   7.235  27.196
31870W        W32734   6.593   4.936  28.442
31871W        W32735   7.358   6.498  26.936
31872W        W32736   5.803   5.738  28.283
31873W        W32737   3.777   5.292  26.750
31874W        W32738   4.791   5.820  27.997
31875W        W32739   5.870   4.938  26.427
31876W        W32740   6.071   5.348  26.704
31877W        W32741   4.254   4.889  27.856
31878W        W32742   4.147   4.750  28.851
31879W        W32743   4.006   3.766  27.122
31880W        W32744   5.890   4.269  27.556
31881W        W32745   5.404   4.188  28.732
31882W        W32746   5.977   4.078  25.983
31883W        W32747   7.087   6.622  28.710
31884W        W32748   5.898   3.764  28.491
31885W        W32749   6.879   6.167  28.896
31886W        W32750   6.616   4.422  28.243
31887W        W32751   6.249   4.269  26.765
31888W        W32752   6.614   5.337   0.009
31889W        W32753   4.270   6.976  27.051
31890W        W32754   5.049   4.602  26.267
31891W        W32755   4.574   3.910  28.717
31892W        W32756   6.630   4.526  26.468
31893W        W32757   6.985   4.955  26.457
31894W        W32758   4.722   7.006  28.840
31895W        W32759   4.670   3.683  26.095
31896W        W32760   6.972   4.130  27.026
31897W        W32761   7.212   6.625  25.570
31898W        W32762   4.230   5.652  27.325
31899W        W32763   6.032   4.149  25.469
31900W        W32764   7.182   6.588  27.435
31901W        W32765   7.224   3.696  27.838
31902W        W32766   5.698   4.697  28.688
31903W        W32767   5.348   6.149  26.347
31904W        W32768   6.096   5.461   0.110
31905W        W32769   5.999   3.769  27.522
31906W        W32770   4.268   4.733  27.334
31907W        W32771   3.904   5.758  28.147
31908W        W32772   5.782   6.920  27.201
31909W        W32773   6.812   4.438  27.779
31910W        W32774   5.614   6.984  28.370
31911W        W32775   6.848   5.540  25.637
31912W        W32776   5.535   5.304  26.612
31913W        W32777   7.228   3.815  28.342
31914W        W32778   5.337   5.812  28.052
31915W        W32779   5.580   4.717  27.355
31916W        W32780   6.345   4.866  26.192
31917W        W32781   6.813   4.767  26.004
31918W        W32782   6.919   6.433  26.589
31919W        W32783   6.265   6.212  27.373
31920W        W32784   6.138   5.339  26.171
31921W        W32785   5.646   5.504  27.086
31922W        W32786   6.650   5.373  27.374
31923W        W32787   4.054   4.427  27.676
31924W        W32788   6.649   5.449  28.495
31925W        W32789   7.157   7.060  27.648
31926W        W32790   4.982   6.617  27.142
31927W        W32791   6.155   7.037  28.461
31928W        W32792   6.101   4.402  28.011
31929W        W32793   5.355   7.335  28.086
31930W        W32794   6.890   4.069  26.509
31931W        W32795   6.703   5.240  28.002
31932W        W32796   3.800   4.658  28.041
31933W        W32797   6.584   4.521  27.081
31934W        W32798   6.960   4.601  28.589
31935W        W32799   5.839   6.344  27.117
31936W        W32800   5.170   6.915  26.769
31937W        W32801   4.179   4.162  25.949
31938W        W32802   5.469   3.769  27.491
31939W        W32803   4.257   7.137  25.749
31940W        W32804   4.810   5.495  26.153
31941W        W32805   5.422   6.015  28.510
31942W        W32806   5.358   4.222  26.574
31943W        W32807   6.559   3.861  26.857
31944W        W32808   6.427   7.246  27.334
31945W        W32809   5.663   6.990  27.715
31946W        W32810   5.094   5.977  27.629
31947W        W32811   6.934   6.637  27.891
31948W        W32812   4.511   4.071  26.404
31949W        W32813   5.038   6.481  27.650
31950W        W32814   4.598   4.479  25.471
31951W        W32815   5.368   4.918  27.815
31952W        W32816   6.362   4.024  27.790
31953W        W32817   3.825   5.798  27.636
31954W        W32818   5.216   5.350  25.801
31955W        W32819   4.646   4.045  25.723
31956W        W32820   5.397   4.810  26.614
31957W        W32821   6.296   4.039  28.332
31958W        W32822   4.936   5.849  28.472
31959W        W32823   5.696   5.687  28.824
31960W        W32824   6.162   5.567  28.602
31961W        W32825   5.632   3.835   0.024
31962W        W32826   4.862   4.227  27.320
31963W        W32827   4.245   4.402  26.892
31964W        W32828   4.003   6.992  26.587
31965W        W32829   5.396   6.529  28.505
31966W        W32830   4.371   6.096  26.004
31967W        W32831   6.133   5.435  27.249
31968W        W32832   6.269   5.229  27.714
31969W        W32833   5.449   5.620  27.575
31970W        W32834   6.158   6.108  25.580
31971W        W32835   5.706   4.137  27.080
31972W        W32836   7.148   4.478  26.299
31973W        W32837   3.818   6.901  28.518
31974W        W32838   4.062   6.223  27.954
31975W        W32839   3.565   7.190  26.188
31976W        W32840   5.577   4.433  27.924
31977W        W32841   4.788   6.528  26.053
31978W        W32842   7.086   6.974  26.164
31979W        W32843   5.647   5.238  26.070
31980W        W32844   4.550   4.606  26.516
31981W        W32845   5.639   4.395  25.707
31982W        W32846   6.024   6.071  28.630
31983W        W32847   6.406   4.054  26.300
31984W        W32848   3.800   3.835  25.796
31985W        W32849   5.068   6.266  28.145
31986W        W32850   4.854   6.101  27.198
31987W        W32851   4.702   6.249  25.635
31988W        W32852   3.808   6.525  26.414
31989W        W32853   4.295   5.236  28.728
31990W        W32854   5.050   3.833  28.902
31991W        W32855   5.773   3.948  27.972
31992W        W32856   4.932   3.771  26.633
31993W        W32857   5.786   3.634  26.192
31994W        W32858   4.024   3.915  27.639
31995W        W32859   3.840   4.713  27.059
31996W        W32860   6.777   4.004  27.487
31997W        W32861   4.112   4.388  26.394
31998W        W32862   6.828   3.982  28.021
31999W        W32863   6.991   5.033  25.486
32000W        W32864   4.348   4.186  27.338
32001W        W32865   5.319   4.546  28.366
32002W        W32866   3.626   4.325  25.854
32003W        W32867   4.417   5.721  28.355
32004W        W32868   5.726   5.195  27.497
32005W        W32869   5.608   7.139  25.846
32006W        W32870   3.662   5.923  25.544
32007W        W32871   4.575   6.137  28.686
32008W        W32872   4.112   5.305  28.247
32009W        W32873   5.057   5.379  28.024
32010W        W32874   6.602   3.613  28.287
32011W        W32875   7.244   5.509  28.378
32012W        W32876   7.082   5.246  26.031
32013W        W32877   5.801   5.677  26.372
32014W        W32878   6.592   7.269  25.581
32015W        W32879   5.798   5.027   0.070
32016W        W32880   4.232   5.981   0.021
32017W        W32881   7.262   4.196  28.746
32018W        W32882   6.767   4.914  27.583
32019W        W32883   5.237   6.953  28.765
32020W        W32884   5.096   3.812  25.784
32021W        W32885   6.778   6.036  25.766
32022W        W32886   4.427   4.390  28.596
32023W        W32887   4.803   6.566  28.503
32024W        W32888   7.157   4.318  28.216
32025W        W32889   6.556   7.512  26.037
32026W        W32890   6.375   5.751  27.596
32027W        W32891   4.780   4.188  28.213
32028W        W32892   5.027   5.244  28.831
32029W        W32893   4.494   6.340  26.441
32030W        W32894   6.338   5.732  26.459
32031W        W32895   4.330   4.412  28.099
32032W        W32896   5.370   6.403  26.853
32033W        W32897   7.211   5.093  26.963
32034W        W32898   5.405   3.669  28.573
32035W        W32899   6.376   6.525  27.759
32036W        W32900   6.710   6.830  27.471
32037W        W32901   5.550   6.622  25.602
32038W        W32902   3.773   6.176  28.887
32039W        W32903   4.601   4.518  27.666
32040W        W32904   4.539   3.929  26.946
32041W        W32905   5.956   4.790  27.707
32042W        W32906   4.965   5.796  25.727
32043W        W32907   6.909   5.787  27.582
32044W        W32908   4.289   6.599  28.682
32045W        W32909   6.893   7.328  26.542
32046W        W32910   4.872   4.275  26.734
32047W        W32911   4.638   5.645  26.979
32048W        W32912   4.810   7.260  27.991
32049W        W32913   6.935   7.212  28.676
32050W        W32914   5.917   5.590  27.798
32051W        W32915   3.880   5.071  25.692
32052W        W32916   7.091   6.910  26.762
32053W        W32917   6.789   4.257  26.012
32054W        W32918   4.929   3.733  28.381
32055W        W32919   6.833   6.538  27.072
32056W        W32920   6.705   5.017  26.916
32057W        W32921   4.697   4.645  27.051
32058W        W32922   5.231   5.035  28.369
32059W        W32923   6.270   6.377  28.258
32060W        W32924   4.814   4.695  28.319
32061W        W32925   4.783   7.120  27.056
32062W        W32926   4.230   7.127  28.691
32063W        W32927   4.333   6.605  25.820
32064W        W32928   6.787   5.909  26.687
32065W        W32929   4.321   4.852  28.371
32066W        W32930   7.296   4.791  25.837
32067W        W32931   4.869   6.032  26.180
32068W        W32932   5.747   5.220  28.567
32069W        W32933   5.743   4.840  28.190
32070W        W32934   4.531   5.367  27.953
32071W        W32935   6.689   7.228  27.785
32072W        W32936   6.408   3.725  28.741
32073W        W32937   4.079   3.959  28.560
32074W        W32938   4.482   5.180  27.478
32075W        W32939   4.906   4.837  25.726
32076W        W32940   3.738   6.442  28.302
32077W        W32941   5.076   5.251  27.520
32078W        W32942   5.110   4.351  25.786
32079W        W32943   4.536   5.302  26.588
32080W        W32944   3.878   7.131  28.058
32081W        W32945   6.584   5.222  25.922
32082W        W32946   6.808   4.035  28.556
32083W        W32947   6.439   6.283  26.858
32084W        W32948   3.801   5.236  28.931
32085W        W32949   6.838   3.746  26.054
32086W        W32950   6.614   6.144  26.257
32087W        W32951   5.179   5.115  26.255
32088W        W32952   6.447   3.976  25.746
32089W        W32953   6.422   4.807  27.972
32090W        W32954   4.002   5.197  27.213
32091W        W32955   4.423   6.098  26.900
32092W        W32956   6.260   4.804  26.737
32093W        W32957   5.358   4.276  27.471
32094W        W32958   7.097   6.149  27.942
32095W        W32959   7.240   4.186  27.682
32096W        W32960   3.751   7.008  27.039
32097W        W32961   4.056   6.077  26.512
32098W        W32962   4.243   3.759   0.080
32099W        W32963   5.517   6.677   0.119
32100W        W32964   7.015   5.605  27.075
32101W        W32965   6.373   5.683  25.833
32102W        W32966   5.918   7.292  28.066
32103W        W32967   6.477   5.817  28.924
32104W        W32968   5.184   3.585  26.229
32105W        W32969   6.042   4.553  27.158
32106W        W32970   3.648   6.246  27.451
32107W        W32971   4.979   4.091  26.217
32108W        W32972   4.630   5.628  28.833
32109W        W32973   5.779   4.512  26.728
32110W        W32974   6.070   6.089  27.851
32111W        W32975   4.187   6.688  28.183
32112W        W32976   4.679   6.528   0.017
32113W        W32977   4.605   4.476  26.009
32114W        W32978   6.080   4.462  26.317
32115W        W32979   5.916   6.594  28.607
32116W        W32980   4.794   5.173  27.083
32117W        W32981   4.352   7.079  27.863
32118W        W32982   7.115   7.137  25.636
32119W        W32983   3.987   5.667  28.685
32120W        W32984   5.872   5.883  27.388
32121W        W32985   4.497   5.805  26.465
32122W        W32986   4.712   6.676  27.986
32123W        W32987   5.209   3.975  27.036
32124W        W32988   3.606   6.069  26.220
32125W        W32989   5.405   4.852  25.810
32126W        W32990   4.141   5.648  26.824
32127W        W32991   5.316   4.068  28.237
32128W        W32992   6.956   3.961  25.611
32129W        W32993   7.011   5.641  28.818
32130W        W32994   5.782   7.061  28.854
32131W        W32995   7.086   6.006  28.452
32132W        W32996   6.743   6.638   0.082
32133W        W32997   4.409   7.307  27.408
32134W        W32998   7.291   5.972  26.791
32135W        W32999   5.816   4.995  26.976
32136W        W33000   5.461   3.708  26.659
32137W        W33001   4.629   6.736  26.756
32138W        W33002   5.068   4.503  27.904
32139W        W33003   4.937   3.712  27.406
32140W        W33004   3.932   6.864  26.042
32141W        W33005   5.421   5.810  26.739
32142W        W33006   4.577   6.995  28.353
32143W        W33007   3.987   5.573  26.337
32144W        W33008   3.839   4.240  27.248
32145W        W33009   5.405   6.046  27.225
32146W        W33010   3.732   4.064  26.282
32147W        W33011   6.158   5.174  28.236
32148W        W33012   6.318   4.458  25.851
32149W        W33013   6.761   6.297  27.527
32150W        W33014   5.445   6.569  27.376
32151W        W33015   4.905   6.950  26.337
32152W        W33016   6.029   3.662  25.662
32153W        W33017   3.947   7.045  27.520
32154W        W33018   6.126   4.622  28.990
32155W        W33019   4.085   4.250  28.985
32156W        W33020   3.880   4.815  26.565
32157W        W33021   4.679   4.983  26.173
32158W        W33022   6.220   5.081  28.765
32159W        W33023   4.718   5.648  27.505
32160W        W33024   6.047   3.751  26.969
32161W        W33025   5.270   7.054  27.255
32162W        W33026   6.505   6.849  28.107
32163W        W33027   6.260   6.717  27.260
32164W        W33028   6.141   5.856  26.945
32165W        W33029   5.470   4.032  26.078
32166W        W33030   7.233   3.735  26.757
32167W        W33031   4.725   5.321  25.639
32168W        W33032   7.027   4.606  26.821
32169W        W33033   5.640   5.693  25.817
32170W        W33034   6.551   5.970  28.452
32171W        W33035   6.995   6.470  26.043
32172W        W33036   4.916   4.324  28.702
32173W        W33037   4.810   4.950  27.861
32174W        W33038   6.791   6.414  28.330
32175W        W33039   5.790   4.274  28.397
32176W        W33040   3.814   4.952  28.494
32177W        W33041   5.575   5.321  28.063
32178W        W33042   3.919   6.087  27.017
32179W        W33043   4.054   5.350  27.717
32180W        W33044   6.332   5.647  28.105
32181W        W33045   6.269   6.883  28.945
32182W        W33046   6.160   4.663  28.448
32183W        W33047   6.585   6.978  26.919
32184W        W33048   5.446   6.601  27.971
32185W        W33049   4.700   6.880  27.508
32186W        W33050   6.577   6.094  27.949
32187W        W33051   5.607   6.216  28.929
32188W        W33052   4.171   6.147  27.450
32189W        W33053   6.629   5.922  27.177
32190W        W33054   6.195   7.005  27.711
32191W        W33055   4.296   6.602  27.684
32192W        W33056   5.200   4.739  28.840
32193W        W33057   5.409   6.694  26.372
32194W        W33058   5.074   6.255  28.804
32195W        W33059   4.981   6.461  26.526
32196W        W33060   4.392   4.908  25.719
32197W        W33061   3.727  10.943   3.471
32198W        W33062   4.077   9.822   2.825
32199W        W33063   6.902   9.421   0.772
32200W        W33064   7.123  10.549   2.594
32201W        W33065   5.029  10.617   0.253
32202W        W33066   4.777   8.674   1.041
32203W        W33067   4.332   8.481   1.261
32204W        W33068   5.424   9.266   0.668
32205W        W33069   5.088  10.437   2.937
32206W        W33070   3.709   8.177   2.923
32207W        W33071   4.371   7.123   2.876
32208W        W33072   6.220   7.651   1.680
32209W        W33073   5.936   8.477   0.440
32210W        W33074   6.417   8.118   3.250
32211W        W33075   3.838   7.784   2.609
32212W        W33076   3.850  10.447   3.527
32213W        W33077   5.254   9.708   0.321
32214W        W33078   3.879   8.576   1.961
32215W        W33079   4.919   8.554   3.224
32216W        W33080   6.998   8.175   1.807
32217W        W33081   6.886   9.379   2.458
32218W        W33082   5.133   8.689   1.427
32219W        W33083   5.896  10.155   1.914
32220W        W33084   4.360   9.386   2.097
32221W        W33085   3.574   9.019   2.025
32222W        W33086   5.047   8.818   2.786
32223W        W33087   7.011   8.798   3.223
32224W        W33088   4.565  10.179   1.674
32225W        W33089   5.581   9.968   2.653
32226W        W33090   5.115   8.293   1.961
32227W        W33091   5.158   9.257   1.595
32228W        W33092   6.162  10.288   3.462
32229W        W33093   5.434   9.245   3.466
32230W        W33094   5.466   9.084   2.998
32231W        W33095   3.647   8.331   3.427
32232W        W33096   6.425  10.034   3.082
32233W        W33097   4.013   7.401   1.054
32234W        W33098   4.626   9.857   2.134
32235W        W33099   7.000   9.719   1.489
32236W        W33100   6.327   7.969   2.068
32237W        W33101   6.800   7.991   0.050
32238W        W33102   7.134   8.900   2.399
32239W        W33103   5.109  10.610   1.977
32240W        W33104   6.902  10.091   0.532
32241W        W33105   4.348  10.941   0.560
32242W        W33106   4.521  10.796   1.032
32243W        W33107   4.321   7.617   2.626
32244W        W33108   6.790   8.534   2.598
32245W        W33109   6.247   8.974   1.294
32246W        W33110   6.343   8.767   0.294
32247W        W33111   5.511   9.874   2.127
32248W        W33112   5.262   8.103   1.471
32249W        W33113   5.902  10.283   2.411
32250W        W33114   6.723   8.968   1.100
32251W        W33115   5.839   7.745   0.943
32252W        W33116   4.313  10.432   0.689
32253W        W33117   3.819   7.851   1.249
32254W        W33118   6.434   8.439   1.863
32255W        W33119   4.033  10.197   1.635
32256W        W33120   5.337  10.264   0.654
32257W        W33121   6.667   8.491  28.984
32258W        W33122   3.802  10.271   2.209
32259W        W33123   4.567   9.982   2.633
32260W        W33124   4.833   9.162   1.181
32261W        W33125   4.688   7.611   2.244
32262W        W33126   7.232   7.422   1.843
32263W        W33127   4.367   9.036   0.228
32264W        W33128   3.995   8.273   0.477
32265W        W33129   4.095  10.259   1.130
32266W        W33130   5.064   9.619   1.222
32267W        W33131   6.677  10.532   2.853
32268W        W33132   5.580   8.146   0.678
32269W        W33133   6.926  10.712   1.457
32270W        W33134   6.541   8.627   3.036
32271W        W33135   7.317  10.058   1.274
32272W        W33136   5.884   9.306   2.774
32273W        W33137   3.645   8.978   1.162
32274W        W33138   4.736   9.484   2.469
32275W        W33139   5.956   8.664   0.926
32276W        W33140   5.856   9.184   0.994
32277W        W33141   4.293   8.522   2.287
32278W        W33142   4.062   8.493   3.096
32279W        W33143   4.095   7.447   1.556
32280W        W33144   5.848   7.801   2.016
32281W        W33145   5.581   7.790   3.219
32282W        W33146   6.029   7.763   0.466
32283W        W33147   7.137  10.424   3.116
32284W        W33148   5.813   7.424   2.874
32285W        W33149   6.860   9.827   3.260
32286W        W33150   6.492   8.017   2.729
32287W        W33151   6.217   7.887   1.231
32288W        W33152   6.538   8.964   3.445
32289W        W33153   4.315  10.612   1.483
32290W        W33154   4.852   8.425   0.575
32291W        W33155   4.534   7.588   3.165
32292W        W33156   6.622   8.120   1.007
32293W        W33157   6.934   8.537   0.930
32294W        W33158   4.712  10.612   3.286
32295W        W33159   6.977   7.728   1.541
32296W        W33160   7.278  10.109   0.180
32297W        W33161   3.959   9.318   1.771
32298W        W33162   6.157   7.815  28.977
32299W        W33163   7.139  10.221   1.761
32300W        W33164   7.087   7.357   2.356
32301W        W33165   5.759   8.309   3.244
32302W        W33166   5.386   9.748   0.813
32303W        W33167   6.222   9.248   3.721
32304W        W33168   5.754   7.380   1.702
32305W        W33169   4.311   8.328   1.777
32306W        W33170   4.251   9.382   2.585
32307W        W33171   5.870  10.532   1.521
32308W        W33172   6.761   8.122   2.278
32309W        W33173   5.579  10.507   2.761
32310W        W33174   6.930   9.647   0.273
32311W        W33175   5.344   9.081   1.140
32312W        W33176   7.166   7.406   2.896
32313W        W33177   5.457   9.496   2.481
32314W        W33178   5.583   8.374   1.744
32315W        W33179   6.455   8.524   0.736
32316W        W33180   6.888   8.373   0.439
32317W        W33181   6.590  10.279   0.902
32318W        W33182   6.271   9.767   1.755
32319W        W33183   6.305   9.009   0.756
32320W        W33184   5.673   9.096   1.558
32321W        W33185   6.609   8.946   1.778
32322W        W33186   4.129   8.027   2.202
32323W        W33187   6.750   9.015   2.787
32324W        W33188   7.130  10.626   2.067
32325W        W33189   5.000  10.106   1.446
32326W        W33190   6.208  10.682   2.665
32327W        W33191   5.997   8.030   2.483
32328W        W33192   5.274  10.840   2.466
32329W        W33193   6.920   7.701   1.024
32330W        W33194   6.629   8.966   2.297
32331W        W33195   3.708   8.277   2.380
32332W        W33196   6.571   8.051   1.547
32333W        W33197   6.890   8.232   3.027
32334W        W33198   5.884   9.959   1.444
32335W        W33199   5.148  10.478   1.125
32336W        W33200   4.090   7.744   0.572
32337W        W33201   5.387   7.324   2.085
32338W        W33202   4.432  10.573   0.174
32339W        W33203   4.637   9.050   0.677
32340W        W33204   5.527   9.605   3.027
32341W        W33205   5.359   7.826   1.035
32342W        W33206   6.570   7.472   1.339
32343W        W33207   6.304  10.845   1.693
32344W        W33208   5.646  10.616   1.984
32345W        W33209   5.061   9.553   2.066
32346W        W33210   6.853  10.237   2.281
32347W        W33211   4.459   7.696   0.954
32348W        W33212   5.041  10.087   1.955
32349W        W33213   4.676   7.717   0.180
32350W        W33214   5.294   8.582   2.383
32351W        W33215   6.196   7.394   2.130
32352W        W33216   3.811   9.427   2.261
32353W        W33217   5.406   8.947   0.245
32354W        W33218   4.649   7.201   0.326
32355W        W33219   5.152   8.315   1.011
32356W        W33220   6.221   7.585   2.598
32357W        W33221   5.093   9.384   2.825
32358W        W33222   5.908   9.351   3.305
32359W        W33223   6.324   9.171   3.030
32360W        W33224   5.459   7.491   3.626
32361W        W33225   4.872   7.883   1.739
32362W        W33226   4.353   7.972   1.389
32363W        W33227   3.987  10.786   0.930
32364W        W33228   5.521  10.147   3.130
32365W        W33229   4.426   9.508   0.485
32366W        W33230   6.137   9.177   1.769
32367W        W33231   6.183   8.815   2.129
32368W        W33232   5.462   9.250   2.021
32369W        W33233   6.073   9.714   0.086
32370W        W33234   5.710   7.805   1.448
32371W        W33235   7.199   8.105   0.809
32372W        W33236   3.821  10.664   3.038
32373W        W33237   4.124   9.827   2.310
32374W        W33238   3.529  10.825   0.668
32375W        W33239   5.542   8.159   2.258
32376W        W33240   4.890  10.060   0.448
32377W        W33241   6.861  10.592   0.551
32378W        W33242   5.863   8.991   0.502
32379W        W33243   4.635   8.192   0.974
32380W        W33244   5.726   8.082   0.174
32381W        W33245   5.946   9.864   3.230
32382W        W33246   6.406   7.652   0.822
32383W        W33247   3.735   7.423   0.371
32384W        W33248   5.072   9.899   2.436
32385W        W33249   4.775   9.683   1.659
32386W        W33250   4.784   9.655   0.146
32387W        W33251   3.732  10.339   0.767
32388W        W33252   4.450   8.854   3.253
32389W        W33253   5.031   7.656   3.348
32390W        W33254   5.564   7.675   2.463
32391W        W33255   5.052   7.402   1.021
32392W        W33256   5.933   7.300   0.719
32393W        W33257   4.068   7.514   2.159
32394W        W33258   3.894   8.340   1.462
32395W        W33259   6.682   7.358   1.860
32396W        W33260   4.135   8.116   0.941
32397W        W33261   6.643   7.624   2.292
32398W        W33262   7.145   8.739   0.201
32399W        W33263   4.399   7.757   1.850
32400W        W33264   5.586   8.095   2.788
32401W        W33265   3.645   7.928   0.339
32402W        W33266   4.648   9.128   2.858
32403W        W33267   5.682   8.784   2.049
32404W        W33268   5.546  10.636   0.268
32405W        W33269   3.874   9.241   0.228
32406W        W33270   4.651   9.623   2.983
32407W        W33271   4.212   8.874   2.780
32408W        W33272   5.074   9.102   2.355
32409W        W33273   6.686   7.370   2.732
32410W        W33274   7.243   9.139   2.857
32411W        W33275   7.171   9.208   0.383
32412W        W33276   6.067   9.477   0.595
32413W        W33277   6.697  10.833   0.125
32414W        W33278   5.839   8.906   3.570
32415W        W33279   4.274   9.804   3.299
32416W        W33280   7.246   7.828   3.277
32417W        W33281   6.871   8.577   2.085
32418W        W33282   5.271  10.569   3.412
32419W        W33283   5.047   7.456   0.499
32420W        W33284   6.505   9.933   0.222
32421W        W33285   4.192   7.981   3.147
32422W        W33286   5.104   9.911   2.934
32423W        W33287   6.971   7.820   2.641
32424W        W33288   6.449  10.928   0.571
32425W        W33289   6.485   9.411   2.055
32426W        W33290   4.655   8.008   2.642
32427W        W33291   5.390   8.714   3.391
32428W        W33292   4.489   9.945   0.783
32429W        W33293   6.453   9.400   1.028
32430W        W33294   4.162   8.201   2.676
32431W        W33295   5.440  10.054   1.207
32432W        W33296   7.197   8.714   1.339
32433W        W33297   5.359   7.340   3.120
32434W        W33298   6.373  10.145   2.091
32435W        W33299   6.677  10.477   1.850
32436W        W33300   5.716   9.913   0.436
32437W        W33301   3.790  10.019   3.233
32438W        W33302   4.638   8.126   2.134
32439W        W33303   4.592   7.499   1.438
32440W        W33304   5.970   8.348   2.071
32441W        W33305   5.001   9.244   0.353
32442W        W33306   6.971   9.382   1.905
32443W        W33307   4.189  10.305   3.075
32444W        W33308   6.812  10.900   0.971
32445W        W33309   4.886   7.852   1.224
32446W        W33310   4.432   9.314   1.539
32447W        W33311   4.780  10.887   2.338
32448W        W33312   6.830  10.852   3.213
32449W        W33313   5.926   9.257   2.240
32450W        W33314   3.960   8.775   0.446
32451W        W33315   7.070  10.448   1.030
32452W        W33316   6.796   7.899   0.572
32453W        W33317   4.801   7.427   2.724
32454W        W33318   6.788  10.211   1.398
32455W        W33319   6.724   8.557   1.450
32456W        W33320   4.771   8.318   1.482
32457W        W33321   5.487   8.583   2.895
32458W        W33322   6.116   9.780   2.745
32459W        W33323   5.085   8.281   2.790
32460W        W33324   4.839  10.625   1.496
32461W        W33325   4.222  10.775   3.348
32462W        W33326   4.387   9.994   0.220
32463W        W33327   6.919   9.890   1.003
32464W        W33328   4.547   8.478   2.886
32465W        W33329   7.518   8.336   0.437
32466W        W33330   4.892   9.578   0.718
32467W        W33331   5.916   8.836   3.050
32468W        W33332   5.823   8.547   2.509
32469W        W33333   4.551   8.977   2.370
32470W        W33334   6.631  10.697   2.343
32471W        W33335   6.327   7.458   3.085
32472W        W33336   4.048   7.491   3.045
32473W        W33337   4.711   8.613   1.956
32474W        W33338   4.805   8.211   0.100
32475W        W33339   3.693  10.228   2.764
32476W        W33340   5.185   8.820   1.923
32477W        W33341   5.213   7.872   0.196
32478W        W33342   4.342   8.957   1.088
32479W        W33343   3.815  10.694   2.520
32480W        W33344   6.792   8.899   0.574
32481W        W33345   6.762   7.731   3.104
32482W        W33346   6.445   9.857   1.264
32483W        W33347   3.848   8.950   3.188
32484W        W33348   6.936   7.406   0.569
32485W        W33349   6.507   9.789   0.708
32486W        W33350   5.125   8.846   0.692
32487W        W33351   6.507   7.606   0.290
32488W        W33352   6.348   8.403   2.397
32489W        W33353   4.027   8.848   1.488
32490W        W33354   4.393   9.855   1.308
32491W        W33355   6.272   8.419   1.250
32492W        W33356   5.350   7.818   1.917
32493W        W33357   7.132   9.820   2.358
32494W        W33358   7.177   7.835   2.157
32495W        W33359   3.787  10.606   1.394
32496W        W33360   4.017   9.755   0.939
32497W        W33361   4.157   7.582   3.553
32498W        W33362   5.121  10.082   3.439
32499W        W33363   7.061   9.207   1.412
32500W        W33364   6.537   9.340   0.431
32501W        W33365   5.788  10.832   2.417
32502W        W33366   6.385   9.572   3.336
32503W        W33367   5.412   7.161   0.723
32504W        W33368   6.052   8.142   1.630
32505W        W33369   3.748   9.835   1.918
32506W        W33370   4.996   7.937   0.679
32507W        W33371   5.003   9.062   3.248
32508W        W33372   5.754   8.237   1.183
32509W        W33373   6.048   9.762   2.236
32510W        W33374   4.159  10.289   2.573
32511W        W33375   4.677  10.119   3.143
32512W        W33376   4.476   8.073   0.502
32513W        W33377   6.116   8.152   0.804
32514W        W33378   6.004  10.280   2.931
32515W        W33379   4.618   8.829   1.511
32516W        W33380   4.284  10.719   2.319
32517W        W33381   7.191  10.655   0.121
32518W        W33382   4.216   9.316   3.082
32519W        W33383   5.792   9.577   1.798
32520W        W33384   4.460   9.457   0.998
32521W        W33385   4.787  10.348   2.327
32522W        W33386   5.239   7.576   1.479
32523W        W33387   3.684   9.575   0.583
32524W        W33388   5.287   8.417   0.239
32525W        W33389   4.018   9.313   1.238
32526W        W33390   5.178   7.769   2.859
32527W        W33391   6.983   7.514   0.076
32528W        W33392   6.844   9.303   3.194
32529W        W33393   5.761  10.593   3.258
32530W        W33394   7.142   9.639   2.853
32531W        W33395   6.677  10.369   3.364
32532W        W33396   4.295  11.021   1.842
32533W        W33397   7.284   9.536   1.090
32534W        W33398   6.012   8.672   1.647
32535W        W33399   5.569   7.344   1.174
32536W        W33400   4.607  10.308   1.158
32537W        W33401   5.087   7.944   2.365
32538W        W33402   4.935   7.385   1.827
32539W        W33403   3.944  10.669   0.389
32540W        W33404   5.574   9.537   1.273
32541W        W33405   4.577  10.509   2.778
32542W        W33406   4.076   9.212   0.722
32543W        W33407   3.929   7.915   1.741
32544W        W33408   5.318   9.751   1.660
32545W        W33409   3.631   7.654   0.809
32546W        W33410   6.246   8.840   2.646
32547W        W33411   6.393   8.149   0.355
32548W        W33412   6.773   9.870   1.916
32549W        W33413   5.446  10.251   1.685
32550W        W33414   4.831  10.501   0.719
32551W        W33415   6.108   7.296   0.212
32552W        W33416   3.975  10.635   1.896
32553W        W33417   5.995   7.928   3.515
32554W        W33418   4.061   8.088   3.641
32555W        W33419   3.901   8.589   0.958
32556W        W33420   4.366   8.570   0.736
32557W        W33421   6.190   8.559   3.393
32558W        W33422   4.771   9.143   1.915
32559W        W33423   6.067   7.389   1.249
32560W        W33424   5.354  10.737   1.534
32561W        W33425   6.389  10.210   2.590
32562W        W33426   6.299  10.258   1.587
32563W        W33427   6.077   9.479   1.365
32564W        W33428   5.526   7.639   0.548
32565W        W33429   7.218   7.356   1.247
32566W        W33430   4.847   8.782   0.218
32567W        W33431   7.049   8.185   1.296
32568W        W33432   5.675   9.411   0.256
32569W        W33433   6.611   9.603   2.864
32570W        W33434   6.394  10.408   0.421
32571W        W33435   4.774   8.050   3.142
32572W        W33436   4.793   8.511   2.442
32573W        W33437   6.859  10.062   2.777
32574W        W33438   6.033   7.881   2.991
32575W        W33439   3.732   8.690   2.703
32576W        W33440   5.563   8.993   2.509
32577W        W33441   3.884   9.748   1.439
32578W        W33442   4.294   8.909   1.910
32579W        W33443   6.344   9.335   2.534
32580W        W33444   6.305  10.701   3.174
32581W        W33445   6.124   8.373   2.881
32582W        W33446   6.461  10.629   1.257
32583W        W33447   5.359  10.329   2.327
32584W        W33448   4.596  10.626   1.931
32585W        W33449   6.584   9.788   2.392
32586W        W33450   5.535   9.737   3.530
32587W        W33451   4.255   9.769   1.795
32588W        W33452   6.578   9.403   1.533
32589W        W33453   6.164  10.607   2.119
32590W        W33454   4.294  10.250   2.086
32591W        W33455   5.263   8.180   3.276
32592W        W33456   5.651  10.515   1.046
32593W        W33457   5.072   9.578   3.314
32594W        W33458   4.975  10.034   0.943
32595W        W33459   4.401   8.517   0.233
32596W        W33460   3.723  10.906   7.113
32597W        W33461   4.096   9.918   6.545
32598W        W33462   6.845   9.472   4.385
32599W        W33463   6.978  10.561   6.520
32600W        W33464   4.726  10.496   3.806
32601W        W33465   5.003   8.692   4.709
32602W        W33466   4.693   8.442   5.121
32603W        W33467   5.546   9.159   4.333
32604W        W33468   5.184  10.583   6.758
32605W        W33469   3.738   8.186   6.665
32606W        W33470   4.303   7.389   6.523
32607W        W33471   6.304   7.704   5.348
32608W        W33472   5.865   8.380   3.747
32609W        W33473   6.309   8.173   7.043
32610W        W33474   3.841   7.792   6.255
32611W        W33475   3.877  10.420   7.205
32612W        W33476   5.172   9.816   3.905
32613W        W33477   3.698   8.408   5.678
32614W        W33478   4.857   8.603   6.799
32615W        W33479   6.962   8.291   5.458
32616W        W33480   6.963   9.327   6.402
32617W        W33481   5.497   8.816   5.331
32618W        W33482   5.984  10.081   5.510
32619W        W33483   4.174   9.342   5.862
32620W        W33484   3.619   8.888   5.523
32621W        W33485   4.823   9.004   6.492
32622W        W33486   6.995   8.752   7.041
32623W        W33487   4.611  10.234   5.340
32624W        W33488   5.761   9.930   6.322
32625W        W33489   5.120   8.497   5.590
32626W        W33490   5.292   9.289   5.377
32627W        W33491   5.921  10.196   7.148
32628W        W33492   5.382   9.435   6.981
32629W        W33493   5.334   9.210   6.516
32630W        W33494   3.585   8.381   7.146
32631W        W33495   6.339   9.919   6.952
32632W        W33496   4.098   7.588   4.800
32633W        W33497   4.838  10.037   5.851
32634W        W33498   7.069   9.661   5.286
32635W        W33499   6.570   8.028   5.698
32636W        W33500   6.829   7.995   3.538
32637W        W33501   7.252   8.734   6.129
32638W        W33502   5.370  10.630   5.884
32639W        W33503   6.831   9.915   4.100
32640W        W33504   4.118  10.801   4.377
32641W        W33505   4.405  10.718   4.806
32642W        W33506   4.293   7.624   6.060
32643W        W33507   6.888   8.833   6.497
32644W        W33508   6.178   8.946   4.950
32645W        W33509   6.269   8.752   3.863
32646W        W33510   5.643   9.792   5.751
32647W        W33511   5.530   8.049   5.080
32648W        W33512   5.746  10.272   5.928
32649W        W33513   6.833   9.088   4.738
32650W        W33514   5.898   7.617   4.446
32651W        W33515   4.440  10.394   4.389
32652W        W33516   3.732   7.957   4.851
32653W        W33517   6.148   8.595   5.329
32654W        W33518   4.041  10.241   5.465
32655W        W33519   5.220  10.336   3.883
32656W        W33520   6.708   8.488   3.506
32657W        W33521   3.944  10.218   5.976
32658W        W33522   4.589  10.138   6.296
32659W        W33523   4.837   9.336   5.119
32660W        W33524   4.748   7.744   5.886
32661W        W33525   7.113   7.414   5.466
32662W        W33526   4.608   9.343   3.413
32663W        W33527   4.447   8.350   3.899
32664W        W33528   4.264  10.238   4.961
32665W        W33529   4.987   9.769   4.897
32666W        W33530   6.462  10.544   6.616
32667W        W33531   5.677   8.296   4.228
32668W        W33532   6.949  10.544   5.284
32669W        W33533   6.552   8.591   6.831
32670W        W33534   7.343  10.076   5.027
32671W        W33535   5.869   9.316   6.484
32672W        W33536   3.539   8.980   4.687
32673W        W33537   4.652   9.541   5.883
32674W        W33538   5.877   8.755   4.554
32675W        W33539   5.879   9.278   4.696
32676W        W33540   4.074   8.591   6.015
32677W        W33541   4.125   8.573   6.730
32678W        W33542   4.038   7.431   5.286
32679W        W33543   5.756   7.839   5.509
32680W        W33544   5.474   7.898   6.887
32681W        W33545   5.996   7.953   4.040
32682W        W33546   7.078  10.374   7.002
32683W        W33547   5.853   7.456   6.893
32684W        W33548   6.874   9.907   7.120
32685W        W33549   6.465   7.935   6.600
32686W        W33550   6.342   7.881   4.849
32687W        W33551   6.598   8.966   7.359
32688W        W33552   4.315  10.647   5.318
32689W        W33553   5.219   8.089   4.186
32690W        W33554   4.577   7.698   6.879
32691W        W33555   6.582   8.222   4.515
32692W        W33556   6.929   8.601   4.572
32693W        W33557   4.796  10.859   6.973
32694W        W33558   4.597   7.428   4.181
32695W        W33559   6.863   7.828   5.282
32696W        W33560   7.050  10.111   3.645
32697W        W33561   3.858   9.332   5.411
32698W        W33562   5.917   7.421   3.390
32699W        W33563   7.163  10.135   5.517
32700W        W33564   6.979   7.413   6.092
32701W        W33565   5.716   8.706   6.632
32702W        W33566   5.432   9.654   4.413
32703W        W33567   6.144   9.181   7.334
32704W        W33568   5.887   7.368   5.397
32705W        W33569   4.236   8.360   5.507
32706W        W33570   3.917   9.504   6.263
32707W        W33571   6.085  10.431   5.146
32708W        W33572   6.845   8.451   5.943
32709W        W33573   5.729  10.708   6.639
32710W        W33574   6.738   9.405   3.691
32711W        W33575   5.459   8.950   4.825
32712W        W33576   7.103   7.369   6.608
32713W        W33577   5.505   9.492   6.140
32714W        W33578   5.622   8.345   5.493
32715W        W33579   6.433   8.795   4.501
32716W        W33580   6.689   8.548   4.093
32717W        W33581   6.688  10.321   4.415
32718W        W33582   6.558   9.659   5.390
32719W        W33583   6.095   9.117   4.219
32720W        W33584   5.798   9.220   5.214
32721W        W33585   6.614   9.163   5.192
32722W        W33586   4.023   8.067   5.875
32723W        W33587   6.643   9.106   6.861
32724W        W33588   7.226  10.613   5.776
32725W        W33589   5.085  10.211   5.181
32726W        W33590   6.056  10.552   6.258
32727W        W33591   6.003   7.948   6.197
32728W        W33592   5.316  10.882   6.347
32729W        W33593   6.850   7.726   4.752
32730W        W33594   6.772   8.973   5.998
32731W        W33595   3.643   8.265   6.162
32732W        W33596   6.503   8.227   5.230
32733W        W33597   6.800   8.331   6.462
32734W        W33598   5.831   9.790   5.109
32735W        W33599   5.268  10.526   4.819
32736W        W33600   4.186   7.737   4.051
32737W        W33601   5.443   7.483   5.732
32738W        W33602   4.182  10.714   3.866
32739W        W33603   4.977   9.022   4.204
32740W        W33604   5.349   9.734   6.570
32741W        W33605   5.424   7.782   4.661
32742W        W33606   6.716   7.363   5.136
32743W        W33607   6.430  10.688   5.427
32744W        W33608   5.834  10.654   5.582
32745W        W33609   5.162   9.605   5.775
32746W        W33610   6.944  10.188   6.158
32747W        W33611   4.568   7.734   4.617
32748W        W33612   5.297  10.187   5.646
32749W        W33613   4.561   7.891   3.614
32750W        W33614   5.453   8.495   5.992
32751W        W33615   6.187   7.356   5.895
32752W        W33616   3.657   9.272   5.889
32753W        W33617   5.367   8.974   3.878
32754W        W33618   4.690   7.390   3.652
32755W        W33619   5.389   8.300   4.650
32756W        W33620   6.118   7.501   6.442
32757W        W33621   4.898   9.709   6.300
32758W        W33622   5.775   9.105   6.964
32759W        W33623   6.207   9.406   6.872
32760W        W33624   5.511   7.561   7.283
32761W        W33625   4.750   8.117   5.514
32762W        W33626   4.216   8.032   5.064
32763W        W33627   3.925  10.631   4.988
32764W        W33628   5.527  10.176   6.800
32765W        W33629   4.865   9.561   4.243
32766W        W33630   6.218   9.074   5.520
32767W        W33631   6.342   8.639   5.816
32768W        W33632   5.705   9.259   5.727
32769W        W33633   6.043   9.739   3.720
32770W        W33634   5.856   7.671   4.976
32771W        W33635   7.082   8.086   4.444
32772W        W33636   3.902  10.636   6.732
32773W        W33637   4.270   9.817   6.084
32774W        W33638   3.640  10.805   4.549
32775W        W33639   5.545   7.985   5.960
32776W        W33640   4.723  10.056   4.066
32777W        W33641   7.117  10.355   4.108
32778W        W33642   5.785   8.765   4.056
32779W        W33643   4.897   8.153   4.592
32780W        W33644   5.510   7.996   3.724
32781W        W33645   5.816   9.743   6.822
32782W        W33646   6.401   7.769   4.330
32783W        W33647   3.792   7.397   3.944
32784W        W33648   5.289   9.981   6.110
32785W        W33649   4.850   9.761   5.415
32786W        W33650   4.708   9.826   3.596
32787W        W33651   3.927  10.337   4.564
32788W        W33652   4.397   9.000   6.778
32789W        W33653   5.036   7.621   7.125
32790W        W33654   5.596   7.678   6.424
32791W        W33655   4.988   7.471   4.856
32792W        W33656   5.952   7.460   3.903
32793W        W33657   3.898   7.557   5.769
32794W        W33658   3.821   8.367   5.185
32795W        W33659   6.665   7.505   5.679
32796W        W33660   4.128   8.016   4.504
32797W        W33661   6.494   7.716   6.121
32798W        W33662   6.946   8.888   3.755
32799W        W33663   4.313   7.835   5.542
32800W        W33664   5.623   8.221   6.447
32801W        W33665   3.651   7.900   3.929
32802W        W33666   4.473   9.411   6.380
32803W        W33667   5.832   8.760   5.716
32804W        W33668   5.598  10.698   3.812
32805W        W33669   3.779   9.493   3.276
32806W        W33670   4.604   9.870   6.741
32807W        W33671   4.101   9.015   6.349
32808W        W33672   5.023   9.238   6.100
32809W        W33673   6.607   7.322   6.451
32810W        W33674   7.270   9.072   6.740
32811W        W33675   7.079   9.011   4.280
32812W        W33676   5.957   9.604   4.293
32813W        W33677   6.547  10.833   3.631
32814W        W33678   5.599   8.687   7.218
32815W        W33679   4.179   9.844   7.066
32816W        W33680   7.274   7.829   7.180
32817W        W33681   6.707   8.755   5.491
32818W        W33682   5.188  10.819   7.292
32819W        W33683   5.073   7.272   4.025
32820W        W33684   6.535   9.938   3.656
32821W        W33685   4.501   8.213   6.756
32822W        W33686   5.033  10.145   6.556
32823W        W33687   6.923   7.833   6.387
32824W        W33688   6.380  10.802   4.119
32825W        W33689   6.474   9.392   5.866
32826W        W33690   4.585   7.892   6.375
32827W        W33691   5.272   8.909   6.904
32828W        W33692   4.562   9.920   4.556
32829W        W33693   6.391   9.317   4.577
32830W        W33694   4.155   8.204   6.357
32831W        W33695   5.431  10.011   4.818
32832W        W33696   7.096   8.659   5.130
32833W        W33697   5.362   7.383   6.788
32834W        W33698   6.360   9.894   5.833
32835W        W33699   6.763  10.398   5.740
32836W        W33700   5.658  10.223   3.616
32837W        W33701   3.727  10.007   6.906
32838W        W33702   4.518   8.256   5.967
32839W        W33703   4.531   7.619   5.124
32840W        W33704   6.066   8.210   5.724
32841W        W33705   5.004   9.329   3.763
32842W        W33706   6.900   9.290   5.601
32843W        W33707   4.282  10.297   6.838
32844W        W33708   6.779  10.805   4.578
32845W        W33709   5.000   7.949   5.061
32846W        W33710   4.415   9.404   5.419
32847W        W33711   4.990  10.998   5.969
32848W        W33712   6.819  10.808   6.972
32849W        W33713   6.115   9.048   6.050
32850W        W33714   4.049   8.627   3.590
32851W        W33715   7.061  10.410   4.768
32852W        W33716   6.755   8.021   4.045
32853W        W33717   4.781   7.411   6.328
32854W        W33718   6.833  10.062   5.085
32855W        W33719   6.615   8.676   4.986
32856W        W33720   5.217   8.430   5.105
32857W        W33721   5.244   8.697   6.428
32858W        W33722   6.221   9.744   6.479
32859W        W33723   4.959   8.251   6.459
32860W        W33724   4.813  10.694   5.149
32861W        W33725   4.298  10.756   7.076
32862W        W33726   4.354  10.272   3.551
32863W        W33727   6.984   9.929   4.614
32864W        W33728   4.508   8.601   6.379
32865W        W33729   7.104   8.350   3.804
32866W        W33730   5.091   9.288   4.633
32867W        W33731   6.175   8.920   6.700
32868W        W33732   5.950   8.525   6.153
32869W        W33733   4.530   9.008   6.026
32870W        W33734   6.588  10.663   6.135
32871W        W33735   6.349   7.611   7.041
32872W        W33736   4.098   7.819   6.712
32873W        W33737   4.632   8.671   5.611
32874W        W33738   4.926   8.243   3.672
32875W        W33739   3.713  10.256   6.439
32876W        W33740   5.289   8.945   5.779
32877W        W33741   5.041   7.753   3.844
32878W        W33742   4.475   8.946   5.183
32879W        W33743   3.891  10.896   6.297
32880W        W33744   6.597   9.086   4.098
32881W        W33745   6.860   7.717   6.884
32882W        W33746   6.322   9.959   4.981
32883W        W33747   3.819   9.002   6.843
32884W        W33748   6.912   7.563   4.248
32885W        W33749   6.481   9.835   4.504
32886W        W33750   5.357   8.689   4.331
32887W        W33751   6.402   7.736   3.763
32888W        W33752   6.412   8.235   6.145
32889W        W33753   3.894   8.907   5.087
32890W        W33754   4.499   9.782   5.057
32891W        W33755   6.213   8.429   4.811
32892W        W33756   5.254   7.982   5.521
32893W        W33757   7.211   9.746   6.183
32894W        W33758   7.045   7.892   5.874
32895W        W33759   3.646  10.554   5.423
32896W        W33760   4.089   9.811   4.735
32897W        W33761   4.154   7.701   7.222
32898W        W33762   5.246  10.324   7.201
32899W        W33763   7.146   9.160   5.172
32900W        W33764   6.423   9.574   4.065
32901W        W33765   5.762  10.922   6.070
32902W        W33766   6.556   9.503   7.243
32903W        W33767   5.367   7.294   4.508
32904W        W33768   6.016   8.122   5.183
32905W        W33769   3.868   9.752   5.749
32906W        W33770   5.018   7.654   4.373
32907W        W33771   4.924   9.441   6.745
32908W        W33772   5.868   8.090   4.663
32909W        W33773   6.014   9.559   6.045
32910W        W33774   4.195  10.464   6.345
32911W        W33775   4.769  10.320   7.022
32912W        W33776   4.676   7.962   4.142
32913W        W33777   6.174   8.415   4.253
32914W        W33778   6.038  10.227   6.650
32915W        W33779   4.995   8.864   5.228
32916W        W33780   4.530  10.789   6.131
32917W        W33781   7.033  10.617   3.631
32918W        W33782   4.089   9.430   6.733
32919W        W33783   6.068   9.570   5.528
32920W        W33784   4.587   9.426   4.680
32921W        W33785   4.969  10.480   6.163
32922W        W33786   5.391   7.582   5.196
32923W        W33787   3.624   9.885   4.547
32924W        W33788   5.356   8.470   3.851
32925W        W33789   4.163   9.348   4.976
32926W        W33790   5.045   7.754   6.613
32927W        W33791   6.861   7.505   3.704
32928W        W33792   7.026   9.397   7.067
32929W        W33793   5.640  10.665   7.140
32930W        W33794   7.172   9.713   6.688
32931W        W33795   6.568  10.360   7.075
32932W        W33796   4.553  10.948   5.649
32933W        W33797   7.208   9.491   4.789
32934W        W33798   5.735   8.518   4.990
32935W        W33799   5.616   7.171   4.989
32936W        W33800   4.775  10.322   4.788
32937W        W33801   5.044   8.157   5.966
32938W        W33802   4.939   7.582   5.439
32939W        W33803   3.730  10.494   4.084
32940W        W33804   5.456   9.485   4.917
32941W        W33805   4.669  10.552   6.580
32942W        W33806   3.865   9.373   4.521
32943W        W33807   3.797   7.894   5.382
32944W        W33808   5.357   9.797   5.313
32945W        W33809   3.744   7.676   4.401
32946W        W33810   6.434   8.720   6.312
32947W        W33811   6.360   8.242   3.785
32948W        W33812   6.876   9.800   5.772
32949W        W33813   5.602  10.273   5.230
32950W        W33814   4.956  10.475   4.292
32951W        W33815   6.017   6.970   3.704
32952W        W33816   4.083  10.726   5.788
32953W        W33817   5.818   8.313   6.976
32954W        W33818   4.076   8.199   7.069
32955W        W33819   3.720   8.495   4.703
32956W        W33820   4.905   8.490   4.150
32957W        W33821   6.147   8.675   7.178
32958W        W33822   4.837   9.155   5.614
32959W        W33823   6.225   7.320   4.979
32960W        W33824   5.305  10.664   5.355
32961W        W33825   6.419  10.177   6.260
32962W        W33826   6.471  10.176   5.407
32963W        W33827   6.223   9.456   5.046
32964W        W33828   5.487   7.642   4.123
32965W        W33829   7.225   7.413   4.967
32966W        W33830   4.929   8.777   3.694
32967W        W33831   6.908   8.220   4.928
32968W        W33832   5.740   9.338   3.878
32969W        W33833   6.670   9.599   6.735
32970W        W33834   6.643  10.387   3.892
32971W        W33835   4.961   8.109   6.991
32972W        W33836   4.916   8.664   6.046
32973W        W33837   6.772  10.098   6.645
32974W        W33838   5.969   7.912   6.712
32975W        W33839   3.725   8.660   6.447
32976W        W33840   5.625   8.961   6.171
32977W        W33841   4.033   9.782   5.247
32978W        W33842   4.144   8.900   5.586
32979W        W33843   6.439   9.264   6.392
32980W        W33844   6.132  10.657   6.985
32981W        W33845   6.153   8.376   6.589
32982W        W33846   6.563  10.485   4.944
32983W        W33847   5.468  10.391   6.342
32984W        W33848   4.894  10.548   5.653
32985W        W33849   6.680   9.728   6.237
32986W        W33850   5.526   9.868   7.250
32987W        W33851   4.379   9.877   5.604
32988W        W33852   6.712   9.582   4.899
32989W        W33853   6.246  10.401   5.814
32990W        W33854   4.433  10.354   5.835
32991W        W33855   5.339   8.403   6.842
32992W        W33856   5.454  10.299   4.360
32993W        W33857   5.078   9.882   6.990
32994W        W33858   5.056   9.999   4.450
32995W        W33859   4.462   8.357   3.394
32996W        W33860   3.692  10.983  10.728
32997W        W33861   4.007   9.825  10.201
32998W        W33862   6.861   9.411   8.060
32999W        W33863   6.989  10.571   9.993
33000W        W33864   4.725  10.638   7.446
33001W        W33865   4.964   8.798   8.564
33002W        W33866   4.585   8.570   8.845
33003W        W33867   5.588   9.058   8.031
33004W        W33868   5.059  10.633  10.351
33005W        W33869   3.672   7.951  10.328
33006W        W33870   4.282   7.166  10.170
33007W        W33871   6.156   7.793   9.101
33008W        W33872   5.874   8.367   7.540
33009W        W33873   6.307   8.193  10.514
33010W        W33874   3.879   7.658   9.946
33011W        W33875   3.827  10.485  10.808
33012W        W33876   5.080   9.975   7.533
33013W        W33877   3.746   8.269   9.390
33014W        W33878   4.666   8.431  10.546
33015W        W33879   7.006   8.199   9.125
33016W        W33880   6.780   9.312   9.797
33017W        W33881   5.299   8.836   8.965
33018W        W33882   5.892  10.115   9.306
33019W        W33883   4.168   9.430   9.543
33020W        W33884   3.402   8.653   9.259
33021W        W33885   4.865   8.834  10.232
33022W        W33886   6.932   8.778  10.433
33023W        W33887   4.511  10.189   9.016
33024W        W33888   5.652  10.010  10.065
33025W        W33889   4.935   8.543   9.267
33026W        W33890   5.185   9.382   9.043
33027W        W33891   6.033  10.342  10.760
33028W        W33892   5.282   9.355  10.768
33029W        W33893   5.321   9.208  10.281
33030W        W33894   3.627   8.308  10.701
33031W        W33895   6.432  10.009  10.452
33032W        W33896   4.097   7.574   8.466
33033W        W33897   4.612  10.001   9.503
33034W        W33898   7.024   9.637   8.940
33035W        W33899   6.442   8.036   9.481
33036W        W33900   6.691   7.956   7.293
33037W        W33901   7.197   8.686   9.699
33038W        W33902   5.284  10.582   9.504
33039W        W33903   7.084   9.876   8.116
33040W        W33904   4.038  10.911   8.037
33041W        W33905   4.451  10.893   8.386
33042W        W33906   4.361   7.524   9.773
33043W        W33907   6.768   8.798   9.926
33044W        W33908   6.317   8.935   8.615
33045W        W33909   6.295   8.657   7.688
33046W        W33910   5.466  10.088   9.585
33047W        W33911   5.446   8.014   8.769
33048W        W33912   5.856  10.377   9.769
33049W        W33913   6.808   9.026   8.416
33050W        W33914   5.426   7.689   8.344
33051W        W33915   4.319  10.478   8.117
33052W        W33916   3.733   7.953   8.523
33053W        W33917   6.338   8.449   9.103
33054W        W33918   3.947  10.227   9.088
33055W        W33919   5.138  10.488   7.698
33056W        W33920   6.645   8.466   7.321
33057W        W33921   3.781  10.254   9.588
33058W        W33922   4.553  10.106  10.023
33059W        W33923   4.819   9.433   8.679
33060W        W33924   4.656   7.817   9.466
33061W        W33925   7.133   7.440   9.346
33062W        W33926   4.509   9.444   7.040
33063W        W33927   4.141   8.174   7.581
33064W        W33928   4.165  10.230   8.617
33065W        W33929   4.817   9.951   8.687
33066W        W33930   6.568  10.505  10.305
33067W        W33931   5.545   8.158   7.907
33068W        W33932   6.819  10.654   8.960
33069W        W33933   6.471   8.612  10.298
33070W        W33934   7.215   9.971   8.603
33071W        W33935   5.835   9.514  10.124
33072W        W33936   3.560   9.050   8.364
33073W        W33937   4.586   9.607   9.823
33074W        W33938   5.820   8.579   8.057
33075W        W33939   5.800   8.938   8.495
33076W        W33940   4.062   8.479   9.761
33077W        W33941   4.120   8.472  10.546
33078W        W33942   4.001   7.385   8.945
33079W        W33943   5.640   7.859   9.204
33080W        W33944   5.350   7.879  10.449
33081W        W33945   5.942   7.854   7.731
33082W        W33946   7.012  10.499  10.580
33083W        W33947   5.987   7.330  10.481
33084W        W33948   6.890   9.998  10.721
33085W        W33949   6.455   7.979  10.053
33086W        W33950   6.226   7.972   8.544
33087W        W33951   6.628   9.024  10.755
33088W        W33952   4.258  10.639   8.919
33089W        W33953   5.042   8.287   7.892
33090W        W33954   4.491   7.640  10.261
33091W        W33955   6.625   8.129   8.255
33092W        W33956   6.957   8.561   8.272
33093W        W33957   4.722  10.624  10.758
33094W        W33958   4.582   7.429   7.908
33095W        W33959   7.025   7.714   8.914
33096W        W33960   7.208  10.133   7.466
33097W        W33961   3.853   9.290   9.158
33098W        W33962   5.918   7.881   7.227
33099W        W33963   7.172  10.112   9.146
33100W        W33964   7.025   7.298   9.859
33101W        W33965   5.644   8.789  10.599
33102W        W33966   5.345  10.078   7.964
33103W        W33967   6.215   9.286  10.954
33104W        W33968   5.787   7.373   9.140
33105W        W33969   4.200   8.325   9.148
33106W        W33970   4.000   9.349  10.025
33107W        W33971   5.867  10.512   8.811
33108W        W33972   6.838   8.288   9.890
33109W        W33973   5.745  10.755  10.195
33110W        W33974   6.962   9.248   7.570
33111W        W33975   5.317   9.189   8.572
33112W        W33976   7.340   7.500  10.258
33113W        W33977   5.390   9.591   9.878
33114W        W33978   5.490   8.385   9.168
33115W        W33979   6.440   8.611   8.196
33116W        W33980   6.732   8.402   7.827
33117W        W33981   6.750  10.232   8.306
33118W        W33982   6.477   9.760   9.015
33119W        W33983   6.134   8.991   8.068
33120W        W33984   5.699   9.203   8.963
33121W        W33985   6.677   8.847   9.011
33122W        W33986   4.141   7.985   9.627
33123W        W33987   6.584   9.131  10.262
33124W        W33988   7.138  10.562   9.441
33125W        W33989   5.003  10.361   8.898
33126W        W33990   6.234  10.691   9.922
33127W        W33991   5.972   8.116   9.926
33128W        W33992   5.251  10.933   9.902
33129W        W33993   6.897   7.690   8.299
33130W        W33994   6.537   8.971   9.502
33131W        W33995   3.675   8.137   9.862
33132W        W33996   6.576   8.031   8.931
33133W        W33997   6.839   8.215  10.398
33134W        W33998   5.855   9.971   8.812
33135W        W33999   5.075  10.704   8.531
33136W        W34000   4.151   7.688   7.739
33137W        W34001   5.279   7.664   9.542
33138W        W34002   4.247  10.812   7.582
33139W        W34003   4.898   9.194   8.233
33140W        W34004   5.432   9.691  10.391
33141W        W34005   5.218   8.159   8.346
33142W        W34006   6.564   7.600   8.670
33143W        W34007   6.271  10.769   9.031
33144W        W34008   5.780  10.621   9.305
33145W        W34009   5.038   9.565   9.513
33146W        W34010   7.012  10.139   9.706
33147W        W34011   4.575   7.742   8.322
33148W        W34012   5.060  10.021   9.265
33149W        W34013   4.533   8.059   7.258
33150W        W34014   5.262   8.584   9.676
33151W        W34015   5.971   7.748   9.573
33152W        W34016   3.746   9.123   9.650
33153W        W34017   5.251   9.029   7.404
33154W        W34018   4.610   7.589   7.421
33155W        W34019   5.549   8.504   8.644
33156W        W34020   6.103   7.562  10.027
33157W        W34021   4.972   9.646  10.169
33158W        W34022   5.772   9.324  10.605
33159W        W34023   6.258   9.494  10.454
33160W        W34024   5.415   7.538  10.842
33161W        W34025   4.658   8.091   9.022
33162W        W34026   4.246   8.023   8.692
33163W        W34027   3.950  10.700   8.510
33164W        W34028   5.569  10.331  10.482
33165W        W34029   4.689   9.737   7.815
33166W        W34030   6.215   9.116   9.107
33167W        W34031   6.099   8.734   9.451
33168W        W34032   5.526   9.370   9.426
33169W        W34033   6.036   9.685   7.300
33170W        W34034   5.835   7.677   8.717
33171W        W34035   7.123   8.103   8.079
33172W        W34036   3.854  10.687  10.321
33173W        W34037   4.147   9.919   9.720
33174W        W34038   3.522  10.821   7.999
33175W        W34039   5.525   8.128   9.629
33176W        W34040   4.692  10.255   7.812
33177W        W34041   7.064  10.350   7.909
33178W        W34042   5.843   8.891   7.619
33179W        W34043   4.703   8.224   8.468
33180W        W34044   5.443   8.164   7.336
33181W        W34045   5.919   9.890  10.491
33182W        W34046   6.383   7.680   8.118
33183W        W34047   3.749   7.392   7.630
33184W        W34048   5.021  10.003   9.801
33185W        W34049   4.717   9.658   9.124
33186W        W34050   4.644   9.890   7.283
33187W        W34051   3.833  10.299   8.199
33188W        W34052   4.459   8.897  10.556
33189W        W34053   5.002   7.479  10.498
33190W        W34054   5.593   7.727   9.959
33191W        W34055   4.980   7.404   8.412
33192W        W34056   5.884   7.400   7.967
33193W        W34057   3.930   7.506   9.457
33194W        W34058   3.743   8.367   8.892
33195W        W34059   6.620   7.598   9.237
33196W        W34060   4.138   7.996   8.158
33197W        W34061   6.568   7.561   9.754
33198W        W34062   7.031   8.734   7.562
33199W        W34063   4.248   7.801   9.163
33200W        W34064   5.515   8.233  10.132
33201W        W34065   3.649   7.913   7.608
33202W        W34066   4.495   9.184  10.111
33203W        W34067   5.614   8.856   9.370
33204W        W34068   5.512  10.860   7.701
33205W        W34069   3.742   9.503   7.109
33206W        W34070   4.497   9.680  10.336
33207W        W34071   4.074   8.859  10.190
33208W        W34072   4.970   9.217   9.893
33209W        W34073   6.668   7.375  10.228
33210W        W34074   7.112   9.200  10.163
33211W        W34075   7.174   9.008   8.002
33212W        W34076   5.962   9.389   7.797
33213W        W34077   6.498  10.782   7.382
33214W        W34078   5.792   9.005  11.032
33215W        W34079   4.177   9.846  10.708
33216W        W34080   7.363   7.799  10.724
33217W        W34081   6.753   8.514   9.436
33218W        W34082   5.207  10.805  10.832
33219W        W34083   5.053   7.419   7.624
33220W        W34084   6.878   9.744   7.636
33221W        W34085   4.327   7.998  10.619
33222W        W34086   5.128  10.117  10.286
33223W        W34087   6.947   7.796  10.050
33224W        W34088   6.626  10.626   7.882
33225W        W34089   6.424   9.463   9.443
33226W        W34090   4.595   8.021   9.946
33227W        W34091   5.144   8.872  10.663
33228W        W34092   4.509  10.012   8.273
33229W        W34093   6.417   9.359   8.298
33230W        W34094   4.125   8.113  10.146
33231W        W34095   5.417  10.295   8.581
33232W        W34096   7.099   8.593   8.795
33233W        W34097   5.488   7.401  10.343
33234W        W34098   6.331   9.959   9.488
33235W        W34099   6.704  10.284   9.318
33236W        W34100   5.610  10.333   7.558
33237W        W34101   3.694   9.993  10.565
33238W        W34102   4.533   8.332   9.542
33239W        W34103   4.519   7.558   8.802
33240W        W34104   5.967   8.244   9.408
33241W        W34105   4.980   9.484   7.303
33242W        W34106   6.886   9.281   9.280
33243W        W34107   4.139  10.273  10.424
33244W        W34108   6.814  10.799   8.339
33245W        W34109   4.967   7.835   8.688
33246W        W34110   4.354   9.299   9.044
33247W        W34111   4.875  10.940   9.544
33248W        W34112   6.701  10.923  10.644
33249W        W34113   5.975   9.211   9.599
33250W        W34114   3.979   8.695   7.226
33251W        W34115   7.124  10.468   8.574
33252W        W34116   6.760   7.886   7.804
33253W        W34117   4.782   7.267  10.076
33254W        W34118   6.770  10.142   8.817
33255W        W34119   6.601   8.474   8.657
33256W        W34120   5.074   8.361   8.811
33257W        W34121   5.363   8.709  10.176
33258W        W34122   6.168   9.921  10.003
33259W        W34123   4.969   8.354  10.086
33260W        W34124   4.761  10.805   8.939
33261W        W34125   4.231  10.839  10.654
33262W        W34126   4.347  10.306   7.371
33263W        W34127   6.766   9.708   8.500
33264W        W34128   4.463   8.529  10.079
33265W        W34129   7.089   8.215   7.489
33266W        W34130   4.966   9.720   8.256
33267W        W34131   5.804   9.006  10.168
33268W        W34132   5.764   8.596   9.815
33269W        W34133   4.252   8.956   9.721
33270W        W34134   6.656  10.732   9.600
33271W        W34135   6.356   7.689  10.477
33272W        W34136   4.019   7.574  10.449
33273W        W34137   4.443   8.782   9.286
33274W        W34138   5.075   8.545   7.272
33275W        W34139   3.682  10.246  10.107
33276W        W34140   5.120   9.026   9.424
33277W        W34141   5.002   7.947   7.513
33278W        W34142   4.479   9.047   8.603
33279W        W34143   3.874  10.851   9.830
33280W        W34144   6.678   8.939   7.898
33281W        W34145   6.882   7.720  10.557
33282W        W34146   6.334   9.977   8.554
33283W        W34147   3.770   8.890  10.609
33284W        W34148   6.851   7.375   7.877
33285W        W34149   6.549   9.822   8.040
33286W        W34150   5.320   8.645   8.205
33287W        W34151   6.388   7.633   7.585
33288W        W34152   6.353   8.439   9.794
33289W        W34153   3.884   8.881   8.817
33290W        W34154   4.360   9.739   8.736
33291W        W34155   6.074   8.485   8.517
33292W        W34156   5.138   7.997   9.173
33293W        W34157   7.148   9.681   9.902
33294W        W34158   6.935   7.890   9.541
33295W        W34159   3.616  10.615   8.924
33296W        W34160   4.013   9.821   8.367
33297W        W34161   4.082   7.577  10.964
33298W        W34162   5.117  10.289  10.765
33299W        W34163   7.104   9.133   8.827
33300W        W34164   6.468   9.372   7.730
33301W        W34165   5.729  10.906   9.712
33302W        W34166   6.645   9.535  10.802
33303W        W34167   5.311   7.238   8.051
33304W        W34168   5.908   8.192   8.896
33305W        W34169   3.749   9.772   9.370
33306W        W34170   5.014   7.764   8.029
33307W        W34171   4.839   9.281  10.493
33308W        W34172   5.751   8.107   8.377
33309W        W34173   5.846   9.730   9.654
33310W        W34174   4.133  10.406   9.939
33311W        W34175   4.651  10.147  10.533
33312W        W34176   4.580   7.959   7.819
33313W        W34177   6.154   8.191   8.061
33314W        W34178   6.054  10.343  10.253
33315W        W34179   4.809   9.024   9.012
33316W        W34180   4.440  10.758   9.758
33317W        W34181   7.014  10.642   7.470
33318W        W34182   4.167   9.323  10.510
33319W        W34183   5.994   9.599   9.189
33320W        W34184   4.451   9.492   8.296
33321W        W34185   4.886  10.510   9.872
33322W        W34186   5.356   7.522   8.863
33323W        W34187   3.646   9.850   7.995
33324W        W34188   5.413   8.605   7.689
33325W        W34189   4.025   9.340   8.624
33326W        W34190   5.044   7.738  10.020
33327W        W34191   6.881   7.513   7.390
33328W        W34192   7.077   9.289  10.665
33329W        W34193   5.720  10.789  10.721
33330W        W34194   7.250   9.731  10.399
33331W        W34195   6.556  10.426  10.816
33332W        W34196   4.397  10.953   9.293
33333W        W34197   7.208   9.445   8.436
33334W        W34198   5.903   8.713   8.963
33335W        W34199   5.597   7.228   8.495
33336W        W34200   4.617  10.450   8.569
33337W        W34201   5.013   8.130   9.641
33338W        W34202   4.922   7.531   9.126
33339W        W34203   3.845  10.520   7.719
33340W        W34204   5.292   9.761   8.689
33341W        W34205   4.526  10.591  10.265
33342W        W34206   3.910   9.380   8.119
33343W        W34207   3.763   7.863   9.046
33344W        W34208   5.509   9.786   9.159
33345W        W34209   3.725   7.671   8.079
33346W        W34210   6.242   8.910   9.936
33347W        W34211   6.334   8.150   7.584
33348W        W34212   6.841   9.778   9.394
33349W        W34213   5.467  10.289   9.090
33350W        W34214   4.826  10.696   8.078
33351W        W34215   5.984   7.392   7.395
33352W        W34216   3.923  10.716   9.323
33353W        W34217   6.061   8.554  10.819
33354W        W34218   3.992   8.081  11.011
33355W        W34219   3.724   8.510   8.402
33356W        W34220   4.662   8.423   7.582
33357W        W34221   6.160   8.969  10.532
33358W        W34222   4.644   9.227   9.474
33359W        W34223   6.157   7.329   8.454
33360W        W34224   5.288  10.773   9.026
33361W        W34225   6.534  10.287   9.844
33362W        W34226   6.286  10.241   9.001
33363W        W34227   6.124   9.461   8.714
33364W        W34228   5.465   7.666   7.789
33365W        W34229   7.159   7.320   8.579
33366W        W34230   4.814   9.024   7.092
33367W        W34231   6.990   8.127   8.605
33368W        W34232   5.649   9.351   7.402
33369W        W34233   6.768   9.599  10.308
33370W        W34234   6.701  10.224   7.549
33371W        W34235   4.841   7.966  10.461
33372W        W34236   4.763   8.767   9.721
33373W        W34237   6.885  10.100  10.214
33374W        W34238   5.880   7.882  10.379
33375W        W34239   3.703   8.492  10.225
33376W        W34240   5.459   9.058   9.811
33377W        W34241   3.839   9.742   8.870
33378W        W34242   3.919   8.757   9.326
33379W        W34243   6.300   9.424   9.942
33380W        W34244   6.190  10.809  10.465
33381W        W34245   5.958   8.510  10.286
33382W        W34246   6.446  10.540   8.604
33383W        W34247   5.390  10.442   9.987
33384W        W34248   4.784  10.475   9.356
33385W        W34249   6.644   9.797   9.861
33386W        W34250   5.523   9.906  10.832
33387W        W34251   4.230   9.810   9.217
33388W        W34252   6.619   9.317   8.811
33389W        W34253   6.244  10.476   9.454
33390W        W34254   4.281  10.378   9.444
33391W        W34255   5.181   8.380  10.543
33392W        W34256   5.380  10.575   8.138
33393W        W34257   5.013   9.788  10.687
33394W        W34258   4.982  10.246   8.280
33395W        W34259   4.473   8.576   7.126
33396W        W34260   3.664  10.941  14.377
33397W        W34261   4.148   9.794  13.932
33398W        W34262   6.950   9.377  11.733
33399W        W34263   7.024  10.644  13.709
33400W        W34264   4.601  10.549  11.268
33401W        W34265   4.734   8.653  12.010
33402W        W34266   4.236   8.391  12.229
33403W        W34267   5.199   9.282  11.649
33404W        W34268   5.158  10.525  14.044
33405W        W34269   3.661   7.997  13.944
33406W        W34270   4.291   7.352  13.791
33407W        W34271   6.219   7.882  12.699
33408W        W34272   5.955   8.621  11.332
33409W        W34273   6.442   8.156  14.279
33410W        W34274   3.914   7.689  13.588
33411W        W34275   3.859  10.498  14.529
33412W        W34276   5.203  10.006  11.208
33413W        W34277   3.819   8.399  12.995
33414W        W34278   4.899   8.577  14.123
33415W        W34279   6.998   8.282  12.722
33416W        W34280   6.982   9.377  13.651
33417W        W34281   5.274   8.642  12.409
33418W        W34282   5.916  10.078  12.991
33419W        W34283   4.292   9.410  13.220
33420W        W34284   3.631   8.879  12.869
33421W        W34285   4.851   8.997  13.771
33422W        W34286   7.052   8.770  14.300
33423W        W34287   4.520  10.190  12.625
33424W        W34288   5.717   9.908  13.699
33425W        W34289   5.015   8.543  12.869
33426W        W34290   5.112   9.387  12.550
33427W        W34291   5.935  10.213  14.436
33428W        W34292   5.362   9.340  14.467
33429W        W34293   5.346   9.147  13.929
33430W        W34294   3.602   8.377  14.268
33431W        W34295   6.389  10.023  14.197
33432W        W34296   4.023   7.517  12.078
33433W        W34297   4.640   9.870  13.202
33434W        W34298   7.092   9.751  12.577
33435W        W34299   6.510   8.249  12.927
33436W        W34300   6.995   8.087  10.976
33437W        W34301   7.269   8.730  13.390
33438W        W34302   5.271  10.457  13.154
33439W        W34303   7.131  10.001  11.582
33440W        W34304   3.997  10.809  11.692
33441W        W34305   4.404  10.826  12.062
33442W        W34306   4.353   7.523  13.306
33443W        W34307   6.965   8.877  13.761
33444W        W34308   6.301   8.959  12.256
33445W        W34309   6.395   8.824  11.151
33446W        W34310   5.485   9.978  13.241
33447W        W34311   5.128   8.144  12.497
33448W        W34312   5.808  10.344  13.448
33449W        W34313   6.789   9.050  12.108
33450W        W34314   5.502   8.032  11.758
33451W        W34315   4.368  10.422  11.734
33452W        W34316   3.690   7.904  12.170
33453W        W34317   6.265   8.593  12.631
33454W        W34318   4.014  10.250  12.723
33455W        W34319   5.099  10.506  11.240
33456W        W34320   6.651   8.490  10.799
33457W        W34321   3.848  10.264  13.231
33458W        W34322   4.591   9.942  13.703
33459W        W34323   5.040   9.057  12.136
33460W        W34324   4.826   7.751  13.268
33461W        W34325   7.195   7.479  12.839
33462W        W34326   4.585   9.560  10.850
33463W        W34327   3.871   8.231  11.483
33464W        W34328   4.189  10.255  12.217
33465W        W34329   4.828   9.820  12.459
33466W        W34330   6.567  10.558  13.940
33467W        W34331   5.560   8.523  11.626
33468W        W34332   6.873  10.689  12.691
33469W        W34333   6.611   8.629  14.075
33470W        W34334   7.400  10.179  12.395
33471W        W34335   5.880   9.414  13.767
33472W        W34336   3.741   8.946  12.342
33473W        W34337   4.780   9.410  13.400
33474W        W34338   5.968   8.764  11.841
33475W        W34339   5.902   9.214  12.071
33476W        W34340   4.127   8.507  13.407
33477W        W34341   4.116   8.566  14.042
33478W        W34342   3.895   7.453  12.579
33479W        W34343   5.725   7.800  13.233
33480W        W34344   5.522   7.856  14.235
33481W        W34345   5.700   8.153  11.269
33482W        W34346   7.042  10.473  14.224
33483W        W34347   5.946   7.410  14.108
33484W        W34348   6.875   9.997  14.397
33485W        W34349   6.496   7.977  13.798
33486W        W34350   6.180   7.929  12.158
33487W        W34351   6.626   9.051  14.602
33488W        W34352   4.290  10.651  12.538
33489W        W34353   5.195   8.281  11.391
33490W        W34354   4.562   7.626  14.170
33491W        W34355   6.609   8.183  11.919
33492W        W34356   6.921   8.617  11.830
33493W        W34357   4.764  10.860  14.095
33494W        W34358   4.496   7.583  11.282
33495W        W34359   7.039   7.822  12.486
33496W        W34360   7.182  10.277  11.064
33497W        W34361   3.905   9.339  12.864
33498W        W34362   6.023   8.015  10.892
33499W        W34363   7.195  10.223  12.869
33500W        W34364   7.060   7.502  13.361
33501W        W34365   5.702   8.725  14.061
33502W        W34366   5.234   9.788  11.666
33503W        W34367   6.145   9.215  14.626
33504W        W34368   6.013   7.463  12.973
33505W        W34369   4.258   8.238  12.764
33506W        W34370   3.910   9.482  13.582
33507W        W34371   5.920  10.482  12.541
33508W        W34372   6.883   8.466  13.201
33509W        W34373   5.665  10.625  13.872
33510W        W34374   6.897   9.227  11.155
33511W        W34375   5.493   8.884  12.000
33512W        W34376   7.190   7.417  13.877
33513W        W34377   5.455   9.507  13.508
33514W        W34378   5.487   8.293  12.873
33515W        W34379   6.402   8.562  11.637
33516W        W34380   6.818   8.540  11.310
33517W        W34381   6.734  10.339  11.849
33518W        W34382   6.579   9.725  12.681
33519W        W34383   6.129   9.110  11.486
33520W        W34384   5.701   9.266  12.565
33521W        W34385   6.642   9.209  12.598
33522W        W34386   4.130   8.005  13.224
33523W        W34387   6.711   9.142  14.104
33524W        W34388   7.141  10.637  13.155
33525W        W34389   5.033  10.283  12.527
33526W        W34390   6.165  10.675  13.642
33527W        W34391   6.003   8.071  13.576
33528W        W34392   5.241  10.797  13.598
33529W        W34393   6.983   7.804  11.983
33530W        W34394   6.830   9.004  13.256
33531W        W34395   3.686   8.142  13.425
33532W        W34396   6.588   8.119  12.438
33533W        W34397   6.845   8.366  13.705
33534W        W34398   5.893   9.930  12.489
33535W        W34399   5.177  10.591  12.149
33536W        W34400   4.030   7.701  11.459
33537W        W34401   5.436   7.382  13.100
33538W        W34402   4.141  10.789  11.175
33539W        W34403   4.708   9.136  11.763
33540W        W34404   5.409   9.648  14.022
33541W        W34405   5.040   7.871  11.983
33542W        W34406   6.579   7.626  12.310
33543W        W34407   6.344  10.730  12.754
33544W        W34408   5.736  10.591  13.005
33545W        W34409   5.173   9.478  13.066
33546W        W34410   6.961  10.231  13.418
33547W        W34411   4.457   7.623  11.808
33548W        W34412   5.063   9.973  12.934
33549W        W34413   4.714   8.004  10.983
33550W        W34414   5.393   8.685  13.209
33551W        W34415   6.267   7.855  13.203
33552W        W34416   3.602   9.222  13.267
33553W        W34417   5.244   9.010  11.169
33554W        W34418   4.552   7.549  10.754
33555W        W34419   5.162   8.377  11.957
33556W        W34420   6.179   7.595  13.651
33557W        W34421   4.890   9.553  13.885
33558W        W34422   5.787   9.209  14.230
33559W        W34423   6.256   9.376  14.128
33560W        W34424   5.534   7.511  14.612
33561W        W34425   4.747   8.077  12.868
33562W        W34426   4.147   7.907  12.392
33563W        W34427   3.907  10.690  12.198
33564W        W34428   5.541  10.166  14.104
33565W        W34429   4.728   9.638  11.579
33566W        W34430   6.165   9.093  12.763
33567W        W34431   6.356   8.734  13.108
33568W        W34432   5.651   9.232  13.100
33569W        W34433   6.412   9.952  10.977
33570W        W34434   5.699   7.809  12.713
33571W        W34435   7.151   8.167  11.652
33572W        W34436   3.878  10.625  14.005
33573W        W34437   4.171   9.888  13.413
33574W        W34438   3.483  10.807  11.676
33575W        W34439   5.575   8.264  13.401
33576W        W34440   4.828  10.151  11.561
33577W        W34441   7.097  10.520  11.527
33578W        W34442   5.623   9.012  11.518
33579W        W34443   4.605   8.147  11.913
33580W        W34444   5.658   8.267  10.649
33581W        W34445   5.916   9.766  14.160
33582W        W34446   6.530   7.691  11.762
33583W        W34447   3.666   7.333  11.286
33584W        W34448   5.067   9.837  13.490
33585W        W34449   4.695   9.513  12.856
33586W        W34450   4.724  10.069  11.043
33587W        W34451   3.820  10.328  11.843
33588W        W34452   4.460   8.950  14.099
33589W        W34453   5.036   7.525  14.391
33590W        W34454   5.664   7.685  13.751
33591W        W34455   4.820   7.434  12.152
33592W        W34456   6.195   7.864  11.364
33593W        W34457   3.885   7.540  13.098
33594W        W34458   3.780   8.337  12.482
33595W        W34459   6.707   7.763  12.860
33596W        W34460   4.107   7.998  11.879
33597W        W34461   6.749   7.968  13.325
33598W        W34462   7.068   8.796  10.930
33599W        W34463   4.324   7.729  12.844
33600W        W34464   5.646   8.237  13.908
33601W        W34465   3.569   7.849  11.281
33602W        W34466   4.403   9.367  13.742
33603W        W34467   5.828   8.741  12.936
33604W        W34468   5.513  10.882  11.237
33605W        W34469   3.733   9.477  10.746
33606W        W34470   4.608   9.942  14.211
33607W        W34471   4.006   8.946  13.678
33608W        W34472   5.188   9.092  13.411
33609W        W34473   6.661   7.458  13.804
33610W        W34474   7.241   9.205  14.052
33611W        W34475   7.174   8.920  11.464
33612W        W34476   5.688   9.492  11.692
33613W        W34477   6.476  11.054  11.116
33614W        W34478   5.746   8.835  14.588
33615W        W34479   4.164   9.848  14.446
33616W        W34480   7.264   7.905  14.474
33617W        W34481   6.746   8.734  12.774
33618W        W34482   5.087  10.768  14.487
33619W        W34483   4.958   7.541  11.076
33620W        W34484   6.891   9.760  11.194
33621W        W34485   4.537   8.162  14.061
33622W        W34486   5.043  10.040  13.976
33623W        W34487   7.001   7.869  13.739
33624W        W34488   6.568  10.691  11.494
33625W        W34489   6.509   9.412  13.116
33626W        W34490   4.528   7.821  13.684
33627W        W34491   5.286   8.843  14.357
33628W        W34492   4.558   9.949  11.974
33629W        W34493   6.414   9.334  11.882
33630W        W34494   4.120   8.134  13.754
33631W        W34495   5.341   9.840  12.413
33632W        W34496   7.138   8.729  12.406
33633W        W34497   5.426   7.358  14.114
33634W        W34498   6.378   9.926  13.143
33635W        W34499   6.687  10.342  13.012
33636W        W34500   5.553  10.398  11.014
33637W        W34501   3.777  10.093  14.197
33638W        W34502   4.578   8.229  13.342
33639W        W34503   4.402   7.455  12.433
33640W        W34504   5.993   8.259  13.056
33641W        W34505   5.018   9.515  11.174
33642W        W34506   7.006   9.383  12.939
33643W        W34507   4.246  10.280  14.121
33644W        W34508   6.771  10.861  11.984
33645W        W34509   4.671   7.901  12.376
33646W        W34510   4.382   9.116  12.784
33647W        W34511   4.962  10.886  13.177
33648W        W34512   6.761  10.924  14.244
33649W        W34513   6.104   9.130  13.327
33650W        W34514   3.898   8.592  11.032
33651W        W34515   7.057  10.515  12.229
33652W        W34516   6.694   8.047  11.414
33653W        W34517   4.799   7.364  13.679
33654W        W34518   6.819  10.178  12.544
33655W        W34519   6.659   8.594  12.283
33656W        W34520   4.677   8.422  12.484
33657W        W34521   5.283   8.644  13.739
33658W        W34522   6.236   9.789  13.742
33659W        W34523   4.942   8.215  13.736
33660W        W34524   4.795  10.749  12.501
33661W        W34525   4.292  10.749  14.316
33662W        W34526   4.310  10.350  10.897
33663W        W34527   7.015   9.999  12.101
33664W        W34528   4.532   8.564  13.742
33665W        W34529   7.327   8.424  11.197
33666W        W34530   4.939   9.558  12.035
33667W        W34531   6.101   8.963  13.844
33668W        W34532   5.975   8.607  13.447
33669W        W34533   4.478   8.962  13.417
33670W        W34534   6.620  10.705  13.373
33671W        W34535   6.388   7.583  14.311
33672W        W34536   4.018   7.649  14.094
33673W        W34537   4.505   8.636  12.995
33674W        W34538   4.942   8.514  10.997
33675W        W34539   3.759  10.051  13.682
33676W        W34540   5.306   8.985  12.803
33677W        W34541   5.234   8.049  10.928
33678W        W34542   4.374   8.899  12.290
33679W        W34543   3.874  10.810  13.506
33680W        W34544   6.659   8.994  11.566
33681W        W34545   6.850   7.762  14.207
33682W        W34546   6.477   9.980  12.217
33683W        W34547   3.712   8.871  14.165
33684W        W34548   7.024   7.671  11.490
33685W        W34549   6.671   9.812  11.742
33686W        W34550   5.110   8.778  11.633
33687W        W34551   6.528   7.915  10.907
33688W        W34552   6.407   8.325  13.421
33689W        W34553   4.084   8.714  12.670
33690W        W34554   4.321   9.777  12.399
33691W        W34555   6.198   8.438  12.147
33692W        W34556   5.228   7.827  12.926
33693W        W34557   7.235   9.806  13.491
33694W        W34558   7.188   7.936  13.075
33695W        W34559   3.615  10.641  12.634
33696W        W34560   3.931   9.833  12.064
33697W        W34561   4.105   7.643  14.595
33698W        W34562   5.205  10.240  14.493
33699W        W34563   7.147   9.235  12.464
33700W        W34564   6.500   9.465  11.371
33701W        W34565   5.734  10.879  13.428
33702W        W34566   6.502   9.605  14.514
33703W        W34567   4.509   7.136  11.546
33704W        W34568   5.894   8.260  12.543
33705W        W34569   3.755   9.761  13.126
33706W        W34570   4.841   7.932  11.487
33707W        W34571   4.930   9.194  14.229
33708W        W34572   5.668   8.394  12.105
33709W        W34573   5.929   9.650  13.308
33710W        W34574   4.174  10.372  13.619
33711W        W34575   4.731  10.419  14.344
33712W        W34576   4.363   8.081  11.401
33713W        W34577   6.003   8.236  11.703
33714W        W34578   6.035  10.254  13.914
33715W        W34579   4.822   8.907  12.562
33716W        W34580   4.499  10.694  13.365
33717W        W34581   6.901  10.715  11.085
33718W        W34582   4.002   9.299  14.067
33719W        W34583   6.096   9.597  12.834
33720W        W34584   4.622   9.342  12.374
33721W        W34585   4.854  10.297  13.402
33722W        W34586   5.223   7.625  12.447
33723W        W34587   3.055   9.676  11.611
33724W        W34588   5.480   8.565  11.045
33725W        W34589   4.080   9.330  12.384
33726W        W34590   5.142   7.716  13.847
33727W        W34591   7.049   7.491  10.991
33728W        W34592   6.986   9.485  14.410
33729W        W34593   5.577  10.633  14.379
33730W        W34594   7.191   9.744  13.998
33731W        W34595   6.569  10.449  14.450
33732W        W34596   4.498  10.923  12.910
33733W        W34597   7.278   9.564  12.098
33734W        W34598   5.830   8.785  12.402
33735W        W34599   4.917   7.461  11.638
33736W        W34600   4.676  10.404  12.162
33737W        W34601   5.097   8.203  13.243
33738W        W34602   4.812   7.559  12.756
33739W        W34603   3.725  10.512  11.328
33740W        W34604   5.423   9.402  12.128
33741W        W34605   4.651  10.441  13.838
33742W        W34606   4.359   9.479  11.959
33743W        W34607   3.790   7.922  12.779
33744W        W34608   5.584   9.687  12.842
33745W        W34609   3.620   7.611  11.740
33746W        W34610   6.496   8.789  13.594
33747W        W34611   6.338   8.317  11.178
33748W        W34612   6.893   9.864  13.058
33749W        W34613   5.494  10.213  12.743
33750W        W34614   4.858  10.634  11.730
33751W        W34615   6.164   7.528  10.937
33752W        W34616   4.038  10.697  13.005
33753W        W34617   5.939   8.339  14.345
33754W        W34618   4.070   8.120  14.291
33755W        W34619   3.767   8.389  11.978
33756W        W34620   4.720   8.452  11.489
33757W        W34621   6.197   8.801  14.320
33758W        W34622   4.839   9.045  13.043
33759W        W34623   6.077   7.471  12.440
33760W        W34624   5.288  10.716  12.698
33761W        W34625   6.446  10.233  13.559
33762W        W34626   6.320  10.187  12.686
33763W        W34627   6.252   9.477  12.361
33764W        W34628   5.330   7.767  11.348
33765W        W34629   7.308   7.445  12.246
33766W        W34630   4.772   9.068  10.962
33767W        W34631   7.032   8.261  12.205
33768W        W34632   5.538   9.448  11.202
33769W        W34633   6.683   9.643  14.013
33770W        W34634   6.724  10.235  11.303
33771W        W34635   5.001   8.019  14.241
33772W        W34636   4.895   8.651  13.379
33773W        W34637   6.834  10.121  13.899
33774W        W34638   6.039   7.914  14.056
33775W        W34639   3.684   8.498  13.790
33776W        W34640   5.661   8.985  13.565
33777W        W34641   3.826   9.763  12.583
33778W        W34642   4.053   8.939  13.147
33779W        W34643   6.464   9.315  13.651
33780W        W34644   6.139  10.679  14.215
33781W        W34645   6.173   8.435  13.897
33782W        W34646   6.527  10.529  12.312
33783W        W34647   5.335  10.277  13.632
33784W        W34648   4.793  10.479  12.935
33785W        W34649   6.701   9.778  13.518
33786W        W34650   5.532   9.823  14.503
33787W        W34651   4.231   9.806  12.899
33788W        W34652   6.769   9.550  12.216
33789W        W34653   6.213  10.457  13.159
33790W        W34654   4.350  10.280  13.115
33791W        W34655   5.407   8.351  14.357
33792W        W34656   5.299  10.347  11.683
33793W        W34657   5.034   9.721  14.384
33794W        W34658   5.051  10.077  12.049
33795W        W34659   4.404   8.419  10.994
33796W        W34660   3.703  10.977  18.096
33797W        W34661   4.099   9.896  17.623
33798W        W34662   6.790   9.525  15.385
33799W        W34663   7.063  10.596  17.318
33800W        W34664   4.730  10.559  14.847
33801W        W34665   4.941   8.716  15.887
33802W        W34666   4.585   8.383  16.058
33803W        W34667   5.447   9.260  15.318
33804W        W34668   5.160  10.596  17.719
33805W        W34669   3.708   8.038  17.636
33806W        W34670   4.450   7.439  17.496
33807W        W34671   6.271   7.733  16.386
33808W        W34672   5.833   8.387  14.833
33809W        W34673   6.334   8.188  17.990
33810W        W34674   3.850   7.743  17.210
33811W        W34675   3.872  10.486  18.170
33812W        W34676   5.279   9.614  14.948
33813W        W34677   3.915   8.475  16.729
33814W        W34678   4.855   8.665  17.879
33815W        W34679   7.041   8.289  16.408
33816W        W34680   6.932   9.426  17.197
33817W        W34681   5.327   8.749  16.216
33818W        W34682   5.944  10.087  16.666
33819W        W34683   4.303   9.441  16.918
33820W        W34684   3.598   8.879  16.638
33821W        W34685   4.815   9.088  17.532
33822W        W34686   6.964   8.795  17.822
33823W        W34687   4.490  10.236  16.351
33824W        W34688   5.680   9.945  17.337
33825W        W34689   5.264   8.442  16.616
33826W        W34690   4.985   9.248  16.251
33827W        W34691   6.016  10.297  18.052
33828W        W34692   5.378   9.388  18.162
33829W        W34693   5.282   9.242  17.664
33830W        W34694   3.485   8.320  18.007
33831W        W34695   6.407  10.062  17.740
33832W        W34696   4.079   7.536  15.756
33833W        W34697   4.618   9.881  16.887
33834W        W34698   6.983   9.688  16.213
33835W        W34699   6.583   8.108  16.657
33836W        W34700   6.753   8.004  14.670
33837W        W34701   7.313   8.717  17.073
33838W        W34702   5.319  10.483  16.826
33839W        W34703   7.046  10.072  15.277
33840W        W34704   4.086  10.925  15.310
33841W        W34705   4.450  10.745  15.664
33842W        W34706   4.586   7.710  16.974
33843W        W34707   6.895   8.592  17.365
33844W        W34708   6.248   9.107  15.967
33845W        W34709   6.227   8.730  14.834
33846W        W34710   5.506   9.854  16.860
33847W        W34711   5.605   8.314  16.227
33848W        W34712   5.802  10.386  17.061
33849W        W34713   6.741   9.140  15.752
33850W        W34714   5.862   7.723  15.523
33851W        W34715   4.340  10.460  15.225
33852W        W34716   3.744   7.899  15.958
33853W        W34717   6.208   8.755  16.361
33854W        W34718   3.959  10.207  16.347
33855W        W34719   5.234  10.531  14.938
33856W        W34720   6.660   8.528  14.582
33857W        W34721   3.813  10.201  16.862
33858W        W34722   4.573   9.971  17.380
33859W        W34723   4.955   9.212  15.736
33860W        W34724   5.114   7.682  17.031
33861W        W34725   7.195   7.492  16.525
33862W        W34726   4.485   9.454  14.247
33863W        W34727   4.017   8.099  14.809
33864W        W34728   4.045  10.177  15.833
33865W        W34729   4.908   9.690  15.941
33866W        W34730   6.595  10.546  17.553
33867W        W34731   5.594   8.285  15.278
33868W        W34732   6.805  10.884  16.176
33869W        W34733   6.484   8.612  17.677
33870W        W34734   7.251  10.121  16.073
33871W        W34735   5.880   9.441  17.375
33872W        W34736   3.217   9.127  15.883
33873W        W34737   4.767   9.459  17.141
33874W        W34738   5.786   8.665  15.586
33875W        W34739   5.861   9.171  15.617
33876W        W34740   4.166   8.522  17.179
33877W        W34741   4.167   8.533  17.706
33878W        W34742   4.014   7.488  16.262
33879W        W34743   5.809   7.668  16.695
33880W        W34744   5.488   7.890  17.921
33881W        W34745   5.947   7.941  15.066
33882W        W34746   7.039  10.458  17.837
33883W        W34747   6.102   7.373  17.671
33884W        W34748   6.863   9.979  18.004
33885W        W34749   6.333   7.898  17.528
33886W        W34750   6.242   7.926  15.876
33887W        W34751   6.529   9.025  17.991
33888W        W34752   4.211  10.600  16.095
33889W        W34753   5.102   8.189  15.175
33890W        W34754   4.534   7.706  17.917
33891W        W34755   6.504   8.311  15.631
33892W        W34756   6.839   8.686  15.532
33893W        W34757   4.722  10.672  18.011
33894W        W34758   4.534   7.404  15.217
33895W        W34759   6.860   7.837  16.273
33896W        W34760   7.160  10.238  14.780
33897W        W34761   3.897   9.385  16.586
33898W        W34762   5.954   7.851  14.557
33899W        W34763   7.128  10.243  16.542
33900W        W34764   6.914   7.451  16.989
33901W        W34765   5.690   8.720  17.772
33902W        W34766   5.494   9.870  15.412
33903W        W34767   6.150   9.270  18.236
33904W        W34768   4.310   8.260  16.467
33905W        W34769   3.927   9.485  17.345
33906W        W34770   5.644  10.485  16.038
33907W        W34771   6.929   8.432  16.883
33908W        W34772   5.672  10.725  17.432
33909W        W34773   6.930   9.331  14.915
33910W        W34774   5.406   8.981  15.773
33911W        W34775   7.116   7.365  17.456
33912W        W34776   5.398   9.512  17.241
33913W        W34777   5.740   8.325  16.762
33914W        W34778   6.302   8.810  15.546
33915W        W34779   6.599   8.496  15.111
33916W        W34780   6.701  10.398  15.486
33917W        W34781   6.268   9.795  16.335
33918W        W34782   6.102   9.110  15.152
33919W        W34783   5.515   9.235  16.279
33920W        W34784   6.633   9.156  16.293
33921W        W34785   4.160   8.048  16.913
33922W        W34786   6.674   9.085  17.504
33923W        W34787   7.141  10.686  16.803
33924W        W34788   4.983  10.172  16.180
33925W        W34789   6.179  10.734  17.303
33926W        W34790   6.067   8.102  17.108
33927W        W34791   5.263  10.910  17.153
33928W        W34792   6.793   7.809  15.657
33929W        W34793   6.866   8.957  17.005
33930W        W34794   3.720   8.245  17.165
33931W        W34795   6.536   8.240  16.171
33932W        W34796   6.760   8.184  17.677
33933W        W34797   5.885  10.035  16.109
33934W        W34798   5.144  10.576  15.824
33935W        W34799   4.070   7.674  15.118
33936W        W34800   5.350   7.345  16.716
33937W        W34801   4.224  10.784  14.832
33938W        W34802   4.942   9.172  15.212
33939W        W34803   5.398   9.736  17.720
33940W        W34804   5.364   7.914  15.584
33941W        W34805   6.555   7.518  16.008
33942W        W34806   6.292  10.876  16.328
33943W        W34807   5.757  10.562  16.558
33944W        W34808   5.104   9.503  16.764
33945W        W34809   6.869  10.267  16.980
33946W        W34810   4.540   7.748  15.625
33947W        W34811   5.059  10.036  16.685
33948W        W34812   4.518   7.998  14.550
33949W        W34813   5.424   8.670  17.032
33950W        W34814   6.224   7.379  16.784
33951W        W34815   3.641   9.243  17.003
33952W        W34816   5.275   9.015  14.861
33953W        W34817   4.606   7.506  14.687
33954W        W34818   5.357   8.432  15.760
33955W        W34819   6.037   7.588  17.205
33956W        W34820   4.911   9.596  17.606
33957W        W34821   5.766   9.245  17.838
33958W        W34822   6.250   9.411  17.727
33959W        W34823   5.606   7.573  18.313
33960W        W34824   4.816   8.125  16.609
33961W        W34825   4.246   7.951  16.042
33962W        W34826   3.768  10.609  15.605
33963W        W34827   5.540  10.233  17.788
33964W        W34828   4.730   9.674  15.070
33965W        W34829   6.048   9.247  16.463
33966W        W34830   6.433   9.015  16.745
33967W        W34831   5.584   9.308  16.801
33968W        W34832   6.009   9.712  14.691
33969W        W34833   5.790   7.825  16.153
33970W        W34834   6.952   8.197  15.355
33971W        W34835   3.906  10.642  17.653
33972W        W34836   4.131   9.890  17.105
33973W        W34837   3.344  10.646  15.281
33974W        W34838   5.580   7.941  17.065
33975W        W34839   5.065  10.068  15.132
33976W        W34840   7.075  10.599  15.175
33977W        W34841   5.708   8.810  15.099
33978W        W34842   4.911   8.139  15.686
33979W        W34843   5.483   8.019  14.757
33980W        W34844   5.913   9.828  17.800
33981W        W34845   6.364   7.552  15.512
33982W        W34846   3.717   7.342  14.927
33983W        W34847   5.069   9.885  17.186
33984W        W34848   4.745   9.713  16.426
33985W        W34849   4.772  10.043  14.702
33986W        W34850   3.490  10.185  15.454
33987W        W34851   4.422   8.969  17.826
33988W        W34852   5.139   7.486  18.029
33989W        W34853   5.545   7.504  17.329
33990W        W34854   4.957   7.463  15.800
33991W        W34855   6.014   7.424  15.126
33992W        W34856   4.049   7.555  16.779
33993W        W34857   3.910   8.367  16.155
33994W        W34858   6.676   7.427  16.535
33995W        W34859   4.054   7.991  15.533
33996W        W34860   6.488   7.757  17.017
33997W        W34861   6.974   8.813  14.909
33998W        W34862   4.416   7.767  16.497
33999W        W34863   5.531   8.341  17.424
34000W        W34864   3.566   7.840  15.006
34001W        W34865   4.410   9.445  17.518
34002W        W34866   5.717   8.826  16.596
34003W        W34867   5.567  10.929  15.033
34004W        W34868   3.432   9.007  14.598
34005W        W34869   4.564   9.870  17.870
34006W        W34870   4.089   8.991  17.410
34007W        W34871   5.135   9.099  17.135
34008W        W34872   6.585   7.434  17.430
34009W        W34873   7.196   9.053  17.443
34010W        W34874   7.103   9.105  15.368
34011W        W34875   5.901   9.574  15.250
34012W        W34876   6.426  10.935  14.636
34013W        W34877   5.741   8.956  18.269
34014W        W34878   4.138   9.940  18.157
34015W        W34879   7.306   7.869  18.118
34016W        W34880   6.695   8.655  16.487
34017W        W34881   5.222  10.756  18.206
34018W        W34882   5.098   7.384  14.905
34019W        W34883   6.811   9.823  14.889
34020W        W34884   4.567   8.226  17.790
34021W        W34885   5.004  10.101  17.663
34022W        W34886   6.910   7.877  17.288
34023W        W34887   6.586  10.807  15.120
34024W        W34888   6.474   9.520  16.708
34025W        W34889   4.735   7.869  17.445
34026W        W34890   5.279   8.897  18.039
34027W        W34891   4.573   9.817  15.562
34028W        W34892   6.322   9.383  15.529
34029W        W34893   4.217   8.061  17.439
34030W        W34894   5.413  10.014  15.923
34031W        W34895   7.087   8.702  16.090
34032W        W34896   5.613   7.400  17.827
34033W        W34897   6.453  10.103  16.707
34034W        W34898   6.689  10.549  16.550
34035W        W34899   5.539  10.101  14.932
34036W        W34900   3.692  10.077  17.893
34037W        W34901   4.611   8.238  17.092
34038W        W34902   4.489   7.482  16.077
34039W        W34903   6.261   8.490  16.795
34040W        W34904   4.897   9.346  14.714
34041W        W34905   6.963   9.337  16.652
34042W        W34906   4.283  10.339  17.858
34043W        W34907   6.738  10.899  15.628
34044W        W34908   4.761   7.896  16.123
34045W        W34909   4.353   9.388  16.365
34046W        W34910   4.734  10.842  16.996
34047W        W34911   6.751  10.877  17.903
34048W        W34912   5.998   9.080  16.994
34049W        W34913   3.962   8.574  14.557
34050W        W34914   7.013  10.521  15.876
34051W        W34915   6.458   7.995  15.234
34052W        W34916   5.022   7.438  17.502
34053W        W34917   6.716  10.137  16.231
34054W        W34918   6.587   8.712  15.984
34055W        W34919   5.088   8.279  16.170
34056W        W34920   5.220   8.754  17.519
34057W        W34921   6.185   9.833  17.351
34058W        W34922   4.982   8.315  17.505
34059W        W34923   4.748  10.654  16.133
34060W        W34924   4.232  10.847  17.995
34061W        W34925   4.324  10.309  14.642
34062W        W34926   6.869   9.944  15.751
34063W        W34927   4.593   8.627  17.440
34064W        W34928   7.119   8.334  14.773
34065W        W34929   5.064   9.618  15.447
34066W        W34930   6.104   8.952  17.549
34067W        W34931   5.915   8.607  17.176
34068W        W34932   4.516   9.012  17.127
34069W        W34933   6.642  10.732  17.042
34070W        W34934   6.473   7.615  17.940
34071W        W34935   4.028   7.646  17.719
34072W        W34936   4.442   8.650  16.757
34073W        W34937   4.927   8.351  14.616
34074W        W34938   3.686  10.186  17.382
34075W        W34939   5.207   8.979  16.650
34076W        W34940   4.986   7.866  14.779
34077W        W34941   4.540   8.953  16.159
34078W        W34942   3.752  10.658  17.148
34079W        W34943   6.608   9.041  15.202
34080W        W34944   6.944   7.714  17.782
34081W        W34945   6.360  10.048  15.862
34082W        W34946   3.897   8.952  17.884
34083W        W34947   6.765   7.583  15.174
34084W        W34948   6.511   9.940  15.329
34085W        W34949   5.277   8.732  15.346
34086W        W34950   6.375   7.677  14.832
34087W        W34951   6.546   8.255  17.196
34088W        W34952   4.064   8.834  16.376
34089W        W34953   4.399   9.838  16.060
34090W        W34954   6.130   8.484  15.935
34091W        W34955   5.339   7.926  16.601
34092W        W34956   7.181   9.864  17.123
34093W        W34957   7.054   7.918  16.786
34094W        W34958   3.697  10.606  16.130
34095W        W34959   4.052   9.659  15.686
34096W        W34960   4.135   7.648  18.254
34097W        W34961   5.138  10.262  18.135
34098W        W34962   7.136   9.198  16.187
34099W        W34963   6.412   9.496  15.013
34100W        W34964   5.835  10.913  16.950
34101W        W34965   6.591   9.528  18.094
34102W        W34966   5.250   7.281  15.383
34103W        W34967   6.081   8.214  16.389
34104W        W34968   3.609   9.821  16.551
34105W        W34969   4.965   7.705  15.310
34106W        W34970   4.873   9.256  18.018
34107W        W34971   5.791   8.165  15.751
34108W        W34972   6.001   9.618  16.901
34109W        W34973   4.190  10.355  17.329
34110W        W34974   4.639  10.221  18.225
34111W        W34975   4.541   7.900  15.064
34112W        W34976   6.111   8.403  15.273
34113W        W34977   5.996  10.313  17.541
34114W        W34978   4.845   8.660  16.437
34115W        W34979   4.222  10.772  17.008
34116W        W34980   6.948  10.713  14.693
34117W        W34981   3.850   9.481  17.865
34118W        W34982   5.749   9.668  16.445
34119W        W34983   4.477   9.378  15.859
34120W        W34984   4.839  10.328  17.088
34121W        W34985   5.266   7.785  16.108
34122W        W34986   3.546   9.681  15.362
34123W        W34987   5.349   8.519  14.850
34124W        W34988   3.962   9.225  16.037
34125W        W34989   5.261   7.899  17.473
34126W        W34990   6.946   7.539  14.686
34127W        W34991   6.992   9.304  17.859
34128W        W34992   5.666  10.714  17.945
34129W        W34993   7.184   9.739  17.639
34130W        W34994   6.567  10.414  18.066
34131W        W34995   4.419  10.768  16.536
34132W        W34996   7.137   9.476  15.759
34133W        W34997   5.806   8.865  16.069
34134W        W34998   5.506   7.460  15.795
34135W        W34999   4.571  10.274  15.832
34136W        W35000   5.138   8.197  17.040
34137W        W35001   4.927   7.587  16.516
34138W        W35002   3.806  10.551  15.062
34139W        W35003   5.415   9.498  15.826
34140W        W35004   4.660  10.486  17.535
34141W        W35005   3.576   9.172  15.510
34142W        W35006   3.868   7.952  16.475
34143W        W35007   5.257   9.701  16.314
34144W        W35008   3.642   7.611  15.485
34145W        W35009   6.418   8.767  17.191
34146W        W35010   6.296   8.205  14.778
34147W        W35011   6.878   9.835  16.683
34148W        W35012   5.479  10.156  16.422
34149W        W35013   4.854  10.495  15.373
34150W        W35014   6.037   7.335  14.618
34151W        W35015   3.891  10.639  16.618
34152W        W35016   5.793   8.299  18.075
34153W        W35017   4.105   8.091  17.968
34154W        W35018   3.434   8.690  15.636
34155W        W35019   4.881   8.659  15.041
34156W        W35020   6.141   8.686  18.058
34157W        W35021   4.705   9.141  16.674
34158W        W35022   6.046   7.434  15.908
34159W        W35023   5.248  10.626  16.329
34160W        W35024   6.381  10.274  17.185
34161W        W35025   6.224  10.353  16.320
34162W        W35026   5.948   9.523  15.991
34163W        W35027   5.495   7.665  15.133
34164W        W35028   7.136   7.521  15.966
34165W        W35029   4.818   8.852  14.575
34166W        W35030   6.950   8.248  15.891
34167W        W35031   5.701   9.302  14.856
34168W        W35032   6.678   9.637  17.591
34169W        W35033   6.682  10.321  14.958
34170W        W35034   4.984   7.971  17.914
34171W        W35035   4.904   8.664  16.986
34172W        W35036   6.856  10.115  17.478
34173W        W35037   5.805   7.906  17.527
34174W        W35038   3.681   8.567  17.597
34175W        W35039   5.620   9.017  17.344
34176W        W35040   3.921   9.716  16.175
34177W        W35041   4.073   8.983  16.868
34178W        W35042   6.380   9.362  17.198
34179W        W35043   6.203  10.740  17.835
34180W        W35044   6.041   8.359  17.604
34181W        W35045   6.488  10.561  15.938
34182W        W35046   5.330  10.329  17.313
34183W        W35047   4.842  10.493  16.612
34184W        W35048   6.628   9.824  17.115
34185W        W35049   5.525   9.895  18.198
34186W        W35050   4.205   9.837  16.587
34187W        W35051   6.548   9.568  15.959
34188W        W35052   6.216  10.575  16.790
34189W        W35053   4.330  10.309  16.826
34190W        W35054   5.306   8.384  17.907
34191W        W35055   5.386  10.390  15.413
34192W        W35056   5.017   9.761  18.094
34193W        W35057   5.011  10.095  15.642
34194W        W35058   4.462   8.508  14.423
34195W        W35059   3.813  10.907  21.682
34196W        W35060   4.144   9.745  21.136
34197W        W35061   6.914   9.485  18.940
34198W        W35062   7.182  10.474  20.885
34199W        W35063   4.636  10.643  18.531
34200W        W35064   4.985   8.762  19.405
34201W        W35065   4.565   8.600  19.857
34202W        W35066   5.436   9.351  19.124
34203W        W35067   5.138  10.575  21.278
34204W        W35068   3.724   8.073  21.289
34205W        W35069   4.273   7.293  21.166
34206W        W35070   6.225   7.733  19.918
34207W        W35071   5.945   8.551  18.540
34208W        W35072   6.333   8.161  21.516
34209W        W35073   3.854   7.732  20.884
34210W        W35074   3.991  10.409  21.773
34211W        W35075   5.145   9.956  18.567
34212W        W35076   3.726   8.407  20.316
34213W        W35077   4.797   8.524  21.510
34214W        W35078   7.035   8.337  20.030
34215W        W35079   6.854   9.295  20.822
34216W        W35080   5.363   8.746  19.947
34217W        W35081   5.881  10.077  20.174
34218W        W35082   4.244   9.429  20.322
34219W        W35083   3.513   8.899  20.187
34220W        W35084   4.786   8.928  21.200
34221W        W35085   6.912   8.730  21.458
34222W        W35086   4.556  10.321  19.950
34223W        W35087   5.634   9.919  20.945
34224W        W35088   4.963   8.565  20.222
34225W        W35089   5.246   9.417  19.973
34226W        W35090   6.017  10.216  21.649
34227W        W35091   5.315   9.327  21.737
34228W        W35092   5.253   9.174  21.221
34229W        W35093   3.574   8.384  21.676
34230W        W35094   6.394   9.939  21.374
34231W        W35095   4.069   7.525  19.362
34232W        W35096   4.760  10.032  20.497
34233W        W35097   6.999   9.733  19.829
34234W        W35098   6.549   8.024  20.301
34235W        W35099   6.786   8.036  18.185
34236W        W35100   7.279   8.763  20.696
34237W        W35101   5.530  10.625  20.468
34238W        W35102   7.081   9.985  18.925
34239W        W35103   4.054  10.808  18.997
34240W        W35104   4.433  10.777  19.370
34241W        W35105   4.318   7.581  20.692
34242W        W35106   6.848   8.677  20.950
34243W        W35107   6.301   9.049  19.548
34244W        W35108   6.390   8.863  18.494
34245W        W35109   5.527   9.811  20.444
34246W        W35110   5.461   8.131  19.713
34247W        W35111   5.865  10.254  20.641
34248W        W35112   6.795   9.115  19.417
34249W        W35113   5.874   7.665  19.135
34250W        W35114   4.349  10.372  19.051
34251W        W35115   3.705   7.908  19.478
34252W        W35116   6.108   8.707  19.880
34253W        W35117   4.036  10.297  20.043
34254W        W35118   5.145  10.492  18.647
34255W        W35119   6.677   8.547  18.161
34256W        W35120   3.808  10.282  20.525
34257W        W35121   4.530  10.054  20.954
34258W        W35122   4.969   9.412  19.463
34259W        W35123   4.756   7.772  20.471
34260W        W35124   7.132   7.426  20.094
34261W        W35125   4.354   9.439  18.041
34262W        W35126   3.972   8.085  18.485
34263W        W35127   4.221  10.304  19.554
34264W        W35128   5.059   9.914  19.529
34265W        W35129   6.768  10.599  21.160
34266W        W35130   5.593   8.267  18.817
34267W        W35131   6.782  10.802  19.774
34268W        W35132   6.429   8.609  21.234
34269W        W35133   7.265  10.099  19.592
34270W        W35134   5.823   9.447  21.003
34271W        W35135   3.533   9.077  19.299
34272W        W35136   4.571   9.577  20.703
34273W        W35137   5.879   8.634  19.049
34274W        W35138   5.819   9.078  19.349
34275W        W35139   4.090   8.530  20.681
34276W        W35140   4.067   8.478  21.379
34277W        W35141   3.996   7.412  19.904
34278W        W35142   5.747   7.860  20.130
34279W        W35143   5.476   7.878  21.472
34280W        W35144   5.905   7.998  18.478
34281W        W35145   7.105  10.440  21.509
34282W        W35146   5.900   7.445  21.343
34283W        W35147   6.857  10.003  21.616
34284W        W35148   6.442   8.010  21.029
34285W        W35149   6.216   7.937  19.416
34286W        W35150   6.523   9.077  21.808
34287W        W35151   4.246  10.731  19.856
34288W        W35152   5.105   8.085  18.806
34289W        W35153   4.600   7.635  21.474
34290W        W35154   6.595   8.175  19.172
34291W        W35155   6.868   8.640  19.198
34292W        W35156   4.812  10.743  21.630
34293W        W35157   4.486   7.292  18.864
34294W        W35158   6.929   7.857  19.916
34295W        W35159   7.203  10.148  18.433
34296W        W35160   3.770   9.343  20.124
34297W        W35161   5.991   7.815  17.991
34298W        W35162   7.080  10.187  20.097
34299W        W35163   7.112   7.447  20.735
34300W        W35164   5.617   8.799  21.344
34301W        W35165   5.512   9.877  19.138
34302W        W35166   6.022   9.231  21.943
34303W        W35167   5.791   7.382  19.959
34304W        W35168   4.194   8.284  20.101
34305W        W35169   4.068   9.369  20.805
34306W        W35170   5.924  10.551  19.645
34307W        W35171   6.938   8.377  20.531
34308W        W35172   5.779  10.802  21.002
34309W        W35173   6.820   9.174  18.397
34310W        W35174   5.346   9.085  19.562
34311W        W35175   7.258   7.455  21.236
34312W        W35176   5.354   9.479  20.811
34313W        W35177   5.585   8.343  20.168
34314W        W35178   6.384   8.583  18.939
34315W        W35179   6.813   8.555  18.666
34316W        W35180   6.740  10.321  19.155
34317W        W35181   6.274   9.779  20.013
34318W        W35182   6.217   9.060  19.024
34319W        W35183   5.749   9.106  19.863
34320W        W35184   6.677   9.012  19.963
34321W        W35185   4.033   8.023  20.505
34322W        W35186   6.617   9.092  21.267
34323W        W35187   7.149  10.631  20.386
34324W        W35188   5.075  10.348  19.855
34325W        W35189   6.187  10.637  20.757
34326W        W35190   5.990   8.135  20.747
34327W        W35191   5.294  10.886  20.847
34328W        W35192   6.945   7.772  19.168
34329W        W35193   6.804   8.898  20.465
34330W        W35194   3.681   8.233  20.803
34331W        W35195   6.507   8.149  19.784
34332W        W35196   6.825   8.261  21.298
34333W        W35197   5.874   9.989  19.674
34334W        W35198   5.141  10.634  19.427
34335W        W35199   4.075   7.623  18.778
34336W        W35200   5.415   7.497  20.337
34337W        W35201   4.142  10.836  18.497
34338W        W35202   4.995   9.132  18.981
34339W        W35203   5.414   9.645  21.304
34340W        W35204   5.382   7.790  19.298
34341W        W35205   6.619   7.672  19.562
34342W        W35206   6.269  10.877  19.887
34343W        W35207   6.021  10.579  20.254
34344W        W35208   5.026   9.569  20.421
34345W        W35209   6.867  10.207  20.580
34346W        W35210   4.569   7.629  19.267
34347W        W35211   5.232  10.220  20.350
34348W        W35212   4.501   8.049  18.295
34349W        W35213   5.426   8.543  20.617
34350W        W35214   6.112   7.503  20.372
34351W        W35215   3.600   9.256  20.619
34352W        W35216   5.315   9.038  18.569
34353W        W35217   4.610   7.407  18.347
34354W        W35218   5.299   8.358  19.255
34355W        W35219   6.117   7.617  20.882
34356W        W35220   4.923   9.599  21.123
34357W        W35221   5.751   9.277  21.487
34358W        W35222   6.245   9.390  21.464
34359W        W35223   5.557   7.539  21.858
34360W        W35224   4.688   8.148  20.124
34361W        W35225   4.185   7.913  19.699
34362W        W35226   3.912  10.705  19.477
34363W        W35227   5.486  10.165  21.399
34364W        W35228   4.592   9.479  18.894
34365W        W35229   6.201   9.263  20.038
34366W        W35230   6.285   8.860  20.338
34367W        W35231   5.585   9.304  20.378
34368W        W35232   6.380   9.960  18.257
34369W        W35233   5.797   7.761  19.625
34370W        W35234   7.090   8.226  18.981
34371W        W35235   3.889  10.623  21.277
34372W        W35236   4.137   9.885  20.636
34373W        W35237   3.549  10.745  19.101
34374W        W35238   5.511   7.994  20.571
34375W        W35239   4.712  10.174  18.736
34376W        W35240   7.071  10.489  18.798
34377W        W35241   5.768   9.087  18.791
34378W        W35242   4.912   8.020  19.277
34379W        W35243   5.396   8.054  18.380
34380W        W35244   5.900   9.794  21.375
34381W        W35245   6.421   7.685  19.011
34382W        W35246   3.684   7.371  18.565
34383W        W35247   5.151   9.950  20.801
34384W        W35248   4.911   9.906  20.033
34385W        W35249   4.593   9.752  18.414
34386W        W35250   3.836  10.288  19.189
34387W        W35251   4.336   8.915  21.454
34388W        W35252   5.067   7.547  21.708
34389W        W35253   5.579   7.663  20.982
34390W        W35254   5.030   7.427  19.449
34391W        W35255   6.025   7.529  18.671
34392W        W35256   3.905   7.531  20.412
34393W        W35257   3.769   8.322  19.790
34394W        W35258   6.627   7.510  20.180
34395W        W35259   3.861   8.033  19.004
34396W        W35260   6.599   7.638  20.672
34397W        W35261   7.142   8.768  18.304
34398W        W35262   4.319   7.768  20.174
34399W        W35263   5.496   8.210  21.046
34400W        W35264   3.519   7.857  18.642
34401W        W35265   4.467   9.339  21.156
34402W        W35266   5.757   8.820  20.295
34403W        W35267   5.568  10.877  18.587
34404W        W35268   3.625   9.155  18.273
34405W        W35269   4.563   9.828  21.433
34406W        W35270   3.997   8.895  21.036
34407W        W35271   4.928   9.196  20.798
34408W        W35272   6.731   7.447  21.133
34409W        W35273   7.198   9.037  21.124
34410W        W35274   7.193   9.080  18.746
34411W        W35275   5.932   9.513  19.080
34412W        W35276   6.440  10.845  18.309
34413W        W35277   5.632   8.891  21.845
34414W        W35278   4.153   9.904  21.760
34415W        W35279   7.342   7.663  21.709
34416W        W35280   6.584   8.518  20.146
34417W        W35281   5.313  10.708  21.745
34418W        W35282   5.178   7.368  18.547
34419W        W35283   6.848   9.740  18.487
34420W        W35284   4.467   8.139  21.410
34421W        W35285   4.961  10.105  21.251
34422W        W35286   6.960   7.886  20.961
34423W        W35287   6.606  10.724  18.785
34424W        W35288   6.487   9.357  20.457
34425W        W35289   4.611   7.855  20.996
34426W        W35290   5.168   8.858  21.609
34427W        W35291   4.626   9.916  19.175
34428W        W35292   6.458   9.471  19.223
34429W        W35293   4.161   8.130  20.996
34430W        W35294   5.463  10.248  19.510
34431W        W35295   7.082   8.733  19.689
34432W        W35296   5.394   7.352  21.381
34433W        W35297   6.340  10.144  20.442
34434W        W35298   6.652  10.510  20.185
34435W        W35299   5.583  10.398  18.352
34436W        W35300   3.741   9.828  21.454
34437W        W35301   4.513   8.230  20.615
34438W        W35302   4.495   7.486  19.764
34439W        W35303   6.097   8.367  20.288
34440W        W35304   4.985   9.433  18.521
34441W        W35305   6.954   9.365  20.224
34442W        W35306   4.172  10.201  21.339
34443W        W35307   6.786  10.883  19.252
34444W        W35308   4.877   7.842  19.748
34445W        W35309   4.674   9.472  19.933
34446W        W35310   4.926  10.996  20.529
34447W        W35311   6.822  10.885  21.572
34448W        W35312   6.015   9.174  20.619
34449W        W35313   3.913   8.526  18.180
34450W        W35314   7.097  10.546  19.459
34451W        W35315   6.740   7.983  18.705
34452W        W35316   4.786   7.334  21.056
34453W        W35317   6.757  10.231  19.703
34454W        W35318   6.594   8.630  19.634
34455W        W35319   5.014   8.359  19.745
34456W        W35320   5.210   8.670  21.075
34457W        W35321   6.135   9.882  20.918
34458W        W35322   4.933   8.240  21.109
34459W        W35323   4.772  10.762  19.786
34460W        W35324   4.307  10.783  21.581
34461W        W35325   4.230  10.316  18.530
34462W        W35326   6.830   9.842  19.355
34463W        W35327   4.476   8.540  21.059
34464W        W35328   7.178   8.252  18.465
34465W        W35329   5.055   9.676  19.001
34466W        W35330   6.045   9.000  21.129
34467W        W35331   5.974   8.662  20.730
34468W        W35332   4.434   8.992  20.773
34469W        W35333   6.694  10.683  20.669
34470W        W35334   6.361   7.643  21.443
34471W        W35335   4.112   7.747  21.337
34472W        W35336   4.448   8.687  20.345
34473W        W35337   4.954   8.337  18.298
34474W        W35338   3.761  10.115  21.016
34475W        W35339   5.196   8.983  20.404
34476W        W35340   4.948   7.802  18.400
34477W        W35341   4.350   9.080  19.955
34478W        W35342   3.828  10.840  20.809
34479W        W35343   6.704   9.017  18.895
34480W        W35344   6.882   7.790  21.485
34481W        W35345   6.360   9.929  19.515
34482W        W35346   3.779   8.890  21.548
34483W        W35347   6.824   7.458  18.754
34484W        W35348   6.561   9.879  18.908
34485W        W35349   5.419   8.840  19.104
34486W        W35350   6.380   7.776  18.407
34487W        W35351   6.444   8.433  20.682
34488W        W35352   3.972   8.743  20.002
34489W        W35353   4.533   9.895  19.670
34490W        W35354   6.187   8.453  19.406
34491W        W35355   5.189   7.984  20.151
34492W        W35356   7.113   9.755  20.676
34493W        W35357   7.045   7.863  20.429
34494W        W35358   3.692  10.676  19.939
34495W        W35359   4.108   9.847  19.347
34496W        W35360   4.158   7.550  21.807
34497W        W35361   5.031  10.272  21.743
34498W        W35362   7.165   9.238  19.768
34499W        W35363   6.444   9.412  18.672
34500W        W35364   5.841  11.017  20.516
34501W        W35365   6.622   9.577  21.761
34502W        W35366   5.364   7.272  19.033
34503W        W35367   5.972   8.209  19.806
34504W        W35368   3.856   9.846  20.191
34505W        W35369   4.985   7.601  18.958
34506W        W35370   4.822   9.299  21.557
34507W        W35371   5.768   8.162  19.297
34508W        W35372   6.043   9.665  20.469
34509W        W35373   4.154  10.432  20.885
34510W        W35374   4.516  10.315  21.695
34511W        W35375   4.560   7.797  18.746
34512W        W35376   6.124   8.128  18.928
34513W        W35377   5.960  10.318  21.145
34514W        W35378   4.915   9.002  19.890
34515W        W35379   4.529  10.725  20.708
34516W        W35380   6.959  10.647  18.328
34517W        W35381   3.905   9.328  21.309
34518W        W35382   5.785   9.596  20.019
34519W        W35383   4.444   9.444  19.429
34520W        W35384   4.943  10.435  20.812
34521W        W35385   5.350   7.628  19.814
34522W        W35386   3.654   9.800  19.060
34523W        W35387   5.440   8.557  18.391
34524W        W35388   3.899   9.134  19.665
34525W        W35389   5.084   7.733  21.182
34526W        W35390   6.940   7.559  18.273
34527W        W35391   7.020   9.231  21.577
34528W        W35392   5.770  10.658  21.504
34529W        W35393   7.261   9.557  21.127
34530W        W35394   6.522  10.423  21.572
34531W        W35395   4.504  10.932  20.237
34532W        W35396   7.217   9.527  19.354
34533W        W35397   5.681   8.614  19.555
34534W        W35398   5.600   7.305  19.484
34535W        W35399   4.725  10.339  19.455
34536W        W35400   5.031   8.200  20.600
34537W        W35401   4.946   7.460  20.079
34538W        W35402   3.763  10.489  18.693
34539W        W35403   5.531   9.582  19.569
34540W        W35404   4.586  10.505  21.209
34541W        W35405   3.965   9.368  19.170
34542W        W35406   3.790   7.880  20.041
34543W        W35407   5.413   9.939  19.937
34544W        W35408   3.625   7.557  19.062
34545W        W35409   6.435   8.937  20.813
34546W        W35410   6.381   8.292  18.496
34547W        W35411   6.729   9.826  20.260
34548W        W35412   5.570  10.435  19.990
34549W        W35413   4.814  10.631  19.024
34550W        W35414   6.059   7.362  18.187
34551W        W35415   4.047  10.717  20.351
34552W        W35416   5.795   8.399  21.690
34553W        W35417   4.029   8.106  21.725
34554W        W35418   3.708   8.492  19.301
34555W        W35419   5.102   8.601  18.781
34556W        W35420   6.094   8.831  21.605
34557W        W35421   4.695   9.148  20.346
34558W        W35422   6.162   7.400  19.510
34559W        W35423   5.214  10.794  20.092
34560W        W35424   6.471  10.257  20.946
34561W        W35425   6.279  10.285  19.908
34562W        W35426   6.056   9.499  19.590
34563W        W35427   5.495   7.731  18.787
34564W        W35428   7.123   7.452  19.551
34565W        W35429   4.873   8.858  18.366
34566W        W35430   6.957   8.236  19.526
34567W        W35431   5.477   9.551  18.655
34568W        W35432   6.754   9.591  21.250
34569W        W35433   6.701  10.243  18.552
34570W        W35434   4.942   8.026  21.600
34571W        W35435   4.845   8.680  20.711
34572W        W35436   6.935  10.065  21.103
34573W        W35437   5.941   7.949  21.223
34574W        W35438   3.618   8.568  21.172
34575W        W35439   5.571   8.998  20.835
34576W        W35440   4.125   9.590  19.819
34577W        W35441   4.010   8.983  20.451
34578W        W35442   6.338   9.413  20.961
34579W        W35443   6.262  10.785  21.269
34580W        W35444   5.953   8.451  21.196
34581W        W35445   6.424  10.572  19.484
34582W        W35446   5.453  10.391  20.924
34583W        W35447   4.829  10.534  20.313
34584W        W35448   6.614   9.788  20.765
34585W        W35449   5.581   9.770  21.783
34586W        W35450   4.388   9.886  20.165
34587W        W35451   6.577   9.471  19.730
34588W        W35452   6.346  10.968  20.405
34589W        W35453   4.358  10.324  20.436
34590W        W35454   5.311   8.375  21.507
34591W        W35455   5.513  10.491  19.045
34592W        W35456   5.054   9.763  21.633
34593W        W35457   5.089  10.196  19.096
34594W        W35458   4.440   8.554  18.165
34595W        W35459   3.768  10.896  25.292
34596W        W35460   4.185   9.790  24.765
34597W        W35461   6.837   9.372  22.594
34598W        W35462   7.092  10.612  24.684
34599W        W35463   4.680  10.564  22.132
34600W        W35464   5.024   8.730  22.902
34601W        W35465   4.596   8.343  23.315
34602W        W35466   5.371   9.185  22.646
34603W        W35467   5.105  10.523  24.903
34604W        W35468   3.721   8.048  24.924
34605W        W35469   4.316   7.324  24.756
34606W        W35470   6.242   7.649  23.582
34607W        W35471   5.775   8.507  22.199
34608W        W35472   6.347   8.152  25.244
34609W        W35473   3.881   7.726  24.511
34610W        W35474   3.907  10.408  25.348
34611W        W35475   5.182   9.924  22.113
34612W        W35476   3.742   8.363  23.927
34613W        W35477   4.865   8.498  25.121
34614W        W35478   7.055   8.257  23.643
34615W        W35479   6.943   9.343  24.371
34616W        W35480   5.407   8.816  23.542
34617W        W35481   5.920  10.118  24.206
34618W        W35482   4.404   9.359  23.994
34619W        W35483   3.478   9.055  23.949
34620W        W35484   4.856   8.914  24.823
34621W        W35485   7.007   8.814  25.063
34622W        W35486   4.482  10.236  23.591
34623W        W35487   5.647   9.910  24.602
34624W        W35488   5.068   8.597  23.888
34625W        W35489   5.171   9.282  23.611
34626W        W35490   5.766  10.251  25.424
34627W        W35491   5.362   9.300  25.402
34628W        W35492   5.348   9.140  24.886
34629W        W35493   3.661   8.382  25.316
34630W        W35494   6.389   9.916  25.148
34631W        W35495   4.098   7.527  23.019
34632W        W35496   4.601  10.023  24.158
34633W        W35497   7.183   9.723  23.582
34634W        W35498   6.748   7.814  23.760
34635W        W35499   6.786   8.147  21.854
34636W        W35500   7.349   8.823  24.293
34637W        W35501   5.226  10.662  23.999
34638W        W35502   7.022  10.230  22.474
34639W        W35503   4.114  10.923  22.548
34640W        W35504   4.472  10.824  22.941
34641W        W35505   4.317   7.555  24.273
34642W        W35506   6.928   8.731  24.555
34643W        W35507   6.119   8.866  23.101
34644W        W35508   6.211   8.779  22.128
34645W        W35509   5.479   9.849  24.122
34646W        W35510   5.495   8.067  23.350
34647W        W35511   5.857  10.402  24.633
34648W        W35512   6.545   9.070  22.907
34649W        W35513   5.873   7.677  22.700
34650W        W35514   4.374  10.473  22.585
34651W        W35515   3.751   7.906  23.105
34652W        W35516   6.208   8.569  23.545
34653W        W35517   3.967  10.224  23.629
34654W        W35518   5.173  10.439  22.221
34655W        W35519   6.519   8.572  21.751
34656W        W35520   3.778  10.259  24.114
34657W        W35521   4.626  10.051  24.669
34658W        W35522   5.105   9.200  23.091
34659W        W35523   4.761   7.778  24.100
34660W        W35524   7.228   7.518  23.775
34661W        W35525   4.303   9.421  21.637
34662W        W35526   4.127   8.165  22.225
34663W        W35527   4.114  10.169  23.143
34664W        W35528   4.985   9.654  23.280
34665W        W35529   6.659  10.572  24.981
34666W        W35530   5.604   8.149  22.515
34667W        W35531   6.897  10.578  23.795
34668W        W35532   6.528   8.723  24.891
34669W        W35533   7.362  10.164  23.377
34670W        W35534   5.866   9.459  24.737
34671W        W35535   3.752   9.153  23.301
34672W        W35536   4.659   9.559  24.400
34673W        W35537   5.869   8.590  22.727
34674W        W35538   5.860   9.279  22.917
34675W        W35539   4.108   8.521  24.323
34676W        W35540   4.144   8.462  25.075
34677W        W35541   3.922   7.438  23.502
34678W        W35542   5.717   7.832  23.755
34679W        W35543   5.510   7.841  25.097
34680W        W35544   5.906   7.858  22.212
34681W        W35545   7.093  10.547  25.253
34682W        W35546   5.965   7.362  24.954
34683W        W35547   6.847  10.060  25.401
34684W        W35548   6.487   7.989  24.758
34685W        W35549   6.256   7.859  23.039
34686W        W35550   6.619   9.059  25.305
34687W        W35551   4.207  10.629  23.384
34688W        W35552   5.103   8.209  22.458
34689W        W35553   4.622   7.581  25.107
34690W        W35554   6.636   8.156  22.839
34691W        W35555   6.928   8.543  22.664
34692W        W35556   4.812  10.806  25.208
34693W        W35557   4.573   7.392  22.513
34694W        W35558   7.101   7.825  23.397
34695W        W35559   7.224  10.102  21.988
34696W        W35560   3.934   9.354  23.744
34697W        W35561   5.933   7.895  21.716
34698W        W35562   7.209  10.168  23.880
34699W        W35563   7.060   7.486  24.276
34700W        W35564   5.699   8.741  24.991
34701W        W35565   5.536   9.661  22.749
34702W        W35566   6.204   9.146  25.623
34703W        W35567   5.778   7.343  23.604
34704W        W35568   4.218   8.296  23.712
34705W        W35569   4.170   9.378  24.471
34706W        W35570   6.071  10.413  23.802
34707W        W35571   6.885   8.396  24.121
34708W        W35572   5.788  10.925  24.666
34709W        W35573   6.915   9.290  22.087
34710W        W35574   5.535   8.888  23.033
34711W        W35575   7.183   7.648  24.917
34712W        W35576   5.420   9.473  24.471
34713W        W35577   5.514   8.350  23.775
34714W        W35578   6.402   8.613  22.673
34715W        W35579   6.624   8.443  22.246
34716W        W35580   6.703  10.404  22.851
34717W        W35581   6.650   9.570  23.590
34718W        W35582   6.168   9.051  22.568
34719W        W35583   5.847   9.105  23.472
34720W        W35584   6.761   9.087  23.401
34721W        W35585   4.090   8.029  24.142
34722W        W35586   6.738   9.185  24.812
34723W        W35587   7.252  10.628  24.160
34724W        W35588   4.961  10.169  23.429
34725W        W35589   6.255  10.737  24.733
34726W        W35590   6.071   8.096  24.443
34727W        W35591   5.302  10.782  24.493
34728W        W35592   7.036   7.793  22.897
34729W        W35593   6.851   8.908  24.069
34730W        W35594   3.674   8.184  24.408
34731W        W35595   6.598   8.145  23.372
34732W        W35596   6.908   8.334  24.891
34733W        W35597   5.827   9.885  23.743
34734W        W35598   5.084  10.568  23.100
34735W        W35599   4.172   7.650  22.311
34736W        W35600   5.393   7.471  23.954
34737W        W35601   4.199  10.760  22.081
34738W        W35602   4.865   9.165  22.575
34739W        W35603   5.435   9.638  25.000
34740W        W35604   5.399   7.795  22.908
34741W        W35605   6.653   7.622  23.249
34742W        W35606   6.437  10.795  23.891
34743W        W35607   5.727  10.682  24.192
34744W        W35608   5.084   9.521  24.063
34745W        W35609   6.986  10.222  24.351
34746W        W35610   4.560   7.745  22.922
34747W        W35611   5.074  10.140  23.978
34748W        W35612   4.494   7.952  21.894
34749W        W35613   5.468   8.550  24.260
34750W        W35614   6.139   7.423  24.057
34751W        W35615   3.737   9.429  24.213
34752W        W35616   5.220   9.023  22.157
34753W        W35617   4.634   7.470  21.983
34754W        W35618   5.394   8.380  22.949
34755W        W35619   6.189   7.596  24.559
34756W        W35620   4.986   9.506  24.790
34757W        W35621   5.828   9.233  25.184
34758W        W35622   6.304   9.398  25.051
34759W        W35623   5.584   7.503  25.485
34760W        W35624   4.731   8.200  23.801
34761W        W35625   4.237   7.948  23.302
34762W        W35626   3.954  10.603  22.904
34763W        W35627   5.514  10.227  24.975
34764W        W35628   4.564   9.633  22.391
34765W        W35629   6.340   9.033  23.696
34766W        W35630   6.359   8.648  24.036
34767W        W35631   5.619   9.415  23.846
34768W        W35632   6.125   9.729  21.844
34769W        W35633   5.814   7.685  23.234
34770W        W35634   7.302   8.163  22.650
34771W        W35635   3.943  10.631  24.877
34772W        W35636   4.076   9.854  24.259
34773W        W35637   3.595  10.800  22.537
34774W        W35638   5.588   8.036  24.218
34775W        W35639   4.781  10.106  22.400
34776W        W35640   6.820  10.714  22.427
34777W        W35641   5.728   9.011  22.328
34778W        W35642   4.958   8.106  22.958
34779W        W35643   5.475   8.056  21.975
34780W        W35644   5.882   9.877  25.067
34781W        W35645   6.586   7.653  22.697
34782W        W35646   3.773   7.356  22.175
34783W        W35647   5.075   9.895  24.444
34784W        W35648   4.775   9.782  23.735
34785W        W35649   4.670   9.889  21.942
34786W        W35650   3.754  10.130  22.775
34787W        W35651   4.459   8.861  25.149
34788W        W35652   5.099   7.506  25.297
34789W        W35653   5.651   7.665  24.618
34790W        W35654   4.944   7.437  23.089
34791W        W35655   6.253   7.499  22.336
34792W        W35656   3.875   7.568  24.020
34793W        W35657   3.782   8.378  23.391
34794W        W35658   6.656   7.332  23.927
34795W        W35659   4.119   7.962  22.726
34796W        W35660   6.580   7.751  24.253
34797W        W35661   6.946   8.788  21.962
34798W        W35662   4.341   7.770  23.781
34799W        W35663   5.633   8.246  24.712
34800W        W35664   3.687   7.871  22.179
34801W        W35665   4.512   9.293  24.839
34802W        W35666   5.824   8.763  23.878
34803W        W35667   5.582  10.791  22.177
34804W        W35668   3.781   9.449  21.808
34805W        W35669   4.610   9.745  25.080
34806W        W35670   4.140   8.899  24.708
34807W        W35671   5.046   9.139  24.420
34808W        W35672   6.690   7.488  24.697
34809W        W35673   7.265   9.144  24.731
34810W        W35674   7.153   8.953  22.432
34811W        W35675   5.931   9.485  22.414
34812W        W35676   6.546  10.781  21.986
34813W        W35677   5.696   8.871  25.506
34814W        W35678   4.101   9.769  25.283
34815W        W35679   7.317   7.898  25.341
34816W        W35680   6.708   8.632  23.654
34817W        W35681   5.299  10.733  25.387
34818W        W35682   5.061   7.335  22.226
34819W        W35683   6.842   9.791  22.198
34820W        W35684   4.514   8.105  25.041
34821W        W35685   5.057   9.997  24.955
34822W        W35686   6.965   7.937  24.553
34823W        W35687   6.346  10.960  22.444
34824W        W35688   6.543   9.341  24.058
34825W        W35689   4.601   7.787  24.632
34826W        W35690   5.238   8.819  25.269
34827W        W35691   4.395   9.980  22.750
34828W        W35692   6.331   9.509  22.769
34829W        W35693   4.164   8.141  24.655
34830W        W35694   5.357   9.979  23.134
34831W        W35695   7.130   8.711  23.367
34832W        W35696   5.466   7.319  25.002
34833W        W35697   6.357   9.819  24.161
34834W        W35698   6.574  10.265  24.025
34835W        W35699   5.550  10.280  21.900
34836W        W35700   3.770  10.032  24.983
34837W        W35701   4.558   8.215  24.306
34838W        W35702   4.482   7.488  23.379
34839W        W35703   5.994   8.273  23.954
34840W        W35704   4.936   9.451  22.068
34841W        W35705   7.021   9.333  23.845
34842W        W35706   4.277  10.207  25.056
34843W        W35707   6.787  10.908  22.968
34844W        W35708   4.825   7.875  23.396
34845W        W35709   4.661   9.325  23.516
34846W        W35710   4.861  10.966  24.195
34847W        W35711   6.771  10.997  25.260
34848W        W35712   6.069   9.113  24.170
34849W        W35713   3.912   8.595  21.982
34850W        W35714   6.996  10.517  23.281
34851W        W35715   6.859   8.000  22.396
34852W        W35716   4.842   7.273  24.726
34853W        W35717   6.825  10.086  23.557
34854W        W35718   6.673   8.622  23.132
34855W        W35719   5.102   8.370  23.419
34856W        W35720   5.266   8.625  24.742
34857W        W35721   6.165   9.908  24.640
34858W        W35722   4.930   8.200  24.707
34859W        W35723   4.721  10.682  23.454
34860W        W35724   4.307  10.732  25.243
34861W        W35725   4.311  10.195  22.160
34862W        W35726   6.980  10.031  23.064
34863W        W35727   4.513   8.537  24.714
34864W        W35728   7.150   8.381  22.192
34865W        W35729   5.058   9.646  22.553
34866W        W35730   6.098   8.995  24.762
34867W        W35731   5.984   8.617  24.392
34868W        W35732   4.535   9.011  24.390
34869W        W35733   6.713  10.692  24.320
34870W        W35734   6.391   7.616  25.112
34871W        W35735   4.130   7.743  24.977
34872W        W35736   4.516   8.646  24.003
34873W        W35737   4.825   8.329  22.007
34874W        W35738   3.633  10.338  24.588
34875W        W35739   5.363   9.011  24.033
34876W        W35740   4.994   7.847  22.106
34877W        W35741   4.616   9.039  23.058
34878W        W35742   3.914  10.755  24.360
34879W        W35743   6.642   8.947  22.368
34880W        W35744   6.811   7.901  25.159
34881W        W35745   6.498   9.853  23.181
34882W        W35746   3.854   8.883  25.153
34883W        W35747   7.057   7.525  22.466
34884W        W35748   6.678   9.877  22.682
34885W        W35749   5.394   8.666  22.522
34886W        W35750   6.408   7.805  21.938
34887W        W35751   6.497   8.420  24.480
34888W        W35752   3.902   8.808  23.702
34889W        W35753   4.490   9.833  23.279
34890W        W35754   6.230   8.372  23.074
34891W        W35755   5.191   7.938  23.770
34892W        W35756   7.258   9.781  24.375
34893W        W35757   7.174   7.949  24.060
34894W        W35758   3.701  10.658  23.345
34895W        W35759   3.984   9.685  22.894
34896W        W35760   4.206   7.567  25.445
34897W        W35761   5.235  10.207  25.415
34898W        W35762   7.257   9.234  23.346
34899W        W35763   6.427   9.407  22.237
34900W        W35764   5.730  11.217  24.259
34901W        W35765   6.570   9.549  25.493
34902W        W35766   5.280   7.299  22.694
34903W        W35767   6.028   8.100  23.454
34904W        W35768   3.710   9.827  23.853
34905W        W35769   4.980   7.705  22.614
34906W        W35770   4.886   9.233  25.215
34907W        W35771   5.821   8.116  22.965
34908W        W35772   5.905   9.596  24.247
34909W        W35773   4.166  10.292  24.542
34910W        W35774   4.749  10.280  25.259
34911W        W35775   4.582   7.956  22.415
34912W        W35776   6.164   8.153  22.569
34913W        W35777   6.156  10.351  25.051
34914W        W35778   4.897   8.851  23.454
34915W        W35779   4.450  10.706  24.355
34916W        W35780   7.123  10.605  22.006
34917W        W35781   4.014   9.338  24.969
34918W        W35782   6.141   9.490  23.778
34919W        W35783   4.659   9.527  22.898
34920W        W35784   4.906  10.428  24.416
34921W        W35785   5.334   7.591  23.409
34922W        W35786   3.463   9.722  22.621
34923W        W35787   5.290   8.534  22.016
34924W        W35788   4.234   9.371  23.234
34925W        W35789   5.124   7.696  24.780
34926W        W35790   6.914   7.659  21.993
34927W        W35791   7.096   9.291  25.229
34928W        W35792   5.749  10.673  25.107
34929W        W35793   7.269   9.690  24.873
34930W        W35794   6.616  10.534  25.493
34931W        W35795   4.377  10.884  23.858
34932W        W35796   7.349   9.692  23.108
34933W        W35797   5.760   8.518  23.306
34934W        W35798   5.584   7.242  23.111
34935W        W35799   4.582  10.353  23.084
34936W        W35800   5.085   8.184  24.209
34937W        W35801   4.928   7.476  23.703
34938W        W35802   3.913  10.432  22.381
34939W        W35803   5.513   9.476  23.271
34940W        W35804   4.585  10.542  24.824
34941W        W35805   3.664   9.259  22.801
34942W        W35806   3.825   7.928  23.646
34943W        W35807   5.306   9.804  23.645
34944W        W35808   3.734   7.620  22.640
34945W        W35809   6.485   8.951  24.425
34946W        W35810   6.190   8.262  22.018
34947W        W35811   6.861   9.801  24.018
34948W        W35812   5.557  10.298  23.863
34949W        W35813   4.866  10.539  22.646
34950W        W35814   6.056   7.420  21.855
34951W        W35815   3.904  10.689  23.835
34952W        W35816   5.856   8.372  25.351
34953W        W35817   4.102   8.082  25.407
34954W        W35818   3.584   8.701  22.986
34955W        W35819   4.899   8.682  22.378
34956W        W35820   6.163   8.793  25.247
34957W        W35821   4.837   9.062  23.952
34958W        W35822   6.191   7.338  23.160
34959W        W35823   5.219  10.875  23.506
34960W        W35824   6.518  10.275  24.583
34961W        W35825   6.333   9.976  23.669
34962W        W35826   6.294   9.345  23.274
34963W        W35827   5.435   7.684  22.362
34964W        W35828   7.338   7.434  23.176
34965W        W35829   4.752   8.878  21.902
34966W        W35830   7.061   8.263  23.118
34967W        W35831   5.449   9.484  22.222
34968W        W35832   6.787   9.643  25.027
34969W        W35833   6.724  10.285  22.043
34970W        W35834   4.992   7.990  25.201
34971W        W35835   4.899   8.637  24.373
34972W        W35836   6.922  10.134  24.889
34973W        W35837   5.996   7.914  24.925
34974W        W35838   3.762   8.540  24.762
34975W        W35839   5.644   9.000  24.488
34976W        W35840   3.936   9.754  23.400
34977W        W35841   4.032   9.000  24.162
34978W        W35842   6.345   9.432  24.529
34979W        W35843   6.257  10.857  25.229
34980W        W35844   6.108   8.425  24.864
34981W        W35845   6.498  10.471  23.483
34982W        W35846   5.410  10.299  24.370
34983W        W35847   4.735  10.522  23.940
34984W        W35848   6.730   9.793  24.531
34985W        W35849   5.552   9.771  25.487
34986W        W35850   4.260   9.813  23.786
34987W        W35851   6.864   9.495  23.092
34988W        W35852   6.211  10.536  24.273
34989W        W35853   4.256  10.370  24.030
34990W        W35854   5.373   8.339  25.171
34991W        W35855   5.276  10.120  22.609
34992W        W35856   5.035   9.715  25.405
34993W        W35857   4.886   9.996  22.910
34994W        W35858   4.379   8.482  21.801
34995W        W35859   3.795  10.913  28.842
34996W        W35860   4.076   9.829  28.656
34997W        W35861   6.838   9.438  26.485
34998W        W35862   6.988  10.598  28.212
34999W        W35863   4.746  10.629  25.688
35000W        W35864   4.822   8.629  26.603
35001W        W35865   4.343   8.547  26.889
35002W        W35866   5.373   9.186  26.291
35003W        W35867   5.118  10.537  28.187
35004W        W35868   3.913   8.107  28.532
35005W        W35869   4.309   7.417  28.250
35006W        W35870   6.236   7.711  27.273
35007W        W35871   6.085   8.641  25.739
35008W        W35872   6.445   8.109  28.679
35009W        W35873   3.929   7.744  28.150
35010W        W35874   3.971  10.423  28.935
35011W        W35875   5.251   9.506  25.883
35012W        W35876   3.779   8.421  27.547
35013W        W35877   4.706   8.588  28.755
35014W        W35878   7.082   8.290  27.291
35015W        W35879   6.944   9.343  27.940
35016W        W35880   5.167   8.594  27.009
35017W        W35881   5.877  10.094  27.627
35018W        W35882   4.263   9.437  27.742
35019W        W35883   3.628   8.940  27.496
35020W        W35884   4.795   8.990  28.402
35021W        W35885   6.991   8.773  28.690
35022W        W35886   4.472  10.179  27.145
35023W        W35887   5.757   9.905  28.128
35024W        W35888   5.030   8.350  27.482
35025W        W35889   5.055   9.312  27.199
35026W        W35890   5.900  10.225   0.051
35027W        W35891   5.249   9.382  28.916
35028W        W35892   5.331   9.155  28.451
35029W        W35893   3.713   8.345  28.992
35030W        W35894   6.362  10.090  28.748
35031W        W35895   4.121   7.568  26.680
35032W        W35896   4.568   9.869  27.727
35033W        W35897   7.256   9.798  27.091
35034W        W35898   6.356   8.054  27.634
35035W        W35899   6.946   8.176  25.574
35036W        W35900   7.307   8.834  27.961
35037W        W35901   5.200  10.618  27.655
35038W        W35902   7.118  10.092  26.239
35039W        W35903   4.111  10.943  26.214
35040W        W35904   4.477  10.828  26.560
35041W        W35905   4.497   7.641  27.810
35042W        W35906   7.010   8.447  28.138
35043W        W35907   6.371   8.823  26.946
35044W        W35908   6.583   8.813  25.767
35045W        W35909   5.465   9.797  27.669
35046W        W35910   5.244   8.082  27.049
35047W        W35911   5.988  10.384  28.033
35048W        W35912   6.828   9.015  26.781
35049W        W35913   5.815   7.909  26.333
35050W        W35914   4.278  10.446  26.262
35051W        W35915   3.767   7.946  26.718
35052W        W35916   6.505   8.528  27.379
35053W        W35917   3.934  10.275  27.232
35054W        W35918   5.223  10.519  25.855
35055W        W35919   6.669   8.536  25.342
35056W        W35920   3.795  10.342  27.810
35057W        W35921   4.453   9.887  28.230
35058W        W35922   5.096   9.051  26.718
35059W        W35923   5.024   7.697  27.847
35060W        W35924   7.292   7.527  27.402
35061W        W35925   4.389   9.338  25.347
35062W        W35926   4.271   8.222  25.889
35063W        W35927   4.133  10.206  26.752
35064W        W35928   4.820   9.870  26.800
35065W        W35929   6.625  10.519  28.605
35066W        W35930   5.678   8.399  26.291
35067W        W35931   6.938  10.799  27.091
35068W        W35932   6.596   8.560  28.452
35069W        W35933   7.415  10.094  26.672
35070W        W35934   5.832   9.393  28.233
35071W        W35935   3.687   8.791  26.677
35072W        W35936   4.700   9.454  28.032
35073W        W35937   6.023   8.763  26.553
35074W        W35938   5.933   9.135  26.907
35075W        W35939   4.215   8.516  27.857
35076W        W35940   4.206   8.437  28.778
35077W        W35941   3.986   7.447  27.155
35078W        W35942   5.872   7.838  27.618
35079W        W35943   5.473   7.921  28.746
35080W        W35944   5.907   8.164  25.862
35081W        W35945   7.109  10.337  28.700
35082W        W35946   5.941   7.492  28.592
35083W        W35947   6.852   9.896  28.820
35084W        W35948   6.605   8.121  28.204
35085W        W35949   6.093   7.847  26.791
35086W        W35950   6.741   9.036   0.061
35087W        W35951   4.212  10.663  26.998
35088W        W35952   5.243   8.142  26.066
35089W        W35953   4.567   7.497  28.727
35090W        W35954   6.740   8.201  26.478
35091W        W35955   7.049   8.627  26.480
35092W        W35956   4.776  10.689  28.786
35093W        W35957   4.636   7.307  26.097
35094W        W35958   7.056   7.813  27.044
35095W        W35959   7.171  10.329  25.736
35096W        W35960   3.856   9.406  27.371
35097W        W35961   5.952   7.871  25.429
35098W        W35962   7.341  10.175  27.494
35099W        W35963   7.176   7.512  27.891
35100W        W35964   5.655   8.424  28.780
35101W        W35965   5.407   9.739  26.336
35102W        W35966   6.152   9.215   0.114
35103W        W35967   5.909   7.355  27.450
35104W        W35968   4.258   8.322  27.346
35105W        W35969   4.021   9.556  28.218
35106W        W35970   5.737  10.706  27.141
35107W        W35971   6.839   8.150  27.737
35108W        W35972   5.617  10.602  28.289
35109W        W35973   6.901   9.226  25.716
35110W        W35974   5.522   8.751  26.653
35111W        W35975   7.245   7.493  28.392
35112W        W35976   5.299   9.481  28.046
35113W        W35977   5.543   8.386  27.344
35114W        W35978   6.541   8.689  26.475
35115W        W35979   6.892   8.483  26.014
35116W        W35980   6.743  10.361  26.513
35117W        W35981   6.225   9.803  27.345
35118W        W35982   6.250   8.962  26.124
35119W        W35983   5.470   9.017  27.104
35120W        W35984   6.780   9.034  27.288
35121W        W35985   4.099   8.024  27.737
35122W        W35986   6.703   9.183  28.545
35123W        W35987   7.121  10.619  27.534
35124W        W35988   4.973  10.277  27.109
35125W        W35989   6.158  10.718  28.433
35126W        W35990   6.090   8.162  28.065
35127W        W35991   5.379  10.971  28.010
35128W        W35992   7.138   7.779  26.491
35129W        W35993   6.806   8.902  28.138
35130W        W35994   3.780   8.259  28.060
35131W        W35995   6.587   8.069  27.136
35132W        W35996   6.953   8.228  28.601
35133W        W35997   5.700   9.820  27.201
35134W        W35998   5.087  10.563  26.680
35135W        W35999   4.323   7.690  25.920
35136W        W36000   5.415   7.432  27.577
35137W        W36001   4.255  10.792  25.753
35138W        W36002   4.880   9.038  26.188
35139W        W36003   5.460   9.653  28.485
35140W        W36004   5.396   7.767  26.641
35141W        W36005   6.602   7.555  26.940
35142W        W36006   6.500  10.924  27.341
35143W        W36007   5.724  10.607  27.655
35144W        W36008   4.999   9.591  27.646
35145W        W36009   6.912  10.253  27.843
35146W        W36010   4.544   7.690  26.420
35147W        W36011   5.026  10.115  27.609
35148W        W36012   4.584   7.929  25.529
35149W        W36013   5.323   8.617  27.825
35150W        W36014   6.275   7.541  27.772
35151W        W36015   3.771   9.268  27.875
35152W        W36016   5.266   8.981  25.800
35153W        W36017   4.674   7.426  25.595
35154W        W36018   5.232   8.291  26.572
35155W        W36019   6.277   7.726  28.283
35156W        W36020   4.951   9.504  28.476
35157W        W36021   5.741   9.323  28.768
35158W        W36022   6.206   9.285  28.575
35159W        W36023   5.701   7.580   0.057
35160W        W36024   4.848   7.868  27.370
35161W        W36025   4.255   8.030  26.888
35162W        W36026   3.892  10.648  26.583
35163W        W36027   5.385  10.154  28.435
35164W        W36028   4.425   9.434  26.423
35165W        W36029   6.155   8.926  27.383
35166W        W36030   6.521   8.988  27.729
35167W        W36031   5.404   9.277  27.576
35168W        W36032   6.051   9.612  25.469
35169W        W36033   5.681   7.751  27.130
35170W        W36034   7.290   8.214  26.263
35171W        W36035   3.890  10.589  28.441
35172W        W36036   4.054   9.903  27.857
35173W        W36037   3.607  11.073  26.348
35174W        W36038   5.633   8.220  27.830
35175W        W36039   4.852  10.141  25.791
35176W        W36040   7.047  10.612  26.173
35177W        W36041   5.731   8.858  26.064
35178W        W36042   4.525   8.220  26.487
35179W        W36043   5.481   8.024  25.580
35180W        W36044   5.990   9.749  28.578
35181W        W36045   6.333   7.960  26.162
35182W        W36046   3.840   7.445  25.807
35183W        W36047   5.013   9.904  28.092
35184W        W36048   4.673   9.681  27.261
35185W        W36049   4.541   9.790  25.582
35186W        W36050   3.824  10.175  26.351
35187W        W36051   4.346   8.951  28.704
35188W        W36052   5.033   7.398  28.982
35189W        W36053   5.728   7.774  28.139
35190W        W36054   4.975   7.390  26.655
35191W        W36055   6.004   7.650  25.899
35192W        W36056   4.002   7.522  27.689
35193W        W36057   3.843   8.379  27.020
35194W        W36058   6.744   7.668  27.463
35195W        W36059   4.111   7.947  26.312
35196W        W36060   6.716   7.695  27.984
35197W        W36061   7.079   8.770  25.577
35198W        W36062   4.340   7.810  27.349
35199W        W36063   5.523   8.242  28.323
35200W        W36064   3.815   7.967  25.842
35201W        W36065   4.437   9.395  28.474
35202W        W36066   5.681   8.844  27.543
35203W        W36067   5.630  10.950  26.013
35204W        W36068   3.804   9.336  25.442
35205W        W36069   4.597   9.824  28.713
35206W        W36070   4.101   9.041  28.239
35207W        W36071   5.032   9.055  27.933
35208W        W36072   6.577   7.310  28.301
35209W        W36073   7.216   9.160  28.378
35210W        W36074   7.300   8.845  26.046
35211W        W36075   5.881   9.239  26.385
35212W        W36076   6.501  11.001  25.719
35213W        W36077   5.854   8.827   0.007
35214W        W36078   4.308   9.489  28.984
35215W        W36079   7.247   7.830  28.780
35216W        W36080   6.926   8.658  27.658
35217W        W36081   5.272  10.573  28.730
35218W        W36082   5.110   7.312  25.843
35219W        W36083   6.913   9.762  25.846
35220W        W36084   4.464   8.003  28.694
35221W        W36085   4.853  10.213  28.474
35222W        W36086   7.113   7.953  28.198
35223W        W36087   6.544  10.744  26.172
35224W        W36088   6.573   9.476  27.569
35225W        W36089   4.710   7.744  28.274
35226W        W36090   5.155   8.846  28.811
35227W        W36091   4.438   9.953  26.407
35228W        W36092   6.379   9.186  26.575
35229W        W36093   4.321   8.101  28.196
35230W        W36094   5.294  10.062  26.755
35231W        W36095   7.266   8.744  26.943
35232W        W36096   5.441   7.414  28.632
35233W        W36097   6.385  10.135  27.717
35234W        W36098   6.662  10.439  27.412
35235W        W36099   5.338  10.015  25.897
35236W        W36100   3.708   9.673   0.014
35237W        W36101   4.611   8.156  27.745
35238W        W36102   4.584   7.589  26.962
35239W        W36103   6.037   8.470  27.609
35240W        W36104   4.806   9.326  25.713
35241W        W36105   7.089   9.458  27.454
35242W        W36106   4.366  10.280  28.633
35243W        W36107   6.827  10.885  26.587
35244W        W36108   4.899   7.912  26.709
35245W        W36109   4.328   9.286  27.204
35246W        W36110   4.835  10.865  27.912
35247W        W36111   6.985  10.864  28.672
35248W        W36112   6.027   9.118  27.844
35249W        W36113   4.021   8.606  25.587
35250W        W36114   7.199  10.559  26.669
35251W        W36115   6.845   7.956  26.026
35252W        W36116   4.971   7.336  28.470
35253W        W36117   7.030  10.274  27.076
35254W        W36118   6.778   8.512  26.921
35255W        W36119   4.738   8.274  27.054
35256W        W36120   5.202   8.658  28.323
35257W        W36121   6.269  10.010  28.216
35258W        W36122   4.805   8.242  28.372
35259W        W36123   4.722  10.727  27.020
35260W        W36124   4.276  10.785  28.699
35261W        W36125   4.353  10.295  25.589
35262W        W36126   6.929   9.917  26.706
35263W        W36127   4.412   8.605  28.324
35264W        W36128   7.362   8.382  25.786
35265W        W36129   4.954   9.505  26.415
35266W        W36130   5.801   8.908  28.482
35267W        W36131   5.845   8.630  28.050
35268W        W36132   4.507   8.977  27.958
35269W        W36133   6.739  10.829  27.796
35270W        W36134   6.424   7.395  28.788
35271W        W36135   4.066   7.628  28.659
35272W        W36136   4.598   8.671  27.520
35273W        W36137   5.021   8.323  25.601
35274W        W36138   3.797  10.080  28.291
35275W        W36139   5.096   8.865  27.447
35276W        W36140   5.044   7.801  25.712
35277W        W36141   4.337   9.026  26.731
35278W        W36142   3.877  10.840  27.998
35279W        W36143   6.826   9.006  26.195
35280W        W36144   6.781   7.724  28.552
35281W        W36145   6.552  10.079  27.043
35282W        W36146   3.909   8.832  28.921
35283W        W36147   7.069   7.483  26.062
35284W        W36148   6.641   9.873  26.277
35285W        W36149   5.246   8.672  26.219
35286W        W36150   6.450   7.791  25.610
35287W        W36151   6.471   8.515  27.917
35288W        W36152   3.987   8.877  27.109
35289W        W36153   4.328   9.725  26.871
35290W        W36154   6.268   8.343  26.765
35291W        W36155   5.349   7.931  27.521
35292W        W36156   7.188   9.805  27.865
35293W        W36157   7.314   7.975  27.711
35294W        W36158   3.692  10.722  27.070
35295W        W36159   3.974   9.695  26.477
35296W        W36160   4.223   7.449   0.131
35297W        W36161   5.313  10.198   0.133
35298W        W36162   7.272   9.272  27.004
35299W        W36163   6.530   9.400  26.028
35300W        W36164   5.937  10.936  28.006
35301W        W36165   6.542   9.497  28.941
35302W        W36166   5.341   7.238  26.314
35303W        W36167   6.025   8.167  27.206
35304W        W36168   3.664   9.897  27.475
35305W        W36169   5.037   7.669  26.233
35306W        W36170   4.756   9.204  28.883
35307W        W36171   5.699   8.213  26.796
35308W        W36172   6.125   9.661  27.837
35309W        W36173   4.212  10.336  28.129
35310W        W36174   4.787  10.226  28.984
35311W        W36175   4.716   8.017  26.040
35312W        W36176   6.192   8.442  26.199
35313W        W36177   5.909  10.248  28.528
35314W        W36178   4.724   8.894  27.070
35315W        W36179   4.356  10.738  27.845
35316W        W36180   6.991  10.824  25.705
35317W        W36181   3.950   9.302  28.676
35318W        W36182   5.894   9.375  27.408
35319W        W36183   4.703   9.368  26.847
35320W        W36184   4.702  10.309  27.958
35321W        W36185   5.169   7.569  27.102
35322W        W36186   3.614   9.519  26.110
35323W        W36187   5.495   8.495  25.778
35324W        W36188   3.958   9.350  26.855
35325W        W36189   5.232   7.791  28.311
35326W        W36190   6.950   7.637  25.585
35327W        W36191   7.069   9.408  28.832
35328W        W36192   5.781  10.676  28.789
35329W        W36193   7.029   9.651  28.362
35330W        W36194   6.776  10.336   0.080
35331W        W36195   4.420  10.946  27.386
35332W        W36196   7.322   9.596  26.572
35333W        W36197   5.877   8.642  27.048
35334W        W36198   5.533   7.295  26.862
35335W        W36199   4.628  10.344  26.678
35336W        W36200   5.129   8.171  27.972
35337W        W36201   4.905   7.361  27.492
35338W        W36202   3.901  10.411  25.862
35339W        W36203   5.314   9.517  26.802
35340W        W36204   4.592  10.643  28.317
35341W        W36205   3.969   9.155  26.366
35342W        W36206   3.852   7.931  27.266
35343W        W36207   5.180   9.816  27.211
35344W        W36208   3.689   7.672  26.270
35345W        W36209   6.275   8.892  28.234
35346W        W36210   6.463   8.286  25.765
35347W        W36211   6.849   9.922  27.447
35348W        W36212   5.453  10.268  27.352
35349W        W36213   4.816  10.518  26.210
35350W        W36214   6.103   7.388  25.471
35351W        W36215   3.974  10.718  27.495
35352W        W36216   6.135   8.379  28.977
35353W        W36217   4.102   7.971   0.067
35354W        W36218   4.000   8.392  26.532
35355W        W36219   4.786   8.528  26.025
35356W        W36220   6.329   8.841  28.781
35357W        W36221   4.694   9.194  27.542
35358W        W36222   6.066   7.335  26.959
35359W        W36223   5.228  10.729  27.146
35360W        W36224   6.499  10.463  28.107
35361W        W36225   6.152  10.382  27.285
35362W        W36226   6.359   9.320  27.122
35363W        W36227   5.487   7.669  25.977
35364W        W36228   7.315   7.403  26.854
35365W        W36229   4.818   8.823  25.561
35366W        W36230   7.189   8.231  26.775
35367W        W36231   5.723   9.307  25.785
35368W        W36232   6.532   9.675  28.472
35369W        W36233   6.710  10.280  25.951
35370W        W36234   4.953   7.846  28.736
35371W        W36235   4.817   8.578  27.976
35372W        W36236   6.793  10.113  28.347
35373W        W36237   5.936   8.012  28.561
35374W        W36238   3.867   8.620  28.437
35375W        W36239   5.545   9.031  28.012
35376W        W36240   3.837   9.839  26.972
35377W        W36241   4.135   8.960  27.599
35378W        W36242   6.446   9.346  28.094
35379W        W36243   6.266  10.583  28.947
35380W        W36244   6.092   8.481  28.478
35381W        W36245   6.501  10.600  26.925
35382W        W36246   5.448  10.250  27.915
35383W        W36247   4.718  10.533  27.494
35384W        W36248   6.677   9.792  27.964
35385W        W36249   5.599   9.816  28.935
35386W        W36250   4.180   9.810  27.366
35387W        W36251   6.814   9.521  27.021
35388W        W36252   6.262  10.656  27.704
35389W        W36253   4.281  10.290  27.611
35390W        W36254   5.158   8.326  28.733
35391W        W36255   5.361  10.345  26.312
35392W        W36256   5.107   9.873  28.795
35393W        W36257   4.956  10.026  26.318
35394W        W36258   4.499   8.429  25.468
35395W        W36259   3.697  14.617   3.381
35396W        W36260   4.025  13.492   2.815
35397W        W36261   6.846  13.084   0.779
35398W        W36262   7.270  14.215   2.509
35399W        W36263   5.082  14.288   0.245
35400W        W36264   4.875  12.376   1.097
35401W        W36265   4.508  12.186   1.448
35402W        W36266   5.590  12.857   0.727
35403W        W36267   5.221  14.274   2.885
35404W        W36268   3.788  11.659   3.013
35405W        W36269   4.246  10.928   2.798
35406W        W36270   6.187  11.360   1.619
35407W        W36271   5.965  12.018   0.432
35408W        W36272   6.467  11.724   3.103
35409W        W36273   3.907  11.319   2.628
35410W        W36274   3.851  14.143   3.509
35411W        W36275   5.161  13.556   0.333
35412W        W36276   3.780  12.031   2.038
35413W        W36277   4.743  12.176   3.131
35414W        W36278   7.011  11.831   1.747
35415W        W36279   6.916  12.967   2.507
35416W        W36280   5.376  12.439   1.499
35417W        W36281   5.891  13.826   1.901
35418W        W36282   4.246  12.942   2.101
35419W        W36283   3.486  12.616   2.014
35420W        W36284   4.834  12.800   2.861
35421W        W36285   7.014  12.364   3.126
35422W        W36286   4.565  13.840   1.656
35423W        W36287   5.703  13.615   2.448
35424W        W36288   5.216  12.156   1.881
35425W        W36289   5.159  12.934   1.590
35426W        W36290   5.904  13.877   3.278
35427W        W36291   5.192  13.054   3.149
35428W        W36292   5.362  12.710   2.783
35429W        W36293   3.594  11.969   3.418
35430W        W36294   6.351  13.569   3.113
35431W        W36295   4.264  11.253   0.967
35432W        W36296   4.705  13.524   2.045
35433W        W36297   7.025  13.314   1.522
35434W        W36298   6.659  11.449   1.792
35435W        W36299   6.904  11.696  28.992
35436W        W36300   7.290  12.377   2.361
35437W        W36301   5.107  14.387   2.057
35438W        W36302   6.928  13.559   0.623
35439W        W36303   4.218  14.633   0.603
35440W        W36304   4.456  14.513   1.049
35441W        W36305   4.385  11.224   2.311
35442W        W36306   6.844  12.464   2.602
35443W        W36307   6.377  12.508   1.249
35444W        W36308   6.351  12.349   0.280
35445W        W36309   5.450  13.589   2.014
35446W        W36310   5.540  11.943   1.534
35447W        W36311   5.869  14.101   2.396
35448W        W36312   6.855  12.649   1.058
35449W        W36313   5.697  11.438   0.870
35450W        W36314   4.346  14.136   0.713
35451W        W36315   3.862  11.495   1.226
35452W        W36316   6.524  11.969   1.749
35453W        W36317   4.043  13.780   1.637
35454W        W36318   5.302  13.968   0.637
35455W        W36319   6.640  12.125  28.890
35456W        W36320   3.803  13.855   2.172
35457W        W36321   4.553  13.618   2.522
35458W        W36322   4.769  12.856   1.252
35459W        W36323   4.930  11.369   2.200
35460W        W36324   7.283  10.963   1.719
35461W        W36325   4.361  12.893   0.162
35462W        W36326   4.149  11.969   0.397
35463W        W36327   4.139  13.914   1.143
35464W        W36328   5.103  13.259   1.205
35465W        W36329   6.601  14.282   2.762
35466W        W36330   5.508  11.873   0.652
35467W        W36331   6.979  14.346   1.504
35468W        W36332   6.531  12.226   2.952
35469W        W36333   7.212  13.608   1.131
35470W        W36334   5.872  13.121   2.524
35471W        W36335   3.589  12.367   1.187
35472W        W36336   4.642  13.125   2.373
35473W        W36337   6.043  12.301   0.891
35474W        W36338   5.951  12.772   1.097
35475W        W36339   4.257  12.102   2.245
35476W        W36340   4.182  12.084   3.075
35477W        W36341   4.058  11.046   1.380
35478W        W36342   5.753  11.476   1.887
35479W        W36343   5.484  11.441   3.106
35480W        W36344   6.114  11.414   0.537
35481W        W36345   7.023  14.106   2.957
35482W        W36346   5.913  11.033   3.050
35483W        W36347   6.933  13.626   3.152
35484W        W36348   6.445  11.590   2.616
35485W        W36349   6.182  11.499   1.122
35486W        W36350   6.586  12.531   3.361
35487W        W36351   4.331  14.278   1.492
35488W        W36352   5.021  12.019   0.709
35489W        W36353   4.552  11.140   3.183
35490W        W36354   6.794  11.855   0.883
35491W        W36355   7.109  12.253   0.857
35492W        W36356   4.677  14.503   3.213
35493W        W36357   4.845  11.025   0.684
35494W        W36358   7.077  11.370   1.500
35495W        W36359   7.136  13.828   0.224
35496W        W36360   3.858  12.887   1.768
35497W        W36361   6.020  11.527   0.043
35498W        W36362   7.258  13.797   1.615
35499W        W36363   7.033  11.024   2.357
35500W        W36364   5.580  12.238   2.791
35501W        W36365   5.284  13.264   0.736
35502W        W36366   6.114  12.736   3.257
35503W        W36367   5.774  11.020   1.654
35504W        W36368   4.231  11.913   1.778
35505W        W36369   4.052  12.818   2.597
35506W        W36370   5.858  14.222   1.491
35507W        W36371   6.766  11.701   2.208
35508W        W36372   5.758  14.471   2.751
35509W        W36373   6.965  13.077   0.286
35510W        W36374   5.284  12.771   1.122
35511W        W36375   7.153  11.019   2.853
35512W        W36376   5.362  13.148   2.480
35513W        W36377   5.634  11.933   2.072
35514W        W36378   6.547  12.296   0.817
35515W        W36379   6.817  12.130   0.400
35516W        W36380   6.852  13.938   0.953
35517W        W36381   6.462  13.468   1.556
35518W        W36382   6.045  12.679   0.537
35519W        W36383   5.666  12.849   1.524
35520W        W36384   6.683  12.503   1.670
35521W        W36385   4.084  11.613   2.194
35522W        W36386   6.519  12.744   2.892
35523W        W36387   7.159  14.218   1.988
35524W        W36388   5.001  13.707   1.430
35525W        W36389   6.218  14.485   2.503
35526W        W36390   5.918  11.678   2.450
35527W        W36391   5.318  14.639   2.482
35528W        W36392   7.021  11.396   0.992
35529W        W36393   6.659  12.692   2.147
35530W        W36394   3.754  11.831   2.519
35531W        W36395   6.659  11.649   1.325
35532W        W36396   6.829  11.956   2.646
35533W        W36397   5.891  13.678   1.389
35534W        W36398   5.158  14.125   1.123
35535W        W36399   4.180  11.436   0.484
35536W        W36400   5.376  11.063   1.995
35537W        W36401   4.411  14.126   0.192
35538W        W36402   4.567  12.735   0.623
35539W        W36403   5.372  13.516   2.832
35540W        W36404   5.297  11.667   1.156
35541W        W36405   6.604  11.137   1.375
35542W        W36406   6.394  14.486   1.633
35543W        W36407   5.600  14.259   1.971
35544W        W36408   5.101  13.189   2.035
35545W        W36409   6.913  13.905   2.329
35546W        W36410   4.756  11.390   1.026
35547W        W36411   5.040  13.892   1.930
35548W        W36412   4.611  11.512   0.113
35549W        W36413   5.362  12.291   2.341
35550W        W36414   6.073  11.118   2.079
35551W        W36415   3.733  13.006   2.252
35552W        W36416   5.387  12.698   0.276
35553W        W36417   4.718  11.018   0.188
35554W        W36418   5.381  12.200   1.048
35555W        W36419   6.148  11.183   2.587
35556W        W36420   4.905  13.305   2.771
35557W        W36421   5.679  13.052   2.989
35558W        W36422   6.186  13.117   2.912
35559W        W36423   5.532  11.037   3.435
35560W        W36424   4.747  11.939   1.858
35561W        W36425   4.351  11.606   1.372
35562W        W36426   3.953  14.362   0.956
35563W        W36427   5.632  13.970   2.837
35564W        W36428   4.279  13.222   0.560
35565W        W36429   6.171  12.752   1.635
35566W        W36430   6.259  12.356   1.974
35567W        W36431   5.604  13.075   1.987
35568W        W36432   6.149  13.330   0.060
35569W        W36433   5.737  11.472   1.381
35570W        W36434   7.331  11.759   0.774
35571W        W36435   3.788  14.326   2.978
35572W        W36436   4.122  13.410   2.309
35573W        W36437   3.520  14.361   0.697
35574W        W36438   5.436  11.484   2.272
35575W        W36439   4.787  13.952   0.532
35576W        W36440   7.098  14.228   0.593
35577W        W36441   5.619  12.367   0.608
35578W        W36442   4.689  11.886   1.080
35579W        W36443   5.631  11.886   0.073
35580W        W36444   5.875  13.519   2.920
35581W        W36445   6.562  11.380   0.791
35582W        W36446   3.745  11.141   0.289
35583W        W36447   5.089  13.583   2.375
35584W        W36448   4.758  13.253   1.608
35585W        W36449   4.653  13.479   0.337
35586W        W36450   3.763  13.889   0.767
35587W        W36451   4.385  12.564   2.928
35588W        W36452   5.026  11.008   3.355
35589W        W36453   5.653  11.257   2.664
35590W        W36454   5.026  10.978   1.171
35591W        W36455   5.746  11.015   0.567
35592W        W36456   3.904  11.077   2.175
35593W        W36457   3.775  11.872   1.560
35594W        W36458   6.792  10.975   1.883
35595W        W36459   4.223  11.762   0.883
35596W        W36460   6.560  11.223   2.266
35597W        W36461   7.145  12.551   0.216
35598W        W36462   4.512  11.476   1.870
35599W        W36463   5.458  11.757   2.691
35600W        W36464   3.710  11.650   0.360
35601W        W36465   4.391  13.126   2.831
35602W        W36466   5.734  12.439   1.897
35603W        W36467   5.486  14.452   0.533
35604W        W36468   3.855  12.995   0.241
35605W        W36469   4.548  13.643   3.021
35606W        W36470   4.023  12.309   2.639
35607W        W36471   5.020  12.765   2.396
35608W        W36472   6.624  11.047   2.759
35609W        W36473   7.279  12.709   2.759
35610W        W36474   7.221  12.747   0.676
35611W        W36475   6.006  13.168   0.705
35612W        W36476   6.694  14.476   0.238
35613W        W36477   5.689  12.447   3.228
35614W        W36478   4.201  13.388   3.289
35615W        W36479   7.312  11.434   3.336
35616W        W36480   6.842  12.198   2.127
35617W        W36481   5.171  14.421   3.394
35618W        W36482   5.236  11.109   0.361
35619W        W36483   6.607  13.543   0.219
35620W        W36484   4.524  11.702   3.106
35621W        W36485   4.972  13.844   2.787
35622W        W36486   6.963  11.456   2.626
35623W        W36487   6.527  14.608   0.730
35624W        W36488   6.450  13.127   1.937
35625W        W36489   4.628  11.360   2.725
35626W        W36490   5.166  12.484   3.189
35627W        W36491   4.466  13.639   0.811
35628W        W36492   6.405  12.853   0.873
35629W        W36493   4.224  11.725   2.691
35630W        W36494   5.439  13.674   1.110
35631W        W36495   7.216  12.284   1.502
35632W        W36496   5.381  10.928   2.969
35633W        W36497   6.392  13.676   2.011
35634W        W36498   6.665  14.118   1.902
35635W        W36499   5.660  13.539   0.505
35636W        W36500   3.755  13.672   3.274
35637W        W36501   4.590  11.727   2.328
35638W        W36502   4.563  11.122   1.419
35639W        W36503   6.257  11.613   2.073
35640W        W36504   4.973  13.033   0.368
35641W        W36505   6.971  13.080   1.984
35642W        W36506   4.135  13.955   3.082
35643W        W36507   6.957  14.513   1.001
35644W        W36508   4.860  11.548   1.498
35645W        W36509   4.354  12.873   1.578
35646W        W36510   4.719  14.598   2.342
35647W        W36511   6.744  14.540   3.190
35648W        W36512   6.064  12.819   2.128
35649W        W36513   4.020  12.559   0.486
35650W        W36514   7.298  14.138   1.113
35651W        W36515   6.919  11.598   0.480
35652W        W36516   4.879  10.917   2.855
35653W        W36517   6.783  13.853   1.453
35654W        W36518   6.769  12.170   1.287
35655W        W36519   5.040  12.024   1.428
35656W        W36520   5.018  12.316   2.712
35657W        W36521   6.237  13.530   2.556
35658W        W36522   4.900  11.796   2.752
35659W        W36523   4.904  14.222   1.553
35660W        W36524   4.185  14.468   3.258
35661W        W36525   4.143  13.746   0.425
35662W        W36526   6.734  13.430   1.124
35663W        W36527   4.532  12.144   2.664
35664W        W36528   7.326  12.109   0.403
35665W        W36529   4.753  13.195   0.815
35666W        W36530   5.923  12.642   2.778
35667W        W36531   5.896  12.262   2.370
35668W        W36532   4.488  12.609   2.416
35669W        W36533   6.722  14.440   2.303
35670W        W36534   6.363  11.224   3.282
35671W        W36535   4.052  11.245   3.172
35672W        W36536   4.415  12.441   1.895
35673W        W36537   4.768  12.008   0.232
35674W        W36538   3.668  13.865   2.786
35675W        W36539   5.269  12.653   1.978
35676W        W36540   5.150  11.641   0.199
35677W        W36541   4.373  12.535   1.080
35678W        W36542   3.761  14.276   2.472
35679W        W36543   6.738  12.647   0.515
35680W        W36544   6.846  11.352   3.124
35681W        W36545   6.356  13.774   1.125
35682W        W36546   3.910  12.519   3.115
35683W        W36547   6.974  11.097   0.531
35684W        W36548   6.432  13.459   0.713
35685W        W36549   5.124  12.543   0.685
35686W        W36550   6.558  11.320   0.219
35687W        W36551   6.382  12.026   2.361
35688W        W36552   3.948  12.375   1.653
35689W        W36553   4.421  13.505   1.305
35690W        W36554   6.285  12.002   1.261
35691W        W36555   5.231  11.648   1.835
35692W        W36556   7.212  13.379   2.377
35693W        W36557   7.168  11.405   2.032
35694W        W36558   3.811  14.201   1.419
35695W        W36559   4.006  13.453   0.958
35696W        W36560   4.110  11.216   3.703
35697W        W36561   5.024  13.900   3.704
35698W        W36562   7.088  12.803   1.482
35699W        W36563   6.451  13.057   0.397
35700W        W36564   5.797  14.657   2.267
35701W        W36565   6.514  13.072   3.314
35702W        W36566   5.301  10.777   0.739
35703W        W36567   6.019  11.880   1.687
35704W        W36568   3.770  13.405   1.907
35705W        W36569   5.155  11.486   0.698
35706W        W36570   4.697  13.170   3.228
35707W        W36571   5.808  11.893   1.088
35708W        W36572   6.014  13.363   2.115
35709W        W36573   4.139  13.929   2.571
35710W        W36574   4.830  14.027   3.250
35711W        W36575   4.649  11.662   0.603
35712W        W36576   6.296  11.846   0.770
35713W        W36577   6.160  13.985   2.829
35714W        W36578   4.882  12.478   1.634
35715W        W36579   4.258  14.367   2.325
35716W        W36580   7.170  14.327   0.096
35717W        W36581   3.871  13.031   3.026
35718W        W36582   5.987  13.235   1.629
35719W        W36583   4.323  13.055   1.076
35720W        W36584   4.785  14.053   2.355
35721W        W36585   5.292  11.255   1.519
35722W        W36586   3.762  13.415   0.513
35723W        W36587   5.266  12.183   0.277
35724W        W36588   3.932  12.749   1.268
35725W        W36589   5.147  11.323   2.669
35726W        W36590   7.052  11.207   0.045
35727W        W36591   6.951  12.876   3.112
35728W        W36592   5.678  14.361   3.246
35729W        W36593   7.193  13.267   2.871
35730W        W36594   6.558  14.041   3.208
35731W        W36595   4.291  14.682   1.873
35732W        W36596   7.268  13.088   1.091
35733W        W36597   5.888  12.335   1.402
35734W        W36598   5.559  11.020   1.142
35735W        W36599   4.649  14.015   1.140
35736W        W36600   5.090  11.864   2.288
35737W        W36601   4.885  11.054   1.802
35738W        W36602   3.936  14.233   0.395
35739W        W36603   5.662  13.200   1.120
35740W        W36604   4.551  14.155   2.818
35741W        W36605   3.911  12.971   0.779
35742W        W36606   3.989  11.432   1.731
35743W        W36607   5.464  13.371   1.560
35744W        W36608   3.762  11.291   0.775
35745W        W36609   6.326  12.511   2.488
35746W        W36610   6.431  11.810   0.268
35747W        W36611   6.893  13.609   1.913
35748W        W36612   5.443  13.923   1.588
35749W        W36613   4.911  14.407   0.742
35750W        W36614   6.121  11.028   0.164
35751W        W36615   3.994  14.242   1.897
35752W        W36616   5.731  11.901   3.194
35753W        W36617   4.085  11.708   3.419
35754W        W36618   4.052  12.122   1.202
35755W        W36619   4.531  12.201   0.689
35756W        W36620   6.161  12.191   3.318
35757W        W36621   4.739  12.840   1.955
35758W        W36622   6.080  11.001   1.238
35759W        W36623   5.360  14.457   1.534
35760W        W36624   6.401  14.019   2.372
35761W        W36625   6.290  13.969   1.593
35762W        W36626   6.212  13.250   1.164
35763W        W36627   5.613  11.471   0.364
35764W        W36628   7.282  10.993   1.186
35765W        W36629   4.883  12.532   0.232
35766W        W36630   7.157  11.834   1.254
35767W        W36631   5.754  13.052   0.278
35768W        W36632   6.675  13.261   2.849
35769W        W36633   6.652  13.993   0.481
35770W        W36634   4.970  11.450   3.129
35771W        W36635   4.843  12.321   2.194
35772W        W36636   6.658  13.771   2.749
35773W        W36637   6.007  11.534   2.951
35774W        W36638   3.636  12.133   2.912
35775W        W36639   5.624  12.712   2.351
35776W        W36640   3.965  13.258   1.431
35777W        W36641   3.966  12.520   2.164
35778W        W36642   6.393  13.029   2.456
35779W        W36643   6.219  14.458   3.060
35780W        W36644   6.074  12.038   2.809
35781W        W36645   6.550  14.262   1.206
35782W        W36646   5.336  14.043   2.398
35783W        W36647   4.594  14.279   1.943
35784W        W36648   6.699  13.421   2.346
35785W        W36649   5.523  13.431   3.316
35786W        W36650   4.289  13.364   1.809
35787W        W36651   6.599  12.978   1.397
35788W        W36652   6.139  14.271   2.007
35789W        W36653   4.317  13.863   2.099
35790W        W36654   5.231  11.975   3.086
35791W        W36655   5.620  14.329   1.034
35792W        W36656   5.028  13.558   3.204
35793W        W36657   4.971  13.661   0.905
35794W        W36658   4.404  12.382   0.206
35795W        W36659   3.746  14.589   7.224
35796W        W36660   4.097  13.463   6.668
35797W        W36661   6.942  12.993   4.414
35798W        W36662   7.134  14.138   6.405
35799W        W36663   4.754  14.344   3.692
35800W        W36664   4.673  12.481   5.150
35801W        W36665   4.248  12.167   5.315
35802W        W36666   4.800  12.957   4.900
35803W        W36667   5.123  14.325   6.667
35804W        W36668   3.715  11.746   6.723
35805W        W36669   4.333  10.949   6.593
35806W        W36670   6.406  11.211   5.466
35807W        W36671   5.833  11.981   3.693
35808W        W36672   6.420  11.608   7.029
35809W        W36673   3.782  11.415   6.307
35810W        W36674   3.855  14.075   7.251
35811W        W36675   5.085  13.317   3.634
35812W        W36676   3.911  12.141   5.714
35813W        W36677   4.713  12.254   6.978
35814W        W36678   6.895  11.748   5.738
35815W        W36679   6.956  13.157   6.359
35816W        W36680   5.263  12.059   5.471
35817W        W36681   5.905  13.884   5.706
35818W        W36682   4.141  13.134   5.941
35819W        W36683   3.425  12.693   5.694
35820W        W36684   4.631  12.629   6.619
35821W        W36685   6.950  12.334   6.888
35822W        W36686   4.496  14.078   5.552
35823W        W36687   5.753  13.627   6.462
35824W        W36688   4.896  11.957   5.817
35825W        W36689   5.121  12.857   5.774
35826W        W36690   6.203  13.893   7.286
35827W        W36691   5.341  13.033   7.246
35828W        W36692   5.330  12.915   6.738
35829W        W36693   3.580  12.082   7.118
35830W        W36694   6.485  13.703   6.896
35831W        W36695   4.016  11.095   4.807
35832W        W36696   4.597  13.789   5.982
35833W        W36697   7.151  13.460   5.426
35834W        W36698   6.392  11.588   5.816
35835W        W36699   6.705  11.536   3.589
35836W        W36700   7.233  12.405   6.212
35837W        W36701   5.392  14.149   6.153
35838W        W36702   7.310  13.788   4.466
35839W        W36703   4.047  14.681   4.295
35840W        W36704   4.253  14.548   4.783
35841W        W36705   4.247  11.247   6.156
35842W        W36706   6.779  12.308   6.410
35843W        W36707   6.630  12.591   5.112
35844W        W36708   6.327  12.166   3.826
35845W        W36709   5.584  13.581   5.991
35846W        W36710   5.121  11.641   5.179
35847W        W36711   5.919  14.033   6.200
35848W        W36712   6.756  12.541   4.611
35849W        W36713   6.044  11.554   4.485
35850W        W36714   4.153  14.186   4.411
35851W        W36715   3.679  11.550   4.972
35852W        W36716   6.307  12.247   5.351
35853W        W36717   3.987  13.962   5.422
35854W        W36718   5.019  14.277   4.127
35855W        W36719   6.656  12.032   3.456
35856W        W36720   3.669  14.020   6.072
35857W        W36721   4.430  13.795   6.462
35858W        W36722   4.769  12.921   5.408
35859W        W36723   4.667  11.416   5.924
35860W        W36724   7.232  10.992   5.403
35861W        W36725   4.252  12.878   3.326
35862W        W36726   4.206  11.691   3.917
35863W        W36727   4.055  14.087   4.922
35864W        W36728   4.849  13.387   5.204
35865W        W36729   6.694  14.160   6.669
35866W        W36730   5.570  11.336   4.380
35867W        W36731   7.203  14.440   5.093
35868W        W36732   6.423  12.399   6.759
35869W        W36733   7.533  14.026   5.108
35870W        W36734   5.778  13.074   6.512
35871W        W36735   3.151  12.624   4.911
35872W        W36736   4.463  13.286   6.308
35873W        W36737   5.971  12.002   4.191
35874W        W36738   5.838  12.615   5.322
35875W        W36739   4.001  12.250   6.216
35876W        W36740   4.066  12.174   6.931
35877W        W36741   3.941  11.012   5.346
35878W        W36742   5.583  11.623   5.499
35879W        W36743   5.530  11.532   6.917
35880W        W36744   5.863  11.535   3.954
35881W        W36745   7.138  14.056   6.920
35882W        W36746   5.879  11.121   6.941
35883W        W36747   6.938  13.541   7.075
35884W        W36748   6.463  11.457   6.525
35885W        W36749   6.461  11.406   4.997
35886W        W36750   6.634  12.667   7.157
35887W        W36751   4.214  14.404   5.281
35888W        W36752   5.243  11.635   4.091
35889W        W36753   4.566  11.312   6.940
35890W        W36754   6.565  11.684   4.563
35891W        W36755   6.928  12.070   4.508
35892W        W36756   4.800  14.373   7.112
35893W        W36757   4.608  10.841   4.184
35894W        W36758   6.897  11.393   5.366
35895W        W36759   7.176  14.033   3.433
35896W        W36760   3.775  13.075   5.573
35897W        W36761   5.886  11.398   3.445
35898W        W36762   7.192  13.870   5.734
35899W        W36763   7.039  10.917   6.150
35900W        W36764   5.571  12.473   6.889
35901W        W36765   4.909  13.881   4.436
35902W        W36766   6.090  12.941   7.410
35903W        W36767   5.942  11.305   5.698
35904W        W36768   4.398  11.817   5.661
35905W        W36769   3.990  13.046   6.424
35906W        W36770   5.679  14.184   5.333
35907W        W36771   6.679  11.808   6.197
35908W        W36772   5.636  14.183   6.636
35909W        W36773   6.866  12.853   3.645
35910W        W36774   5.194  12.563   5.359
35911W        W36775   7.164  11.025   6.643
35912W        W36776   5.325  13.328   6.436
35913W        W36777   5.419  11.892   5.928
35914W        W36778   6.444  12.137   4.360
35915W        W36779   6.786  11.942   3.994
35916W        W36780   6.925  14.004   4.772
35917W        W36781   6.241  13.466   5.684
35918W        W36782   6.159  12.518   4.158
35919W        W36783   5.611  12.627   5.784
35920W        W36784   6.622  12.600   5.627
35921W        W36785   3.973  11.674   5.917
35922W        W36786   6.757  12.764   6.648
35923W        W36787   7.155  14.372   5.961
35924W        W36788   4.908  13.791   5.515
35925W        W36789   6.229  14.320   6.490
35926W        W36790   6.090  11.349   6.184
35927W        W36791   5.248  14.628   6.243
35928W        W36792   6.870  11.279   4.728
35929W        W36793   6.797  12.737   6.111
35930W        W36794   3.602  11.914   6.210
35931W        W36795   6.565  11.793   5.338
35932W        W36796   6.614  11.924   6.688
35933W        W36797   5.703  13.463   5.506
35934W        W36798   5.149  14.203   5.266
35935W        W36799   4.083  11.291   4.239
35936W        W36800   5.487  11.061   5.653
35937W        W36801   4.216  14.489   3.789
35938W        W36802   4.373  13.258   4.980
35939W        W36803   5.604  13.382   6.881
35940W        W36804   5.345  11.035   4.733
35941W        W36805   6.743  10.973   5.121
35942W        W36806   6.508  14.688   5.673
35943W        W36807   5.730  14.352   5.822
35944W        W36808   4.959  13.223   6.096
35945W        W36809   6.837  13.847   6.096
35946W        W36810   4.495  11.186   4.584
35947W        W36811   5.100  13.717   6.030
35948W        W36812   4.534  11.488   3.562
35949W        W36813   5.266  12.124   6.354
35950W        W36814   6.231  10.913   5.863
35951W        W36815   3.651  13.000   6.070
35952W        W36816   5.116  12.797   3.600
35953W        W36817   4.599  10.979   3.671
35954W        W36818   5.131  11.506   4.647
35955W        W36819   6.161  10.978   6.523
35956W        W36820   4.856  13.089   6.605
35957W        W36821   5.787  12.922   7.003
35958W        W36822   6.280  12.921   6.881
35959W        W36823   5.540  11.218   7.324
35960W        W36824   4.692  11.468   5.414
35961W        W36825   4.167  11.628   5.211
35962W        W36826   3.758  14.427   4.664
35963W        W36827   5.418  13.850   7.008
35964W        W36828   4.792  13.565   4.029
35965W        W36829   6.127  12.551   5.735
35966W        W36830   6.302  12.086   5.848
35967W        W36831   5.510  13.066   6.038
35968W        W36832   6.007  13.248   3.369
35969W        W36833   5.954  11.324   5.184
35970W        W36834   7.070  11.608   4.388
35971W        W36835   3.779  14.308   6.776
35972W        W36836   4.024  13.608   6.170
35973W        W36837   3.388  14.293   4.327
35974W        W36838   5.535  11.397   6.022
35975W        W36839   4.545  14.065   4.074
35976W        W36840   7.181  14.644   4.273
35977W        W36841   5.921  12.490   3.684
35978W        W36842   4.611  11.599   4.922
35979W        W36843   5.436  11.625   3.588
35980W        W36844   6.095  13.378   7.095
35981W        W36845   6.430  11.198   4.453
35982W        W36846   3.721  10.998   4.014
35983W        W36847   4.871  13.567   6.457
35984W        W36848   4.684  13.364   5.695
35985W        W36849   4.632  13.591   3.533
35986W        W36850   3.666  13.919   4.570
35987W        W36851   4.325  12.601   7.090
35988W        W36852   5.049  11.292   7.169
35989W        W36853   5.683  11.214   6.485
35990W        W36854   4.879  10.831   4.635
35991W        W36855   5.911  11.037   4.088
35992W        W36856   3.826  11.165   5.868
35993W        W36857   3.749  11.993   5.247
35994W        W36858   6.803  10.925   5.676
35995W        W36859   4.128  11.573   4.683
35996W        W36860   6.603  11.205   6.061
35997W        W36861   6.998  12.334   3.660
35998W        W36862   4.234  11.333   5.624
35999W        W36863   5.513  11.692   6.432
36000W        W36864   3.626  11.508   4.006
36001W        W36865   4.365  13.026   6.766
36002W        W36866   5.854  12.275   6.107
36003W        W36867   5.649  14.723   4.015
36004W        W36868   3.759  12.797   3.511
36005W        W36869   4.577  13.487   6.860
36006W        W36870   4.069  12.593   6.638
36007W        W36871   5.051  12.754   6.271
36008W        W36872   6.675  10.997   6.522
36009W        W36873   7.266  12.806   6.589
36010W        W36874   7.241  12.733   4.756
36011W        W36875   6.485  14.561   3.628
36012W        W36876   5.649  12.593   7.386
36013W        W36877   4.225  13.519   7.225
36014W        W36878   7.297  11.440   7.155
36015W        W36879   6.792  12.225   5.921
36016W        W36880   5.327  14.348   7.131
36017W        W36881   5.085  10.847   3.846
36018W        W36882   7.186  13.229   3.397
36019W        W36883   4.394  11.791   6.868
36020W        W36884   4.905  13.899   6.862
36021W        W36885   6.967  11.407   6.356
36022W        W36886   6.690  14.676   4.102
36023W        W36887   6.403  12.996   5.871
36024W        W36888   4.579  11.485   6.467
36025W        W36889   5.171  12.386   7.194
36026W        W36890   4.467  13.885   4.696
36027W        W36891   6.873  13.054   4.933
36028W        W36892   4.117  11.780   6.419
36029W        W36893   5.326  13.694   5.235
36030W        W36894   6.876  12.205   5.416
36031W        W36895   5.363  11.044   6.850
36032W        W36896   6.368  13.973   5.903
36033W        W36897   6.765  14.217   5.664
36034W        W36898   5.358  13.938   3.272
36035W        W36899   3.763  13.586   7.023
36036W        W36900   4.531  11.874   6.153
36037W        W36901   4.415  11.130   5.142
36038W        W36902   5.909  11.769   5.960
36039W        W36903   4.639  13.053   3.712
36040W        W36904   6.983  13.275   5.872
36041W        W36905   4.131  13.928   6.860
36042W        W36906   6.883  14.541   4.696
36043W        W36907   4.910  11.191   4.991
36044W        W36908   4.290  13.137   5.459
36045W        W36909   4.821  14.658   5.954
36046W        W36910   6.797  14.554   6.988
36047W        W36911   5.952  12.795   6.134
36048W        W36912   4.001  12.253   3.546
36049W        W36913   7.333  14.273   4.618
36050W        W36914   6.768  11.337   4.073
36051W        W36915   4.844  11.037   6.485
36052W        W36916   7.022  13.983   5.274
36053W        W36917   6.572  12.121   4.900
36054W        W36918   4.750  11.989   5.322
36055W        W36919   5.097  12.453   6.689
36056W        W36920   6.183  13.400   6.595
36057W        W36921   4.839  11.938   6.582
36058W        W36922   4.778  14.489   5.463
36059W        W36923   4.241  14.417   7.083
36060W        W36924   4.377  14.050   3.525
36061W        W36925   7.243  13.627   4.958
36062W        W36926   4.395  12.196   6.537
36063W        W36927   7.134  11.816   3.631
36064W        W36928   4.749  13.446   4.682
36065W        W36929   5.984  12.592   6.603
36066W        W36930   5.750  12.110   6.589
36067W        W36931   4.316  12.677   6.217
36068W        W36932   6.668  14.322   6.175
36069W        W36933   6.398  11.102   6.966
36070W        W36934   4.074  11.369   6.746
36071W        W36935   4.376  12.285   5.879
36072W        W36936   4.950  11.812   3.474
36073W        W36937   3.695  13.797   6.551
36074W        W36938   5.212  12.366   5.917
36075W        W36939   4.992  11.352   3.734
36076W        W36940   4.321  12.639   5.509
36077W        W36941   3.872  14.523   6.171
36078W        W36942   6.684  12.482   4.048
36079W        W36943   6.851  11.352   6.880
36080W        W36944   6.751  13.536   5.120
36081W        W36945   3.745  12.570   7.016
36082W        W36946   6.887  10.827   4.070
36083W        W36947   6.890  13.486   4.614
36084W        W36948   4.902  12.298   3.630
36085W        W36949   6.308  11.257   3.813
36086W        W36950   6.206  11.964   6.367
36087W        W36951   3.809  12.533   5.364
36088W        W36952   4.415  13.727   5.191
36089W        W36953   6.155  11.809   4.943
36090W        W36954   5.132  11.499   5.700
36091W        W36955   7.255  13.558   6.207
36092W        W36956   7.148  11.304   5.836
36093W        W36957   3.697  14.369   5.183
36094W        W36958   3.605  13.333   4.879
36095W        W36959   4.125  11.221   7.247
36096W        W36960   5.022  13.983   7.374
36097W        W36961   7.100  12.697   5.251
36098W        W36962   6.351  12.773   3.738
36099W        W36963   5.770  14.535   6.292
36100W        W36964   6.573  13.176   7.226
36101W        W36965   5.376  10.806   4.273
36102W        W36966   6.074  11.761   5.457
36103W        W36967   3.708  13.593   5.719
36104W        W36968   5.022  11.178   4.254
36105W        W36969   4.899  12.811   7.041
36106W        W36970   5.622  11.558   4.857
36107W        W36971   6.018  13.313   6.118
36108W        W36972   4.062  14.122   6.402
36109W        W36973   4.512  13.956   7.181
36110W        W36974   4.561  11.328   4.055
36111W        W36975   6.360  11.682   4.084
36112W        W36976   6.041  13.906   6.777
36113W        W36977   4.791  12.446   5.652
36114W        W36978   4.472  14.344   6.190
36115W        W36979   6.994  14.412   3.771
36116W        W36980   3.887  13.062   6.957
36117W        W36981   5.916  13.036   5.690
36118W        W36982   4.037  13.602   4.782
36119W        W36983   4.867  14.063   6.335
36120W        W36984   5.413  11.227   5.193
36121W        W36985   3.366  13.274   4.418
36122W        W36986   5.384  12.154   3.536
36123W        W36987   3.935  12.970   5.088
36124W        W36988   5.071  11.470   6.685
36125W        W36989   6.992  11.124   3.633
36126W        W36990   7.024  13.030   7.004
36127W        W36991   5.820  14.226   7.120
36128W        W36992   7.292  13.352   6.686
36129W        W36993   6.711  14.045   7.184
36130W        W36994   4.348  14.554   5.743
36131W        W36995   7.361  13.125   5.101
36132W        W36996   5.777  12.156   5.611
36133W        W36997   5.721  10.821   5.090
36134W        W36998   4.628  14.261   5.032
36135W        W36999   5.044  11.641   6.201
36136W        W37000   5.007  11.060   5.466
36137W        W37001   3.800  14.282   4.026
36138W        W37002   5.474  12.997   5.430
36139W        W37003   4.536  14.241   6.696
36140W        W37004   3.536  12.857   4.685
36141W        W37005   3.728  11.486   5.475
36142W        W37006   5.207  13.378   5.657
36143W        W37007   3.644  11.316   4.513
36144W        W37008   6.343  12.468   6.208
36145W        W37009   6.244  11.725   3.569
36146W        W37010   6.719  13.669   5.630
36147W        W37011   5.384  13.954   5.677
36148W        W37012   4.660  14.335   4.525
36149W        W37013   6.025  10.904   3.572
36150W        W37014   3.865  14.404   5.662
36151W        W37015   5.695  12.060   7.192
36152W        W37016   3.989  11.768   7.218
36153W        W37017   3.603  12.372   4.886
36154W        W37018   4.747  11.793   3.939
36155W        W37019   6.082  12.485   7.136
36156W        W37020   4.615  12.890   5.889
36157W        W37021   6.244  10.924   4.999
36158W        W37022   5.273  14.530   5.664
36159W        W37023   6.397  13.838   6.398
36160W        W37024   6.172  14.312   5.520
36161W        W37025   6.293  12.901   5.367
36162W        W37026   5.454  11.199   3.906
36163W        W37027   7.201  10.869   4.902
36164W        W37028   4.702  12.658   3.332
36165W        W37029   6.897  11.733   4.950
36166W        W37030   5.614  12.904   3.471
36167W        W37031   6.648  13.259   6.730
36168W        W37032   6.964  14.184   4.266
36169W        W37033   4.860  11.756   7.075
36170W        W37034   4.783  12.323   6.209
36171W        W37035   6.909  13.690   6.579
36172W        W37036   5.989  11.582   6.675
36173W        W37037   3.674  12.243   6.607
36174W        W37038   5.524  12.590   6.358
36175W        W37039   3.938  13.466   5.267
36176W        W37040   3.946  12.642   5.857
36177W        W37041   6.370  12.967   6.379
36178W        W37042   6.326  14.317   6.992
36179W        W37043   6.130  12.011   6.923
36180W        W37044   6.704  14.506   5.212
36181W        W37045   5.290  13.828   6.523
36182W        W37046   4.937  14.177   5.844
36183W        W37047   6.546  13.413   6.150
36184W        W37048   5.658  13.441   7.386
36185W        W37049   4.228  13.595   5.683
36186W        W37050   6.790  13.067   5.449
36187W        W37051   6.198  14.469   6.009
36188W        W37052   4.148  14.056   5.910
36189W        W37053   5.287  11.989   6.861
36190W        W37054   5.123  14.263   4.732
36191W        W37055   5.095  13.409   6.934
36192W        W37056   4.903  13.845   4.976
36193W        W37057   4.471  12.014   3.539
36194W        W37058   3.644  14.603  10.753
36195W        W37059   4.057  13.484  10.219
36196W        W37060   6.811  13.066   8.086
36197W        W37061   6.892  14.247   9.970
36198W        W37062   4.606  14.235   7.599
36199W        W37063   4.845  12.344   8.452
36200W        W37064   4.519  12.086   8.782
36201W        W37065   5.284  12.941   8.065
36202W        W37066   5.126  14.209  10.373
36203W        W37067   3.705  11.737  10.355
36204W        W37068   4.254  11.031  10.156
36205W        W37069   6.194  11.282   8.988
36206W        W37070   5.925  12.234   7.637
36207W        W37071   6.389  11.803  10.513
36208W        W37072   3.867  11.391   9.941
36209W        W37073   3.842  14.135  10.820
36210W        W37074   5.191  13.544   7.643
36211W        W37075   3.744  12.046   9.359
36212W        W37076   4.823  12.310  10.506
36213W        W37077   6.895  11.868   9.072
36214W        W37078   6.931  13.038   9.893
36215W        W37079   5.394  12.315   8.894
36216W        W37080   5.851  13.764   9.330
36217W        W37081   4.268  13.016   9.508
36218W        W37082   3.540  12.502   9.228
36219W        W37083   4.773  12.684  10.139
36220W        W37084   6.951  12.431  10.556
36221W        W37085   4.495  13.776   8.976
36222W        W37086   5.658  13.590  10.026
36223W        W37087   5.053  12.155   9.323
36224W        W37088   5.058  12.961   8.938
36225W        W37089   5.976  13.871  10.775
36226W        W37090   5.311  13.001  10.840
36227W        W37091   5.304  12.853  10.330
36228W        W37092   3.538  12.021  10.763
36229W        W37093   6.382  13.630  10.536
36230W        W37094   4.044  11.209   8.447
36231W        W37095   4.627  13.474   9.470
36232W        W37096   6.975  13.332   8.859
36233W        W37097   6.493  11.587   9.264
36234W        W37098   6.761  11.652   7.405
36235W        W37099   7.249  12.361   9.749
36236W        W37100   5.126  14.283   9.527
36237W        W37101   7.056  13.783   7.919
36238W        W37102   3.933  14.441   8.072
36239W        W37103   4.302  14.448   8.425
36240W        W37104   4.364  11.278   9.705
36241W        W37105   6.792  12.301   9.964
36242W        W37106   6.306  12.554   8.667
36243W        W37107   6.408  12.408   7.549
36244W        W37108   5.454  13.522   9.538
36245W        W37109   5.471  11.756   8.867
36246W        W37110   5.829  14.008   9.811
36247W        W37111   6.813  12.679   8.456
36248W        W37112   5.696  11.539   8.135
36249W        W37113   4.290  14.060   8.079
36250W        W37114   3.704  11.572   8.537
36251W        W37115   6.399  12.060   9.052
36252W        W37116   3.959  13.853   9.073
36253W        W37117   5.193  14.031   7.868
36254W        W37118   6.576  12.099   7.175
36255W        W37119   3.817  13.875   9.586
36256W        W37120   4.550  13.542   9.983
36257W        W37121   4.944  12.846   8.444
36258W        W37122   4.853  11.452   9.644
36259W        W37123   7.152  10.997   9.157
36260W        W37124   4.501  13.078   7.256
36261W        W37125   4.057  11.885   7.708
36262W        W37126   4.122  13.821   8.578
36263W        W37127   4.861  13.343   8.544
36264W        W37128   6.527  14.112  10.314
36265W        W37129   5.606  12.061   8.041
36266W        W37130   6.867  14.356   9.004
36267W        W37131   6.485  12.284  10.392
36268W        W37132   7.303  13.739   8.722
36269W        W37133   5.870  13.099  10.114
36270W        W37134   3.525  12.697   8.360
36271W        W37135   4.703  13.069   9.783
36272W        W37136   5.915  12.384   8.327
36273W        W37137   5.805  12.896   8.270
36274W        W37138   4.109  12.187   9.757
36275W        W37139   4.120  12.174  10.472
36276W        W37140   3.922  11.063   8.928
36277W        W37141   5.722  11.512   9.323
36278W        W37142   5.477  11.577  10.430
36279W        W37143   5.744  11.750   7.652
36280W        W37144   7.018  14.109  10.505
36281W        W37145   5.838  11.205  10.446
36282W        W37146   6.882  13.600  10.646
36283W        W37147   6.462  11.496  10.106
36284W        W37148   6.158  11.532   8.405
36285W        W37149   6.512  12.712  10.674
36286W        W37150   4.244  14.250   8.899
36287W        W37151   5.140  11.857   7.935
36288W        W37152   4.447  11.342  10.578
36289W        W37153   6.583  11.816   8.248
36290W        W37154   6.957  12.223   8.214
36291W        W37155   4.777  14.471  10.680
36292W        W37156   4.532  11.103   7.921
36293W        W37157   6.949  11.385   8.885
36294W        W37158   7.133  13.854   7.427
36295W        W37159   4.061  12.954   9.040
36296W        W37160   5.947  11.560   7.218
36297W        W37161   7.106  13.873   9.165
36298W        W37162   7.072  11.009   9.689
36299W        W37163   5.624  12.464  10.454
36300W        W37164   5.360  13.465   8.154
36301W        W37165   6.135  12.870  10.971
36302W        W37166   5.741  11.054   9.051
36303W        W37167   4.194  11.953   9.152
36304W        W37168   3.961  13.045   9.948
36305W        W37169   5.779  14.117   8.909
36306W        W37170   6.670  11.755   9.704
36307W        W37171   5.652  14.303  10.205
36308W        W37172   6.969  12.887   7.516
36309W        W37173   5.418  12.581   8.441
36310W        W37174   7.093  11.005  10.256
36311W        W37175   5.390  13.165   9.919
36312W        W37176   5.547  12.015   9.289
36313W        W37177   6.426  12.337   8.191
36314W        W37178   6.699  12.025   7.783
36315W        W37179   6.712  13.976   8.250
36316W        W37180   6.375  13.430   8.970
36317W        W37181   6.106  12.660   7.873
36318W        W37182   5.649  12.804   8.941
36319W        W37183   6.673  12.499   9.077
36320W        W37184   4.071  11.698   9.581
36321W        W37185   6.683  12.738  10.210
36322W        W37186   7.136  14.285   9.451
36323W        W37187   4.963  13.960   8.871
36324W        W37188   6.174  14.374  10.040
36325W        W37189   6.163  11.523   9.671
36326W        W37190   5.274  14.532   9.942
36327W        W37191   6.895  11.332   8.354
36328W        W37192   6.698  12.681   9.602
36329W        W37193   3.677  11.897   9.844
36330W        W37194   6.522  11.641   8.749
36331W        W37195   6.809  11.856  10.196
36332W        W37196   5.822  13.587   8.841
36333W        W37197   5.080  14.310   8.506
36334W        W37198   4.132  11.366   7.749
36335W        W37199   5.343  11.135   9.411
36336W        W37200   4.101  14.414   7.574
36337W        W37201   4.801  12.759   7.948
36338W        W37202   5.385  13.357  10.398
36339W        W37203   5.260  11.552   8.437
36340W        W37204   6.576  11.077   8.697
36341W        W37205   6.346  14.454   9.092
36342W        W37206   5.610  14.222   9.391
36343W        W37207   5.079  13.160   9.434
36344W        W37208   6.936  13.848   9.662
36345W        W37209   4.485  11.422   8.340
36346W        W37210   5.010  13.806   9.407
36347W        W37211   4.445  11.612   7.375
36348W        W37212   5.391  12.317   9.681
36349W        W37213   6.174  11.014   9.474
36350W        W37214   3.755  12.891   9.496
36351W        W37215   5.205  12.677   7.619
36352W        W37216   4.615  11.130   7.410
36353W        W37217   5.282  12.069   8.434
36354W        W37218   6.094  11.154  10.015
36355W        W37219   4.917  13.201  10.224
36356W        W37220   5.759  12.980  10.612
36357W        W37221   6.239  13.116  10.476
36358W        W37222   5.491  11.249  10.848
36359W        W37223   4.692  11.789   9.253
36360W        W37224   4.181  11.641   8.722
36361W        W37225   3.819  14.263   8.542
36362W        W37226   5.527  13.867  10.464
36363W        W37227   4.454  13.360   7.725
36364W        W37228   6.161  12.741   9.122
36365W        W37229   6.301  12.375   9.448
36366W        W37230   5.578  12.984   9.476
36367W        W37231   6.317  13.457   7.562
36368W        W37232   5.731  11.376   8.643
36369W        W37233   7.101  11.725   8.072
36370W        W37234   3.912  14.317  10.319
36371W        W37235   4.136  13.475   9.699
36372W        W37236   3.446  14.293   8.132
36373W        W37237   4.734  13.787   7.811
36374W        W37238   6.872  14.282   7.850
36375W        W37239   5.614  12.556   7.921
36376W        W37240   4.812  11.838   8.348
36377W        W37241   5.315  11.730   7.346
36378W        W37242   5.880  13.476  10.467
36379W        W37243   6.440  11.134   8.187
36380W        W37244   3.764  11.036   7.603
36381W        W37245   5.031  13.520   9.829
36382W        W37246   4.949  13.470   9.033
36383W        W37247   4.764  13.536   7.336
36384W        W37248   3.722  13.858   8.219
36385W        W37249   4.404  12.614  10.532
36386W        W37250   4.881  11.093  10.563
36387W        W37251   5.600  11.338   9.969
36388W        W37252   4.885  11.171   8.549
36389W        W37253   6.153  11.471   7.878
36390W        W37254   3.910  11.215   9.454
36391W        W37255   3.780  12.001   8.836
36392W        W37256   6.647  11.088   9.205
36393W        W37257   4.058  11.668   8.179
36394W        W37258   6.591  11.240   9.680
36395W        W37259   6.933  12.361   7.442
36396W        W37260   4.308  11.451   9.201
36397W        W37261   5.556  11.977  10.093
36398W        W37262   3.656  11.553   7.611
36399W        W37263   4.411  13.058  10.220
36400W        W37264   5.763  12.480   9.351
36401W        W37265   5.606  14.455   7.566
36402W        W37266   3.826  12.832   7.448
36403W        W37267   4.534  13.512  10.479
36404W        W37268   4.077  12.579  10.136
36405W        W37269   5.135  12.757   9.777
36406W        W37270   6.595  10.998  10.136
36407W        W37271   7.198  12.690  10.160
36408W        W37272   7.214  12.751   8.033
36409W        W37273   6.082  13.179   7.929
36410W        W37274   6.557  14.465   7.454
36411W        W37275   5.682  12.595  10.975
36412W        W37276   4.110  13.490  10.770
36413W        W37277   7.256  11.486  10.743
36414W        W37278   6.808  12.185   9.465
36415W        W37279   5.225  14.352  10.873
36416W        W37280   5.012  11.024   7.724
36417W        W37281   6.856  13.399   7.604
36418W        W37282   4.534  11.862  10.467
36419W        W37283   4.981  13.722  10.308
36420W        W37284   6.965  11.416   9.975
36421W        W37285   6.423  14.673   7.929
36422W        W37286   6.424  13.114   9.413
36423W        W37287   4.595  11.500  10.110
36424W        W37288   5.224  12.493  10.770
36425W        W37289   4.491  13.602   8.248
36426W        W37290   6.364  12.868   8.257
36427W        W37291   4.157  11.796  10.106
36428W        W37292   5.298  13.604   8.656
36429W        W37293   7.112  12.294   8.845
36430W        W37294   5.359  11.056  10.385
36431W        W37295   6.313  13.637   9.453
36432W        W37296   6.621  14.051   9.328
36433W        W37297   5.537  13.948   7.489
36434W        W37298   3.700  13.694  10.538
36435W        W37299   4.550  11.878   9.746
36436W        W37300   4.414  11.157   8.808
36437W        W37301   6.036  11.942   9.413
36438W        W37302   4.920  13.093   7.553
36439W        W37303   6.955  13.035   9.325
36440W        W37304   4.192  13.919  10.494
36441W        W37305   6.760  14.513   8.309
36442W        W37306   4.690  11.587   8.783
36443W        W37307   4.591  13.106   9.108
36444W        W37308   4.753  14.583   9.730
36445W        W37309   6.716  14.504  10.594
36446W        W37310   6.035  12.812   9.631
36447W        W37311   3.914  12.309   7.429
36448W        W37312   7.065  14.170   8.571
36449W        W37313   6.686  11.473   7.871
36450W        W37314   4.771  11.014  10.060
36451W        W37315   6.747  13.793   8.801
36452W        W37316   6.674  12.205   8.640
36453W        W37317   5.010  11.968   8.852
36454W        W37318   5.206  12.383  10.154
36455W        W37319   6.220  13.517  10.061
36456W        W37320   4.927  11.932  10.142
36457W        W37321   4.719  14.450   8.832
36458W        W37322   4.276  14.421  10.662
36459W        W37323   4.217  13.880   7.602
36460W        W37324   6.997  13.550   8.366
36461W        W37325   4.486  12.240  10.120
36462W        W37326   7.188  11.911   7.492
36463W        W37327   4.886  13.311   8.025
36464W        W37328   6.084  12.654  10.344
36465W        W37329   5.898  12.260   9.812
36466W        W37330   4.425  12.606   9.760
36467W        W37331   6.530  14.462   9.650
36468W        W37332   6.330  11.294  10.564
36469W        W37333   3.961  11.314  10.453
36470W        W37334   4.536  12.269   9.368
36471W        W37335   4.901  12.049   7.491
36472W        W37336   3.688  13.900  10.078
36473W        W37337   5.265  12.632   9.281
36474W        W37338   4.900  11.536   7.585
36475W        W37339   4.484  12.790   8.716
36476W        W37340   3.780  14.377   9.830
36477W        W37341   6.751  12.580   7.894
36478W        W37342   6.824  11.412  10.481
36479W        W37343   6.584  13.274   8.508
36480W        W37344   3.805  12.558  10.613
36481W        W37345   6.949  11.024   7.879
36482W        W37346   6.575  13.512   8.028
36483W        W37347   5.157  12.377   8.036
36484W        W37348   6.379  11.306   7.447
36485W        W37349   6.322  11.989   9.986
36486W        W37350   3.923  12.502   8.823
36487W        W37351   4.358  13.337   8.697
36488W        W37352   6.225  12.030   8.557
36489W        W37353   5.182  11.624   9.260
36490W        W37354   7.210  13.443   9.783
36491W        W37355   7.014  11.466   9.423
36492W        W37356   3.590  14.252   8.990
36493W        W37357   3.999  13.407   8.275
36494W        W37358   4.093  11.261  10.962
36495W        W37359   5.142  13.845  10.810
36496W        W37360   7.099  12.824   8.874
36497W        W37361   6.498  12.978   7.701
36498W        W37362   5.776  14.538   9.760
36499W        W37363   6.595  13.200  10.829
36500W        W37364   5.287  11.077   8.190
36501W        W37365   5.997  11.746   8.928
36502W        W37366   3.691  13.347   9.280
36503W        W37367   4.921  11.405   8.076
36504W        W37368   4.872  12.855  10.609
36505W        W37369   5.759  11.896   8.489
36506W        W37370   5.941  13.336   9.665
36507W        W37371   4.196  13.931   9.974
36508W        W37372   4.662  13.968  10.713
36509W        W37373   4.520  11.690   7.895
36510W        W37374   6.106  11.951   8.049
36511W        W37375   6.028  13.943  10.278
36512W        W37376   4.866  12.472   8.953
36513W        W37377   4.303  14.350   9.709
36514W        W37378   7.064  14.352   7.388
36515W        W37379   3.961  13.035  10.481
36516W        W37380   5.950  13.209   9.177
36517W        W37381   4.481  13.076   8.263
36518W        W37382   4.724  14.008   9.781
36519W        W37383   5.275  11.267   8.884
36520W        W37384   3.466  13.478   7.956
36521W        W37385   5.397  12.182   7.602
36522W        W37386   3.993  12.947   8.518
36523W        W37387   5.106  11.423  10.099
36524W        W37388   6.876  11.148   7.365
36525W        W37389   6.985  12.959  10.571
36526W        W37390   5.697  14.319  10.713
36527W        W37391   7.183  13.365  10.285
36528W        W37392   6.578  14.022  10.821
36529W        W37393   4.390  14.612   9.266
36530W        W37394   7.177  13.077   8.441
36531W        W37395   5.918  12.269   8.904
36532W        W37396   5.554  10.878   8.592
36533W        W37397   4.589  14.042   8.528
36534W        W37398   5.206  11.836   9.726
36535W        W37399   4.814  11.268   9.156
36536W        W37400   3.738  14.080   7.752
36537W        W37401   5.395  13.100   8.561
36538W        W37402   4.599  14.178  10.252
36539W        W37403   3.688  13.011   7.964
36540W        W37404   3.797  11.555   9.080
36541W        W37405   5.444  13.291   9.065
36542W        W37406   3.690  11.304   8.065
36543W        W37407   6.327  12.508   9.933
36544W        W37408   6.270  11.847   7.518
36545W        W37409   6.777  13.515   9.290
36546W        W37410   5.405  13.822   9.101
36547W        W37411   4.780  14.252   8.086
36548W        W37412   5.990  10.956   7.413
36549W        W37413   3.964  14.295   9.336
36550W        W37414   5.709  12.089  10.810
36551W        W37415   4.105  11.735  10.723
36552W        W37416   3.731  12.194   8.365
36553W        W37417   4.695  12.183   7.946
36554W        W37418   6.121  12.390  10.790
36555W        W37419   4.775  12.725   9.401
36556W        W37420   6.075  10.975   8.587
36557W        W37421   5.279  14.337   9.012
36558W        W37422   6.438  13.959   9.833
36559W        W37423   6.244  13.928   9.011
36560W        W37424   6.106  13.048   8.697
36561W        W37425   5.361  11.403   7.772
36562W        W37426   7.228  10.981   8.634
36563W        W37427   4.723  12.543   7.451
36564W        W37428   6.980  11.815   8.571
36565W        W37429   5.639  13.015   7.690
36566W        W37430   6.676  13.266  10.286
36567W        W37431   6.621  13.875   7.652
36568W        W37432   4.969  11.616  10.569
36569W        W37433   4.865  12.309   9.772
36570W        W37434   6.815  13.737  10.155
36571W        W37435   5.971  11.636  10.177
36572W        W37436   3.699  12.233  10.214
36573W        W37437   5.629  12.680   9.957
36574W        W37438   3.857  13.377   8.791
36575W        W37439   4.061  12.498   9.343
36576W        W37440   6.366  13.033   9.942
36577W        W37441   6.196  14.351  10.603
36578W        W37442   5.990  12.117  10.362
36579W        W37443   6.504  14.227   8.658
36580W        W37444   5.300  13.974   9.925
36581W        W37445   4.684  14.192   9.274
36582W        W37446   6.647  13.438   9.780
36583W        W37447   5.539  13.492  10.867
36584W        W37448   4.194  13.425   9.193
36585W        W37449   6.594  12.968   8.917
36586W        W37450   6.127  14.200   9.462
36587W        W37451   4.315  13.893   9.454
36588W        W37452   5.277  12.042  10.528
36589W        W37453   5.454  14.001   8.347
36590W        W37454   4.980  13.369  10.710
36591W        W37455   4.974  13.798   8.289
36592W        W37456   4.391  12.118   7.348
36593W        W37457   3.740  14.594  14.394
36594W        W37458   4.097  13.450  13.816
36595W        W37459   6.924  13.106  11.914
36596W        W37460   7.197  14.175  13.638
36597W        W37461   4.649  14.270  11.145
36598W        W37462   4.970  12.229  11.963
36599W        W37463   4.509  12.072  12.486
36600W        W37464   5.378  12.925  11.740
36601W        W37465   5.140  14.237  13.954
36602W        W37466   3.661  11.631  13.995
36603W        W37467   4.305  10.853  13.813
36604W        W37468   6.249  11.351  12.742
36605W        W37469   5.884  12.202  11.289
36606W        W37470   6.281  11.807  14.280
36607W        W37471   3.758  11.328  13.580
36608W        W37472   3.937  14.117  14.474
36609W        W37473   5.056  13.546  11.246
36610W        W37474   3.668  12.013  13.033
36611W        W37475   4.757  12.263  14.114
36612W        W37476   6.997  11.942  12.707
36613W        W37477   6.839  12.976  13.485
36614W        W37478   5.358  12.291  12.609
36615W        W37479   5.897  13.628  12.808
36616W        W37480   4.244  12.941  13.052
36617W        W37481   3.489  12.498  12.897
36618W        W37482   4.682  12.644  13.765
36619W        W37483   6.922  12.461  14.075
36620W        W37484   4.560  13.801  12.612
36621W        W37485   5.672  13.583  13.597
36622W        W37486   4.979  12.040  12.931
36623W        W37487   5.122  12.901  12.667
36624W        W37488   5.970  13.845  14.423
36625W        W37489   5.301  12.993  14.400
36626W        W37490   5.410  12.818  13.915
36627W        W37491   3.599  11.965  14.431
36628W        W37492   6.388  13.650  14.154
36629W        W37493   4.032  11.191  12.056
36630W        W37494   4.710  13.555  13.131
36631W        W37495   7.177  13.332  12.712
36632W        W37496   6.557  11.756  12.928
36633W        W37497   6.584  11.567  10.941
36634W        W37498   7.257  12.422  13.408
36635W        W37499   5.451  14.244  13.107
36636W        W37500   7.042  13.710  11.508
36637W        W37501   4.023  14.446  11.673
36638W        W37502   4.442  14.397  12.041
36639W        W37503   4.238  11.176  13.392
36640W        W37504   6.776  12.462  13.574
36641W        W37505   6.292  12.511  12.285
36642W        W37506   6.298  12.508  11.324
36643W        W37507   5.513  13.430  13.103
36644W        W37508   5.463  11.717  12.438
36645W        W37509   5.930  14.006  13.418
36646W        W37510   6.751  12.667  12.127
36647W        W37511   5.830  11.420  11.654
36648W        W37512   4.269  13.998  11.745
36649W        W37513   3.670  11.540  12.199
36650W        W37514   6.317  12.134  12.649
36651W        W37515   4.049  13.797  12.725
36652W        W37516   5.107  14.084  11.309
36653W        W37517   6.599  12.267  10.939
36654W        W37518   3.897  13.819  13.223
36655W        W37519   4.627  13.522  13.642
36656W        W37520   4.905  13.034  12.206
36657W        W37521   4.680  11.327  13.169
36658W        W37522   7.185  11.075  12.882
36659W        W37523   4.444  13.086  10.760
36660W        W37524   3.953  11.703  11.223
36661W        W37525   4.195  13.773  12.217
36662W        W37526   4.999  13.526  12.180
36663W        W37527   6.681  14.193  13.918
36664W        W37528   5.555  11.905  11.580
36665W        W37529   6.834  14.400  12.486
36666W        W37530   6.460  12.255  14.047
36667W        W37531   7.361  13.734  12.372
36668W        W37532   5.876  13.069  13.727
36669W        W37533   3.528  12.626  12.003
36670W        W37534   4.614  13.064  13.407
36671W        W37535   5.881  12.269  11.812
36672W        W37536   5.681  12.654  12.068
36673W        W37537   4.066  12.117  13.371
36674W        W37538   4.214  12.154  14.113
36675W        W37539   3.950  11.063  12.573
36676W        W37540   5.728  11.464  12.844
36677W        W37541   5.440  11.518  14.171
36678W        W37542   5.800  11.675  11.190
36679W        W37543   7.123  14.133  14.180
36680W        W37544   5.815  11.064  14.112
36681W        W37545   6.870  13.542  14.292
36682W        W37546   6.412  11.600  13.816
36683W        W37547   6.216  11.511  12.011
36684W        W37548   6.535  12.642  14.387
36685W        W37549   4.256  14.214  12.496
36686W        W37550   5.070  11.773  11.378
36687W        W37551   4.465  11.270  14.091
36688W        W37552   6.610  11.837  11.864
36689W        W37553   7.000  12.264  11.902
36690W        W37554   4.767  14.424  14.303
36691W        W37555   4.487  10.943  11.564
36692W        W37556   6.914  11.438  12.612
36693W        W37557   7.124  13.851  11.017
36694W        W37558   3.843  12.911  12.726
36695W        W37559   5.919  11.644  10.685
36696W        W37560   7.163  13.809  12.857
36697W        W37561   6.991  11.062  13.385
36698W        W37562   5.675  12.342  13.897
36699W        W37563   5.404  13.439  11.839
36700W        W37564   6.097  12.825  14.556
36701W        W37565   5.866  10.985  12.725
36702W        W37566   4.137  11.906  12.831
36703W        W37567   4.113  12.986  13.563
36704W        W37568   5.919  14.186  12.387
36705W        W37569   6.855  12.136  13.175
36706W        W37570   5.705  14.329  13.773
36707W        W37571   6.721  12.776  11.132
36708W        W37572   5.194  12.611  12.225
36709W        W37573   7.104  11.113  13.894
36710W        W37574   5.431  13.119  13.501
36711W        W37575   5.559  11.946  12.920
36712W        W37576   6.458  12.324  11.808
36713W        W37577   6.563  11.922  11.350
36714W        W37578   6.719  13.977  11.835
36715W        W37579   6.287  13.364  12.546
36716W        W37580   6.142  12.726  11.844
36717W        W37581   5.610  12.738  12.571
36718W        W37582   6.530  12.907  12.546
36719W        W37583   3.965  11.626  13.231
36720W        W37584   6.557  12.778  13.896
36721W        W37585   7.133  14.270  13.062
36722W        W37586   5.055  13.880  12.538
36723W        W37587   6.233  14.387  13.695
36724W        W37588   5.973  11.625  13.472
36725W        W37589   5.306  14.557  13.529
36726W        W37590   6.711  11.371  12.065
36727W        W37591   6.539  12.678  13.168
36728W        W37592   3.604  11.862  13.523
36729W        W37593   6.499  11.693  12.414
36730W        W37594   6.790  11.981  13.728
36731W        W37595   5.816  13.424  12.333
36732W        W37596   5.131  14.161  12.105
36733W        W37597   4.104  11.275  11.490
36734W        W37598   5.427  11.087  13.054
36735W        W37599   4.149  14.427  11.164
36736W        W37600   4.919  12.713  11.760
36737W        W37601   5.401  13.347  13.973
36738W        W37602   5.435  11.313  12.035
36739W        W37603   6.608  11.059  12.453
36740W        W37604   6.316  14.421  12.668
36741W        W37605   5.942  14.140  12.912
36742W        W37606   5.050  13.165  13.110
36743W        W37607   6.916  13.867  13.308
36744W        W37608   4.514  11.330  11.916
36745W        W37609   5.166  13.797  13.030
36746W        W37610   4.581  11.667  10.949
36747W        W37611   5.313  12.099  13.362
36748W        W37612   6.181  10.986  13.178
36749W        W37613   3.747  12.868  13.233
36750W        W37614   5.249  12.705  11.272
36751W        W37615   4.571  11.050  11.013
36752W        W37616   5.472  12.171  12.132
36753W        W37617   6.104  11.175  13.676
36754W        W37618   4.972  13.154  13.786
36755W        W37619   5.766  13.038  14.225
36756W        W37620   6.250  13.136  14.092
36757W        W37621   5.422  11.178  14.581
36758W        W37622   4.673  11.638  12.739
36759W        W37623   4.141  11.575  12.419
36760W        W37624   3.914  14.192  12.101
36761W        W37625   5.525  13.880  14.049
36762W        W37626   4.508  13.278  11.423
36763W        W37627   6.131  12.662  12.754
36764W        W37628   6.204  12.309  13.110
36765W        W37629   5.496  12.908  13.045
36766W        W37630   6.101  13.381  10.921
36767W        W37631   5.852  11.327  12.335
36768W        W37632   7.114  11.794  11.690
36769W        W37633   3.961  14.362  13.966
36770W        W37634   4.226  13.426  13.307
36771W        W37635   3.547  14.278  11.743
36772W        W37636   5.486  11.591  13.291
36773W        W37637   4.632  13.829  11.408
36774W        W37638   6.650  14.078  11.341
36775W        W37639   5.774  12.677  11.485
36776W        W37640   5.216  11.769  11.952
36777W        W37641   5.358  11.732  10.936
36778W        W37642   5.880  13.500  14.064
36779W        W37643   6.426  11.143  11.699
36780W        W37644   3.685  11.045  11.253
36781W        W37645   5.133  13.528  13.464
36782W        W37646   4.869  13.374  12.666
36783W        W37647   4.593  13.535  10.990
36784W        W37648   3.749  13.789  11.818
36785W        W37649   4.381  12.645  14.192
36786W        W37650   4.962  11.261  14.314
36787W        W37651   5.568  11.286  13.703
36788W        W37652   4.898  11.017  12.080
36789W        W37653   6.021  10.993  11.411
36790W        W37654   3.787  11.135  13.099
36791W        W37655   3.711  11.961  12.525
36792W        W37656   6.667  11.092  12.973
36793W        W37657   3.953  11.683  11.791
36794W        W37658   6.455  11.413  13.329
36795W        W37659   6.801  12.359  11.427
36796W        W37660   4.239  11.371  12.887
36797W        W37661   5.553  11.833  13.750
36798W        W37662   3.472  11.531  11.302
36799W        W37663   4.471  13.105  13.912
36800W        W37664   5.717  12.428  12.974
36801W        W37665   5.551  14.451  11.287
36802W        W37666   3.686  13.227  10.907
36803W        W37667   4.552  13.599  14.140
36804W        W37668   4.066  12.509  13.774
36805W        W37669   5.062  12.775  13.447
36806W        W37670   6.601  11.067  13.759
36807W        W37671   7.208  12.801  13.782
36808W        W37672   7.104  12.741  11.587
36809W        W37673   5.831  13.132  11.888
36810W        W37674   6.460  14.489  11.050
36811W        W37675   5.661  12.569  14.379
36812W        W37676   4.127  13.602  14.471
36813W        W37677   7.216  11.551  14.438
36814W        W37678   6.715  12.456  12.717
36815W        W37679   5.254  14.373  14.447
36816W        W37680   4.968  10.983  11.347
36817W        W37681   6.663  13.599  11.145
36818W        W37682   4.547  11.779  14.073
36819W        W37683   5.027  13.731  13.912
36820W        W37684   6.881  11.495  13.634
36821W        W37685   6.384  14.351  11.700
36822W        W37686   6.365  13.129  12.995
36823W        W37687   4.573  11.538  13.633
36824W        W37688   5.171  12.521  14.266
36825W        W37689   4.542  13.556  11.847
36826W        W37690   6.429  13.112  12.062
36827W        W37691   4.101  11.745  13.745
36828W        W37692   5.465  13.792  12.202
36829W        W37693   7.164  12.335  12.416
36830W        W37694   5.316  11.005  14.069
36831W        W37695   6.290  13.762  13.104
36832W        W37696   6.682  14.071  12.896
36833W        W37697   5.561  13.974  11.079
36834W        W37698   3.725  13.625  14.139
36835W        W37699   4.477  11.817  13.214
36836W        W37700   4.487  11.177  12.443
36837W        W37701   6.057  11.827  13.015
36838W        W37702   4.870  13.062  11.115
36839W        W37703   6.872  13.022  12.971
36840W        W37704   4.145  13.904  14.049
36841W        W37705   6.820  14.481  11.941
36842W        W37706   4.991  11.461  12.325
36843W        W37707   4.573  12.932  12.601
36844W        W37708   4.797  14.481  13.461
36845W        W37709   6.818  14.542  14.262
36846W        W37710   5.980  12.799  13.233
36847W        W37711   3.955  12.193  10.980
36848W        W37712   7.131  14.119  12.105
36849W        W37713   6.759  11.476  11.500
36850W        W37714   4.754  11.055  13.623
36851W        W37715   6.839  13.863  12.446
36852W        W37716   6.678  12.169  12.286
36853W        W37717   5.014  11.969  12.416
36854W        W37718   5.158  12.390  13.768
36855W        W37719   6.208  13.504  13.685
36856W        W37720   4.963  11.920  13.785
36857W        W37721   4.762  14.292  12.502
36858W        W37722   4.268  14.510  14.342
36859W        W37723   4.257  13.930  11.039
36860W        W37724   7.014  13.609  12.017
36861W        W37725   4.481  12.119  13.677
36862W        W37726   7.038  11.754  11.155
36863W        W37727   4.942  13.243  11.713
36864W        W37728   6.079  12.640  14.062
36865W        W37729   5.822  12.126  13.395
36866W        W37730   4.369  12.557  13.368
36867W        W37731   6.755  14.352  13.433
36868W        W37732   6.309  11.228  14.194
36869W        W37733   3.960  11.192  14.032
36870W        W37734   4.498  12.269  12.964
36871W        W37735   4.949  12.044  10.934
36872W        W37736   3.757  13.899  13.707
36873W        W37737   5.202  12.495  13.042
36874W        W37738   5.002  11.361  11.012
36875W        W37739   4.642  12.590  12.190
36876W        W37740   3.797  14.376  13.486
36877W        W37741   6.601  12.811  11.642
36878W        W37742   6.792  11.438  14.145
36879W        W37743   6.467  13.653  12.155
36880W        W37744   3.854  12.504  14.277
36881W        W37745   6.959  11.016  11.533
36882W        W37746   6.613  13.469  11.693
36883W        W37747   5.382  12.403  11.685
36884W        W37748   6.257  11.475  11.329
36885W        W37749   6.390  11.942  13.411
36886W        W37750   3.819  12.465  12.467
36887W        W37751   4.492  13.362  12.312
36888W        W37752   6.200  12.024  12.135
36889W        W37753   5.194  11.578  12.857
36890W        W37754   7.120  13.405  13.407
36891W        W37755   6.959  11.518  13.133
36892W        W37756   3.735  14.211  12.571
36893W        W37757   4.051  13.357  11.937
36894W        W37758   4.123  11.190  14.521
36895W        W37759   4.970  13.926  14.386
36896W        W37760   7.051  12.858  12.515
36897W        W37761   6.396  13.158  11.315
36898W        W37762   5.843  14.532  13.301
36899W        W37763   6.537  13.157  14.521
36900W        W37764   5.309  10.903  11.733
36901W        W37765   5.973  11.780  12.516
36902W        W37766   3.812  13.368  12.959
36903W        W37767   5.020  11.353  11.714
36904W        W37768   4.838  12.897  14.206
36905W        W37769   5.765  11.764  12.029
36906W        W37770   5.985  13.333  13.262
36907W        W37771   4.281  13.889  13.563
36908W        W37772   4.460  14.027  14.418
36909W        W37773   4.624  11.408  11.390
36910W        W37774   6.120  11.865  11.627
36911W        W37775   6.050  13.970  13.926
36912W        W37776   4.868  12.447  12.625
36913W        W37777   4.298  14.376  13.397
36914W        W37778   6.953  14.320  11.020
36915W        W37779   3.985  12.976  14.066
36916W        W37780   5.879  13.123  12.793
36917W        W37781   4.482  13.031  11.909
36918W        W37782   4.827  13.961  13.447
36919W        W37783   5.393  11.207  12.545
36920W        W37784   3.444  13.401  11.590
36921W        W37785   5.379  12.201  11.185
36922W        W37786   3.963  12.891  12.194
36923W        W37787   5.066  11.418  13.821
36924W        W37788   6.950  11.236  11.066
36925W        W37789   6.918  12.970  14.210
36926W        W37790   5.753  14.304  14.295
36927W        W37791   7.187  13.316  13.931
36928W        W37792   6.665  14.053  14.418
36929W        W37793   4.447  14.474  12.911
36930W        W37794   7.301  13.228  12.233
36931W        W37795   5.856  12.291  12.459
36932W        W37796   5.621  10.844  12.269
36933W        W37797   4.674  13.947  12.130
36934W        W37798   4.979  11.705  13.326
36935W        W37799   4.927  11.164  12.747
36936W        W37800   3.835  14.061  11.354
36937W        W37801   5.421  13.092  12.240
36938W        W37802   4.628  14.089  13.917
36939W        W37803   3.683  12.942  11.621
36940W        W37804   3.725  11.511  12.754
36941W        W37805   5.374  13.455  12.610
36942W        W37806   3.632  11.288  11.725
36943W        W37807   6.238  12.474  13.595
36944W        W37808   6.206  11.926  10.993
36945W        W37809   6.698  13.538  12.848
36946W        W37810   5.533  13.959  12.679
36947W        W37811   4.809  14.252  11.700
36948W        W37812   5.993  11.209  10.950
36949W        W37813   3.983  14.267  12.997
36950W        W37814   5.781  11.934  14.272
36951W        W37815   4.091  11.663  14.277
36952W        W37816   3.676  12.121  12.044
36953W        W37817   4.940  12.288  11.431
36954W        W37818   6.100  12.295  14.466
36955W        W37819   4.743  12.730  13.041
36956W        W37820   6.150  10.905  12.287
36957W        W37821   5.247  14.383  12.639
36958W        W37822   6.457  13.928  13.555
36959W        W37823   6.307  13.886  12.600
36960W        W37824   6.025  12.946  12.332
36961W        W37825   5.400  11.375  11.359
36962W        W37826   7.134  11.027  12.351
36963W        W37827   4.778  12.552  11.010
36964W        W37828   6.990  11.776  12.210
36965W        W37829   5.703  13.086  11.163
36966W        W37830   6.671  13.298  13.855
36967W        W37831   6.037  14.207  11.147
36968W        W37832   4.977  11.755  14.326
36969W        W37833   4.836  12.301  13.363
36970W        W37834   6.918  13.752  13.811
36971W        W37835   5.926  11.548  13.969
36972W        W37836   3.725  12.143  13.932
36973W        W37837   5.548  12.584  13.453
36974W        W37838   3.974  13.340  12.454
36975W        W37839   3.999  12.458  12.986
36976W        W37840   6.336  13.028  13.517
36977W        W37841   6.297  14.375  14.219
36978W        W37842   6.071  12.015  13.830
36979W        W37843   6.439  14.202  12.208
36980W        W37844   5.354  13.995  13.549
36981W        W37845   4.899  14.234  13.002
36982W        W37846   6.608  13.440  13.354
36983W        W37847   5.534  13.449  14.460
36984W        W37848   4.346  13.376  12.809
36985W        W37849   6.794  13.316  12.380
36986W        W37850   6.320  14.299  13.193
36987W        W37851   4.412  13.974  13.072
36988W        W37852   5.317  12.061  14.142
36989W        W37853   5.462  14.033  11.698
36990W        W37854   4.994  13.397  14.309
36991W        W37855   5.016  13.778  11.741
36992W        W37856   4.455  12.177  10.860
36993W        W37857   3.730  14.601  18.007
36994W        W37858   4.126  13.497  17.416
36995W        W37859   6.880  13.080  15.535
36996W        W37860   6.952  14.263  17.361
36997W        W37861   4.614  14.288  14.821
36998W        W37862   5.155  12.384  15.574
36999W        W37863   4.454  12.644  16.439
37000W        W37864   5.515  12.741  15.380
37001W        W37865   5.126  14.159  17.601
37002W        W37866   3.705  11.758  17.608
37003W        W37867   4.338  10.914  17.488
37004W        W37868   6.138  11.383  16.250
37005W        W37869   5.958  12.188  15.126
37006W        W37870   6.369  11.784  17.944
37007W        W37871   3.776  11.356  17.268
37008W        W37872   3.836  14.104  18.116
37009W        W37873   5.135  13.570  14.794
37010W        W37874   3.846  12.114  16.654
37011W        W37875   4.877  12.278  17.756
37012W        W37876   6.903  11.956  16.398
37013W        W37877   6.910  12.993  17.238
37014W        W37878   5.408  12.123  15.986
37015W        W37879   5.949  13.597  16.515
37016W        W37880   4.262  13.147  16.918
37017W        W37881   3.481  12.685  16.588
37018W        W37882   4.829  12.679  17.367
37019W        W37883   7.059  12.484  17.949
37020W        W37884   4.525  13.899  16.250
37021W        W37885   5.692  13.573  17.377
37022W        W37886   5.008  12.177  16.532
37023W        W37887   5.247  12.904  16.285
37024W        W37888   6.035  13.930  18.105
37025W        W37889   5.349  12.962  18.123
37026W        W37890   5.450  12.810  17.570
37027W        W37891   3.515  11.881  18.088
37028W        W37892   6.440  13.656  17.852
37029W        W37893   3.993  11.021  15.815
37030W        W37894   4.791  13.635  16.640
37031W        W37895   7.120  13.376  16.336
37032W        W37896   6.487  11.767  16.652
37033W        W37897   6.659  11.665  14.588
37034W        W37898   7.313  12.430  17.089
37035W        W37899   5.333  14.287  16.747
37036W        W37900   7.033  13.812  15.162
37037W        W37901   3.971  14.503  15.322
37038W        W37902   4.329  14.471  15.669
37039W        W37903   4.337  11.264  17.076
37040W        W37904   6.854  12.481  17.312
37041W        W37905   6.207  12.557  15.817
37042W        W37906   6.322  12.479  14.905
37043W        W37907   5.591  13.586  16.874
37044W        W37908   5.320  11.629  16.084
37045W        W37909   5.936  13.916  17.100
37046W        W37910   6.696  12.730  15.893
37047W        W37911   5.772  11.295  15.435
37048W        W37912   4.231  14.038  15.381
37049W        W37913   3.682  11.446  15.815
37050W        W37914   6.243  12.113  16.341
37051W        W37915   3.999  13.941  16.404
37052W        W37916   5.088  14.097  14.870
37053W        W37917   6.588  12.170  14.566
37054W        W37918   3.755  14.031  16.862
37055W        W37919   4.495  13.629  17.062
37056W        W37920   5.074  12.896  15.694
37057W        W37921   4.838  11.350  16.921
37058W        W37922   7.085  11.116  16.524
37059W        W37923   4.451  13.170  14.423
37060W        W37924   4.019  11.616  14.806
37061W        W37925   4.171  13.896  15.880
37062W        W37926   4.982  13.406  15.770
37063W        W37927   6.551  14.151  17.658
37064W        W37928   5.618  11.810  15.147
37065W        W37929   6.824  14.353  16.317
37066W        W37930   6.608  12.296  17.733
37067W        W37931   7.312  13.760  16.048
37068W        W37932   5.889  13.073  17.457
37069W        W37933   3.355  12.749  16.083
37070W        W37934   4.756  13.144  17.060
37071W        W37935   5.749  12.311  15.595
37072W        W37936   5.860  12.944  15.715
37073W        W37937   4.093  12.070  17.117
37074W        W37938   4.164  12.127  17.637
37075W        W37939   4.028  11.037  16.330
37076W        W37940   5.672  11.424  16.451
37077W        W37941   5.518  11.534  17.756
37078W        W37942   5.799  11.385  14.931
37079W        W37943   7.008  14.078  17.933
37080W        W37944   5.877  11.138  17.738
37081W        W37945   6.948  13.560  18.020
37082W        W37946   6.480  11.562  17.511
37083W        W37947   6.159  11.524  15.752
37084W        W37948   6.623  12.636  18.176
37085W        W37949   4.229  14.329  16.148
37086W        W37950   5.116  11.868  15.065
37087W        W37951   4.470  11.288  17.834
37088W        W37952   6.572  11.779  15.550
37089W        W37953   6.881  12.318  15.569
37090W        W37954   4.690  14.356  17.821
37091W        W37955   4.612  10.906  15.205
37092W        W37956   6.949  11.485  16.188
37093W        W37957   7.122  13.844  14.638
37094W        W37958   4.153  13.063  16.422
37095W        W37959   5.893  11.446  14.449
37096W        W37960   7.153  13.852  16.536
37097W        W37961   7.011  11.106  17.042
37098W        W37962   5.743  12.368  17.599
37099W        W37963   5.351  13.240  15.405
37100W        W37964   6.156  12.760  18.332
37101W        W37965   5.771  10.957  16.246
37102W        W37966   4.233  11.799  16.472
37103W        W37967   3.885  13.022  17.244
37104W        W37968   5.901  14.214  16.127
37105W        W37969   6.866  12.188  16.868
37106W        W37970   5.686  14.307  17.495
37107W        W37971   6.751  12.771  14.836
37108W        W37972   5.467  12.633  15.890
37109W        W37973   7.124  11.042  17.543
37110W        W37974   5.495  13.155  17.142
37111W        W37975   5.457  11.922  16.503
37112W        W37976   6.383  12.240  15.415
37113W        W37977   6.432  11.944  14.993
37114W        W37978   6.681  14.022  15.486
37115W        W37979   6.418  13.432  16.349
37116W        W37980   6.066  12.654  15.335
37117W        W37981   5.767  12.859  16.212
37118W        W37982   6.628  12.931  16.402
37119W        W37983   4.008  11.617  16.890
37120W        W37984   6.675  12.793  17.681
37121W        W37985   7.085  14.302  16.773
37122W        W37986   5.055  13.863  16.061
37123W        W37987   6.190  14.348  17.308
37124W        W37988   6.218  11.759  17.112
37125W        W37989   5.273  14.477  17.215
37126W        W37990   6.930  11.390  15.655
37127W        W37991   6.659  12.687  16.885
37128W        W37992   3.599  11.861  17.108
37129W        W37993   6.499  11.736  16.104
37130W        W37994   6.891  11.866  17.763
37131W        W37995   5.917  13.375  16.052
37132W        W37996   5.173  14.296  15.753
37133W        W37997   4.357  11.278  14.988
37134W        W37998   5.417  10.997  16.649
37135W        W37999   4.116  14.473  14.828
37136W        W38000   5.054  12.866  15.173
37137W        W38001   5.475  13.288  17.733
37138W        W38002   5.286  11.347  15.646
37139W        W38003   6.538  11.246  15.954
37140W        W38004   6.316  14.452  16.373
37141W        W38005   5.754  14.054  16.609
37142W        W38006   5.160  13.152  16.731
37143W        W38007   6.985  13.871  17.033
37144W        W38008   4.411  11.255  15.565
37145W        W38009   5.262  13.802  16.564
37146W        W38010   4.523  11.523  14.535
37147W        W38011   5.433  12.255  16.916
37148W        W38012   6.098  11.361  16.768
37149W        W38013   3.746  13.105  16.767
37150W        W38014   5.280  12.616  14.765
37151W        W38015   4.626  11.016  14.607
37152W        W38016   5.226  11.863  15.569
37153W        W38017   6.158  11.239  17.271
37154W        W38018   5.078  13.134  17.443
37155W        W38019   5.827  12.968  17.962
37156W        W38020   6.279  13.137  17.772
37157W        W38021   5.472  11.207  18.164
37158W        W38022   4.737  11.740  16.571
37159W        W38023   4.150  11.474  16.062
37160W        W38024   3.848  14.267  15.766
37161W        W38025   5.568  13.876  17.795
37162W        W38026   4.351  13.499  15.155
37163W        W38027   6.211  12.627  16.365
37164W        W38028   6.344  12.241  16.839
37165W        W38029   5.617  12.863  16.706
37166W        W38030   6.052  13.344  14.538
37167W        W38031   5.717  11.355  15.941
37168W        W38032   7.123  11.802  15.395
37169W        W38033   3.830  14.258  17.612
37170W        W38034   3.967  13.573  16.942
37171W        W38035   3.498  14.330  15.398
37172W        W38036   5.574  11.596  16.921
37173W        W38037   4.689  13.874  15.120
37174W        W38038   6.660  14.122  14.972
37175W        W38039   5.773  12.645  14.914
37176W        W38040   4.818  11.574  15.717
37177W        W38041   5.451  11.701  14.658
37178W        W38042   5.929  13.500  17.822
37179W        W38043   6.463  11.281  15.395
37180W        W38044   3.769  11.050  14.888
37181W        W38045   5.108  13.529  17.067
37182W        W38046   5.051  13.383  16.275
37183W        W38047   4.631  13.602  14.672
37184W        W38048   3.727  13.843  15.494
37185W        W38049   4.467  12.579  17.718
37186W        W38050   4.953  11.116  17.974
37187W        W38051   5.655  11.256  17.295
37188W        W38052   4.876  11.043  15.774
37189W        W38053   6.099  11.013  15.122
37190W        W38054   3.862  11.111  16.827
37191W        W38055   3.814  11.905  16.164
37192W        W38056   6.587  11.277  16.494
37193W        W38057   3.950  11.429  15.303
37194W        W38058   6.578  11.390  17.006
37195W        W38059   6.797  12.294  15.050
37196W        W38060   4.428  11.304  16.557
37197W        W38061   5.523  11.889  17.346
37198W        W38062   3.515  11.483  14.984
37199W        W38063   4.389  12.997  17.402
37200W        W38064   5.869  12.376  16.653
37201W        W38065   5.520  14.450  14.878
37202W        W38066   3.712  13.219  14.450
37203W        W38067   4.662  13.435  17.513
37204W        W38068   4.130  12.558  17.277
37205W        W38069   5.223  12.738  17.050
37206W        W38070   6.617  11.065  17.439
37207W        W38071   7.268  12.753  17.529
37208W        W38072   7.092  12.691  15.240
37209W        W38073   5.842  13.104  15.210
37210W        W38074   6.530  14.620  14.662
37211W        W38075   5.788  12.467  18.118
37212W        W38076   4.308  13.537  17.899
37213W        W38077   7.264  11.520  18.059
37214W        W38078   6.667  12.414  16.445
37215W        W38079   5.185  14.289  18.110
37216W        W38080   5.036  11.007  14.922
37217W        W38081   6.449  13.669  14.677
37218W        W38082   4.573  11.840  17.702
37219W        W38083   5.159  13.653  17.556
37220W        W38084   6.952  11.522  17.333
37221W        W38085   6.297  14.559  15.104
37222W        W38086   6.471  13.165  16.817
37223W        W38087   4.692  11.444  17.408
37224W        W38088   5.326  12.479  17.930
37225W        W38089   4.562  13.678  15.614
37226W        W38090   6.336  13.094  15.539
37227W        W38091   4.188  11.637  17.416
37228W        W38092   5.439  13.663  15.717
37229W        W38093   7.063  12.368  16.115
37230W        W38094   5.355  11.062  17.666
37231W        W38095   6.318  13.661  16.839
37232W        W38096   6.661  14.028  16.672
37233W        W38097   5.481  13.942  14.577
37234W        W38098   3.806  13.686  17.799
37235W        W38099   4.547  11.784  17.054
37236W        W38100   4.463  11.068  16.077
37237W        W38101   5.951  11.858  16.677
37238W        W38102   4.903  13.087  14.719
37239W        W38103   7.006  13.073  16.736
37240W        W38104   4.256  14.013  17.718
37241W        W38105   6.776  14.531  15.607
37242W        W38106   4.835  11.403  16.190
37243W        W38107   4.653  13.137  16.560
37244W        W38108   4.893  14.500  16.870
37245W        W38109   6.792  14.535  17.914
37246W        W38110   6.143  12.757  16.884
37247W        W38111   4.073  12.091  14.597
37248W        W38112   7.013  14.141  15.859
37249W        W38113   6.769  11.575  15.092
37250W        W38114   4.862  10.968  17.490
37251W        W38115   6.779  13.799  16.194
37252W        W38116   6.580  12.232  15.971
37253W        W38117   4.918  11.938  16.086
37254W        W38118   5.262  12.355  17.408
37255W        W38119   6.223  13.510  17.382
37256W        W38120   4.974  11.920  17.395
37257W        W38121   4.906  14.509  16.135
37258W        W38122   4.233  14.435  18.043
37259W        W38123   4.233  13.933  14.869
37260W        W38124   6.942  13.637  15.719
37261W        W38125   4.547  12.234  17.329
37262W        W38126   7.057  11.924  14.772
37263W        W38127   4.871  13.392  15.245
37264W        W38128   6.178  12.625  17.774
37265W        W38129   5.909  12.170  17.129
37266W        W38130   4.526  12.687  16.958
37267W        W38131   6.620  14.443  16.997
37268W        W38132   6.357  11.241  17.922
37269W        W38133   3.965  11.238  17.729
37270W        W38134   4.473  12.204  16.757
37271W        W38135   5.116  12.142  14.624
37272W        W38136   3.672  13.831  17.325
37273W        W38137   5.427  12.450  16.413
37274W        W38138   4.984  11.483  14.764
37275W        W38139   4.763  12.948  16.101
37276W        W38140   3.883  14.484  17.154
37277W        W38141   6.587  12.695  15.341
37278W        W38142   6.848  11.361  17.816
37279W        W38143   6.422  13.623  15.853
37280W        W38144   3.964  12.592  17.758
37281W        W38145   6.972  11.118  15.204
37282W        W38146   6.627  13.500  15.337
37283W        W38147   5.438  12.287  15.160
37284W        W38148   6.313  11.409  14.859
37285W        W38149   6.658  11.995  17.297
37286W        W38150   3.879  12.625  16.265
37287W        W38151   4.533  13.411  16.098
37288W        W38152   6.143  12.032  15.812
37289W        W38153   5.183  11.461  16.560
37290W        W38154   7.196  13.415  17.112
37291W        W38155   7.031  11.586  16.764
37292W        W38156   3.701  14.371  16.237
37293W        W38157   4.098  13.466  15.611
37294W        W38158   4.099  11.287  18.240
37295W        W38159   5.160  13.772  18.102
37296W        W38160   7.095  12.878  16.213
37297W        W38161   6.310  12.999  15.001
37298W        W38162   5.764  14.436  16.996
37299W        W38163   6.613  13.161  18.137
37300W        W38164   5.183  10.897  15.390
37301W        W38165   5.836  11.818  16.160
37302W        W38166   3.656  13.556  16.510
37303W        W38167   4.843  11.356  15.259
37304W        W38168   4.951  12.806  17.839
37305W        W38169   5.718  11.783  15.653
37306W        W38170   5.985  13.273  16.989
37307W        W38171   4.146  14.023  17.203
37308W        W38172   4.737  13.845  17.823
37309W        W38173   4.599  11.750  14.994
37310W        W38174   6.102  11.677  15.270
37311W        W38175   6.061  13.949  17.597
37312W        W38176   5.012  12.477  16.095
37313W        W38177   4.403  14.474  17.025
37314W        W38178   7.014  14.335  14.682
37315W        W38179   3.978  13.119  17.744
37316W        W38180   6.065  13.106  16.515
37317W        W38181   4.547  13.157  15.638
37318W        W38182   4.940  14.002  16.979
37319W        W38183   5.274  11.113  16.139
37320W        W38184   3.464  13.395  15.310
37321W        W38185   5.627  12.183  14.704
37322W        W38186   4.055  13.025  15.908
37323W        W38187   5.193  11.454  17.316
37324W        W38188   6.865  11.218  14.698
37325W        W38189   7.069  13.015  17.941
37326W        W38190   5.678  14.334  18.015
37327W        W38191   7.292  13.349  17.609
37328W        W38192   6.548  14.093  18.167
37329W        W38193   4.517  14.533  16.516
37330W        W38194   7.251  13.238  15.868
37331W        W38195   5.845  12.348  16.120
37332W        W38196   5.560  10.905  15.744
37333W        W38197   4.680  14.142  15.814
37334W        W38198   5.112  11.828  16.919
37335W        W38199   4.896  11.004  16.510
37336W        W38200   3.771  14.110  15.016
37337W        W38201   5.446  13.188  15.920
37338W        W38202   4.630  14.103  17.367
37339W        W38203   3.503  12.903  15.610
37340W        W38204   3.783  11.478  16.437
37341W        W38205   5.548  13.304  16.425
37342W        W38206   3.578  11.094  15.404
37343W        W38207   6.336  12.493  17.294
37344W        W38208   6.002  11.837  14.748
37345W        W38209   6.793  13.536  16.681
37346W        W38210   5.596  13.779  16.185
37347W        W38211   4.873  14.319  15.303
37348W        W38212   5.908  10.963  14.622
37349W        W38213   4.036  14.399  16.652
37350W        W38214   5.820  11.976  17.919
37351W        W38215   4.106  11.704  17.930
37352W        W38216   3.421  12.352  15.735
37353W        W38217   4.934  12.360  15.065
37354W        W38218   6.243  12.248  18.117
37355W        W38219   4.937  12.683  16.624
37356W        W38220   6.095  11.007  15.828
37357W        W38221   5.378  14.262  16.241
37358W        W38222   6.502  13.960  17.195
37359W        W38223   6.286  13.934  16.338
37360W        W38224   6.276  13.020  16.041
37361W        W38225   5.334  11.382  15.131
37362W        W38226   7.243  11.104  16.021
37363W        W38227   4.770  12.547  14.586
37364W        W38228   6.956  11.893  15.881
37365W        W38229   5.425  13.107  14.889
37366W        W38230   6.749  13.287  17.634
37367W        W38231   6.234  14.183  14.698
37368W        W38232   5.004  11.589  17.813
37369W        W38233   4.925  12.311  17.011
37370W        W38234   6.874  13.769  17.539
37371W        W38235   5.972  11.621  17.562
37372W        W38236   3.720  12.259  17.451
37373W        W38237   5.724  12.651  17.164
37374W        W38238   4.015  13.484  16.141
37375W        W38239   4.033  12.663  16.770
37376W        W38240   6.390  13.011  17.290
37377W        W38241   6.172  14.395  17.875
37378W        W38242   6.186  12.080  17.559
37379W        W38243   6.495  14.215  15.942
37380W        W38244   5.417  13.974  17.185
37381W        W38245   4.894  14.150  16.488
37382W        W38246   6.682  13.464  17.168
37383W        W38247   5.568  13.438  18.215
37384W        W38248   4.300  13.541  16.564
37385W        W38249   6.749  13.244  16.004
37386W        W38250   6.205  14.209  16.800
37387W        W38251   4.428  14.039  16.741
37388W        W38252   5.318  11.999  17.802
37389W        W38253   5.380  14.170  15.295
37390W        W38254   4.994  13.321  17.917
37391W        W38255   5.021  13.860  15.508
37392W        W38256   4.593  12.038  14.543
37393W        W38257   3.783  14.585  21.757
37394W        W38258   4.129  13.482  21.156
37395W        W38259   6.815  13.107  18.937
37396W        W38260   7.130  14.166  20.888
37397W        W38261   4.709  14.269  18.328
37398W        W38262   5.090  12.325  19.359
37399W        W38263   4.525  12.100  19.778
37400W        W38264   5.483  13.024  18.986
37401W        W38265   5.216  14.184  21.300
37402W        W38266   3.720  11.738  21.294
37403W        W38267   4.277  10.936  21.101
37404W        W38268   6.189  11.407  19.880
37405W        W38269   5.865  12.010  18.432
37406W        W38270   6.373  11.819  21.586
37407W        W38271   3.801  11.364  20.879
37408W        W38272   3.834  14.071  21.800
37409W        W38273   5.131  13.556  18.584
37410W        W38274   3.756  12.053  20.351
37411W        W38275   4.892  12.160  21.452
37412W        W38276   6.980  11.851  20.021
37413W        W38277   6.936  12.975  20.743
37414W        W38278   5.364  12.414  19.819
37415W        W38279   5.905  13.713  20.198
37416W        W38280   4.242  12.960  20.374
37417W        W38281   3.378  12.400  20.190
37418W        W38282   4.847  12.556  21.120
37419W        W38283   7.013  12.453  21.684
37420W        W38284   4.614  13.820  19.926
37421W        W38285   5.729  13.552  20.927
37422W        W38286   4.926  12.016  20.262
37423W        W38287   5.132  12.893  19.952
37424W        W38288   6.003  13.808  21.681
37425W        W38289   5.443  12.959  21.698
37426W        W38290   5.328  12.771  21.155
37427W        W38291   3.575  11.950  21.766
37428W        W38292   6.471  13.717  21.375
37429W        W38293   4.092  11.173  19.368
37430W        W38294   4.729  13.601  20.416
37431W        W38295   7.032  13.344  19.783
37432W        W38296   6.494  11.729  20.180
37433W        W38297   6.775  11.637  18.230
37434W        W38298   7.513  12.569  20.646
37435W        W38299   5.355  14.246  20.361
37436W        W38300   7.051  13.626  18.929
37437W        W38301   4.007  14.472  19.037
37438W        W38302   4.441  14.475  19.371
37439W        W38303   4.255  11.166  20.647
37440W        W38304   7.008  12.396  20.705
37441W        W38305   6.287  12.624  19.514
37442W        W38306   6.234  12.326  18.627
37443W        W38307   5.561  13.446  20.444
37444W        W38308   5.435  11.692  19.645
37445W        W38309   5.924  13.967  20.659
37446W        W38310   6.780  12.736  19.343
37447W        W38311   5.755  11.181  19.033
37448W        W38312   4.363  14.096  19.036
37449W        W38313   3.639  11.535  19.589
37450W        W38314   6.307  12.174  19.920
37451W        W38315   4.143  13.880  20.127
37452W        W38316   5.132  14.085  18.583
37453W        W38317   6.737  12.133  18.195
37454W        W38318   3.945  13.959  20.614
37455W        W38319   4.650  13.746  20.915
37456W        W38320   4.939  13.111  19.527
37457W        W38321   4.665  11.426  20.455
37458W        W38322   7.138  11.028  20.046
37459W        W38323   4.526  13.079  17.899
37460W        W38324   4.096  11.752  18.450
37461W        W38325   4.262  13.902  19.543
37462W        W38326   4.990  13.607  19.501
37463W        W38327   6.667  14.159  21.179
37464W        W38328   5.571  12.050  18.857
37465W        W38329   6.964  14.393  19.768
37466W        W38330   6.614  12.265  21.419
37467W        W38331   7.219  13.633  19.413
37468W        W38332   5.898  13.070  20.949
37469W        W38333   3.575  12.742  19.446
37470W        W38334   4.644  13.163  20.693
37471W        W38335   5.940  12.342  19.084
37472W        W38336   5.818  12.774  19.337
37473W        W38337   4.109  12.221  20.704
37474W        W38338   4.137  12.145  21.405
37475W        W38339   3.926  11.135  19.849
37476W        W38340   5.694  11.467  20.049
37477W        W38341   5.481  11.478  21.416
37478W        W38342   5.913  11.509  18.638
37479W        W38343   7.099  13.998  21.413
37480W        W38344   5.914  11.184  21.350
37481W        W38345   6.939  13.500  21.499
37482W        W38346   6.460  11.584  21.105
37483W        W38347   6.200  11.544  19.336
37484W        W38348   6.591  12.743  21.631
37485W        W38349   4.365  14.283  19.873
37486W        W38350   5.152  11.816  18.666
37487W        W38351   4.593  11.229  21.463
37488W        W38352   6.611  11.851  19.163
37489W        W38353   6.963  12.255  19.132
37490W        W38354   4.825  14.485  21.463
37491W        W38355   4.526  11.028  18.881
37492W        W38356   6.963  11.425  19.757
37493W        W38357   7.164  13.871  18.407
37494W        W38358   3.845  13.037  19.993
37495W        W38359   5.943  11.522  18.112
37496W        W38360   7.144  13.858  19.875
37497W        W38361   7.036  11.060  20.657
37498W        W38362   5.742  12.237  21.243
37499W        W38363   5.497  13.560  18.979
37500W        W38364   6.122  12.912  21.740
37501W        W38365   5.742  10.943  19.985
37502W        W38366   4.221  11.904  20.148
37503W        W38367   4.110  13.053  20.868
37504W        W38368   5.797  14.246  19.639
37505W        W38369   6.877  11.863  20.526
37506W        W38370   5.712  14.283  21.115
37507W        W38371   6.958  12.949  18.457
37508W        W38372   5.314  12.782  19.462
37509W        W38373   7.153  10.958  21.150
37510W        W38374   5.423  13.113  20.791
37511W        W38375   5.509  11.990  20.077
37512W        W38376   6.454  12.372  19.092
37513W        W38377   6.706  12.109  18.713
37514W        W38378   6.771  13.942  19.211
37515W        W38379   6.310  13.477  19.935
37516W        W38380   6.104  12.786  18.876
37517W        W38381   5.655  12.852  19.833
37518W        W38382   6.634  12.618  19.914
37519W        W38383   4.039  11.644  20.537
37520W        W38384   6.775  12.682  21.145
37521W        W38385   7.147  14.212  20.248
37522W        W38386   5.075  14.003  19.795
37523W        W38387   6.208  14.338  20.962
37524W        W38388   6.008  11.654  20.841
37525W        W38389   5.279  14.490  20.895
37526W        W38390   6.909  11.412  19.246
37527W        W38391   6.663  12.691  20.421
37528W        W38392   3.619  11.848  20.794
37529W        W38393   6.541  11.745  19.674
37530W        W38394   6.748  12.007  20.989
37531W        W38395   5.830  13.548  19.702
37532W        W38396   5.206  14.281  19.385
37533W        W38397   4.076  11.296  18.788
37534W        W38398   5.378  11.200  20.379
37535W        W38399   4.223  14.355  18.561
37536W        W38400   5.005  12.796  19.050
37537W        W38401   5.478  13.271  21.282
37538W        W38402   5.339  11.338  19.288
37539W        W38403   6.539  11.214  19.559
37540W        W38404   6.300  14.473  19.960
37541W        W38405   5.855  14.251  20.179
37542W        W38406   5.080  13.190  20.384
37543W        W38407   6.844  13.913  20.544
37544W        W38408   4.514  11.428  19.231
37545W        W38409   5.181  13.734  20.236
37546W        W38410   4.553  11.647  18.181
37547W        W38411   5.355  12.095  20.576
37548W        W38412   6.103  11.438  20.387
37549W        W38413   3.720  13.029  20.507
37550W        W38414   5.282  12.728  18.586
37551W        W38415   4.570  11.113  18.322
37552W        W38416   5.575  12.134  19.402
37553W        W38417   6.167  11.164  20.885
37554W        W38418   4.998  13.171  21.094
37555W        W38419   5.785  12.798  21.363
37556W        W38420   6.291  12.927  21.252
37557W        W38421   5.599  11.146  21.802
37558W        W38422   4.655  11.651  19.990
37559W        W38423   4.159  11.600  19.704
37560W        W38424   3.968  14.378  19.556
37561W        W38425   5.565  13.802  21.375
37562W        W38426   4.667  13.342  18.727
37563W        W38427   6.137  12.726  20.010
37564W        W38428   6.220  12.386  20.395
37565W        W38429   5.506  12.921  20.318
37566W        W38430   6.109  13.296  18.251
37567W        W38431   5.790  11.327  19.564
37568W        W38432   7.156  11.782  18.987
37569W        W38433   3.909  14.323  21.337
37570W        W38434   4.263  13.529  20.640
37571W        W38435   3.497  14.511  19.017
37572W        W38436   5.621  11.658  20.510
37573W        W38437   4.675  13.877  18.681
37574W        W38438   7.099  14.155  18.855
37575W        W38439   5.750  12.499  18.625
37576W        W38440   5.200  11.831  19.192
37577W        W38441   5.460  11.723  18.245
37578W        W38442   5.971  13.326  21.440
37579W        W38443   6.471  11.233  19.013
37580W        W38444   3.667  11.000  18.653
37581W        W38445   5.135  13.541  20.736
37582W        W38446   4.893  13.387  19.960
37583W        W38447   4.702  13.564  18.259
37584W        W38448   3.859  13.978  19.225
37585W        W38449   4.502  12.540  21.502
37586W        W38450   5.085  11.183  21.684
37587W        W38451   5.623  11.299  20.914
37588W        W38452   4.868  11.058  19.344
37589W        W38453   6.121  10.976  18.729
37590W        W38454   3.819  11.162  20.393
37591W        W38455   3.553  11.993  19.893
37592W        W38456   6.636  11.226  20.086
37593W        W38457   3.984  11.650  19.199
37594W        W38458   6.573  11.410  20.599
37595W        W38459   7.038  12.441  18.470
37596W        W38460   4.252  11.369  20.159
37597W        W38461   5.489  11.800  20.999
37598W        W38462   3.630  11.464  18.391
37599W        W38463   4.538  12.958  21.165
37600W        W38464   5.724  12.441  20.235
37601W        W38465   5.522  14.444  18.522
37602W        W38466   3.605  12.775  18.058
37603W        W38467   4.617  13.453  21.329
37604W        W38468   4.155  12.569  21.107
37605W        W38469   5.043  12.788  20.719
37606W        W38470   6.653  11.089  21.030
37607W        W38471   7.294  12.749  21.061
37608W        W38472   7.111  12.701  18.913
37609W        W38473   5.898  13.270  19.189
37610W        W38474   6.472  14.590  18.304
37611W        W38475   5.805  12.518  21.825
37612W        W38476   4.195  13.425  21.677
37613W        W38477   7.296  11.438  21.734
37614W        W38478   6.711  12.229  20.237
37615W        W38479   5.241  14.355  21.807
37616W        W38480   4.997  11.007  18.588
37617W        W38481   6.827  13.441  18.514
37618W        W38482   4.494  11.760  21.375
37619W        W38483   5.085  13.686  21.210
37620W        W38484   6.957  11.526  20.911
37621W        W38485   6.636  14.425  18.780
37622W        W38486   6.413  13.102  20.255
37623W        W38487   4.568  11.433  20.975
37624W        W38488   5.364  12.463  21.563
37625W        W38489   4.594  13.634  19.150
37626W        W38490   6.384  13.058  19.218
37627W        W38491   4.140  11.800  21.006
37628W        W38492   5.454  13.827  19.433
37629W        W38493   7.066  12.325  19.836
37630W        W38494   5.417  10.994  21.325
37631W        W38495   6.372  13.772  20.351
37632W        W38496   6.665  14.089  20.075
37633W        W38497   5.570  13.948  18.350
37634W        W38498   3.734  13.617  21.532
37635W        W38499   4.522  11.887  20.625
37636W        W38500   4.485  11.191  19.718
37637W        W38501   5.994  11.928  20.257
37638W        W38502   4.892  13.046  18.344
37639W        W38503   6.941  13.087  20.226
37640W        W38504   4.187  13.889  21.469
37641W        W38505   6.894  14.489  19.239
37642W        W38506   4.944  11.503  19.591
37643W        W38507   4.579  12.971  19.872
37644W        W38508   4.916  14.534  20.548
37645W        W38509   6.841  14.477  21.522
37646W        W38510   5.981  12.842  20.492
37647W        W38511   3.925  12.183  18.088
37648W        W38512   7.226  14.141  19.393
37649W        W38513   6.751  11.578  18.735
37650W        W38514   4.820  10.946  21.081
37651W        W38515   6.676  13.758  19.690
37652W        W38516   6.654  12.255  19.548
37653W        W38517   5.046  11.994  19.761
37654W        W38518   5.259  12.261  21.065
37655W        W38519   6.260  13.421  21.028
37656W        W38520   4.914  11.858  21.025
37657W        W38521   4.827  14.458  19.712
37658W        W38522   4.342  14.349  21.638
37659W        W38523   4.334  13.944  18.227
37660W        W38524   6.772  13.395  19.347
37661W        W38525   4.508  12.185  21.055
37662W        W38526   7.134  11.927  18.464
37663W        W38527   5.046  13.319  19.070
37664W        W38528   6.026  12.572  20.943
37665W        W38529   5.855  12.135  20.718
37666W        W38530   4.495  12.647  20.738
37667W        W38531   6.691  14.374  20.722
37668W        W38532   6.424  11.264  21.522
37669W        W38533   4.097  11.373  21.311
37670W        W38534   4.494  12.325  20.319
37671W        W38535   4.967  11.966  18.180
37672W        W38536   3.790  13.885  21.097
37673W        W38537   5.197  12.501  20.311
37674W        W38538   5.007  11.456  18.342
37675W        W38539   4.710  12.662  19.471
37676W        W38540   3.920  14.554  20.864
37677W        W38541   6.622  12.655  18.711
37678W        W38542   6.924  11.347  21.388
37679W        W38543   6.282  13.540  19.425
37680W        W38544   3.809  12.548  21.511
37681W        W38545   6.953  11.104  18.825
37682W        W38546   6.509  13.532  18.936
37683W        W38547   5.463  12.518  19.052
37684W        W38548   6.375  11.337  18.441
37685W        W38549   6.373  11.940  20.627
37686W        W38550   3.772  12.493  19.867
37687W        W38551   4.509  13.427  19.613
37688W        W38552   6.198  12.066  19.417
37689W        W38553   5.184  11.599  20.093
37690W        W38554   7.120  13.485  20.640
37691W        W38555   7.051  11.442  20.328
37692W        W38556   3.618  14.377  19.975
37693W        W38557   4.106  13.485  19.278
37694W        W38558   4.161  11.246  21.804
37695W        W38559   5.127  13.860  21.686
37696W        W38560   7.082  12.839  19.775
37697W        W38561   6.417  13.117  18.621
37698W        W38562   5.754  14.474  20.646
37699W        W38563   6.488  13.252  21.595
37700W        W38564   5.258  10.929  19.008
37701W        W38565   5.912  11.832  19.750
37702W        W38566   3.893  13.466  20.290
37703W        W38567   4.961  11.386  18.944
37704W        W38568   4.977  12.822  21.521
37705W        W38569   5.725  11.686  19.188
37706W        W38570   6.083  13.380  20.559
37707W        W38571   4.267  14.100  21.006
37708W        W38572   4.691  13.976  21.410
37709W        W38573   4.542  11.502  18.670
37710W        W38574   6.140  11.894  18.922
37711W        W38575   6.033  13.889  21.174
37712W        W38576   4.854  12.458  19.930
37713W        W38577   4.410  14.498  20.702
37714W        W38578   6.975  14.369  18.378
37715W        W38579   4.091  12.990  21.401
37716W        W38580   5.903  13.201  20.115
37717W        W38581   4.545  13.113  19.198
37718W        W38582   4.971  14.017  20.613
37719W        W38583   5.329  11.189  19.780
37720W        W38584   3.626  13.516  19.070
37721W        W38585   5.383  12.223  18.380
37722W        W38586   4.159  13.040  19.568
37723W        W38587   5.114  11.368  21.069
37724W        W38588   6.863  11.156  18.329
37725W        W38589   7.054  12.980  21.453
37726W        W38590   5.721  14.257  21.620
37727W        W38591   7.259  13.271  21.076
37728W        W38592   6.689  13.996  21.728
37729W        W38593   4.502  14.623  20.228
37730W        W38594   7.190  13.089  19.322
37731W        W38595   5.877  12.380  19.725
37732W        W38596   5.586  10.877  19.432
37733W        W38597   4.733  14.049  19.417
37734W        W38598   5.116  11.624  20.610
37735W        W38599   4.891  11.194  20.043
37736W        W38600   3.706  14.219  18.640
37737W        W38601   5.433  13.291  19.444
37738W        W38602   4.770  14.264  20.999
37739W        W38603   3.887  13.035  19.111
37740W        W38604   3.774  11.578  20.091
37741W        W38605   5.415  13.338  19.961
37742W        W38606   3.655  11.255  19.119
37743W        W38607   6.494  12.417  20.823
37744W        W38608   6.351  11.845  18.453
37745W        W38609   6.800  13.573  20.168
37746W        W38610   5.542  13.925  19.937
37747W        W38611   4.867  14.314  18.982
37748W        W38612   5.961  11.027  18.240
37749W        W38613   4.054  14.371  20.300
37750W        W38614   5.871  12.000  21.754
37751W        W38615   4.064  11.736  21.698
37752W        W38616   3.662  12.051  19.393
37753W        W38617   5.075  12.303  18.808
37754W        W38618   6.158  12.469  21.437
37755W        W38619   4.748  12.793  20.313
37756W        W38620   6.121  10.986  19.362
37757W        W38621   5.341  14.445  19.874
37758W        W38622   6.418  13.878  20.838
37759W        W38623   6.195  13.972  19.860
37760W        W38624   6.082  13.096  19.645
37761W        W38625   5.408  11.362  18.680
37762W        W38626   7.235  11.050  19.536
37763W        W38627   4.931  12.489  18.261
37764W        W38628   7.002  11.894  19.503
37765W        W38629   5.728  13.006  18.498
37766W        W38630   6.717  13.216  21.129
37767W        W38631   6.698  13.926  18.642
37768W        W38632   4.973  11.644  21.513
37769W        W38633   4.878  12.286  20.689
37770W        W38634   6.873  13.705  21.029
37771W        W38635   5.916  11.724  21.327
37772W        W38636   3.740  12.234  21.103
37773W        W38637   5.546  12.579  20.721
37774W        W38638   4.024  13.499  19.789
37775W        W38639   3.885  12.562  20.374
37776W        W38640   6.400  12.961  20.766
37777W        W38641   6.277  14.242  21.505
37778W        W38642   6.229  12.070  21.110
37779W        W38643   6.519  14.257  19.548
37780W        W38644   5.420  13.964  20.851
37781W        W38645   4.821  14.220  20.169
37782W        W38646   6.616  13.415  20.641
37783W        W38647   5.578  13.457  21.771
37784W        W38648   4.383  13.385  20.125
37785W        W38649   6.590  13.086  19.724
37786W        W38650   6.295  14.271  20.438
37787W        W38651   4.458  14.033  20.503
37788W        W38652   5.384  11.963  21.501
37789W        W38653   5.490  14.105  18.961
37790W        W38654   5.065  13.338  21.598
37791W        W38655   5.059  13.842  19.048
37792W        W38656   4.467  12.170  18.075
37793W        W38657   3.781  14.547  25.398
37794W        W38658   4.130  13.475  24.851
37795W        W38659   6.794  13.128  22.810
37796W        W38660   7.142  14.212  24.722
37797W        W38661   4.763  14.178  21.892
37798W        W38662   4.840  12.329  23.141
37799W        W38663   4.478  11.987  23.302
37800W        W38664   5.410  13.032  22.773
37801W        W38665   5.097  14.212  24.973
37802W        W38666   3.772  11.782  24.933
37803W        W38667   4.323  10.985  24.769
37804W        W38668   6.171  11.455  24.044
37805W        W38669   5.903  12.228  22.249
37806W        W38670   6.210  12.013  25.400
37807W        W38671   3.859  11.381  24.512
37808W        W38672   3.829  14.028  25.469
37809W        W38673   5.139  13.548  22.087
37810W        W38674   3.852  12.108  23.950
37811W        W38675   4.730  12.221  25.195
37812W        W38676   6.972  11.988  23.775
37813W        W38677   6.844  13.058  24.540
37814W        W38678   5.305  12.268  23.725
37815W        W38679   5.809  13.736  23.921
37816W        W38680   4.170  13.102  24.100
37817W        W38681   3.476  12.437  23.805
37818W        W38682   4.685  12.640  24.864
37819W        W38683   6.969  12.530  25.233
37820W        W38684   4.576  13.973  23.706
37821W        W38685   5.617  13.601  24.756
37822W        W38686   4.875  12.111  23.958
37823W        W38687   5.098  13.005  23.721
37824W        W38688   5.928  13.797  25.379
37825W        W38689   5.343  12.990  25.448
37826W        W38690   5.169  12.840  24.944
37827W        W38691   3.640  12.086  25.343
37828W        W38692   6.407  13.778  25.116
37829W        W38693   4.056  11.131  23.004
37830W        W38694   4.709  13.732  24.208
37831W        W38695   7.072  13.377  23.670
37832W        W38696   6.631  11.731  24.069
37833W        W38697   6.783  11.553  21.836
37834W        W38698   7.267  12.439  24.434
37835W        W38699   5.427  14.298  24.097
37836W        W38700   6.933  13.818  22.349
37837W        W38701   4.107  14.602  22.615
37838W        W38702   4.481  14.507  23.012
37839W        W38703   4.318  11.214  24.295
37840W        W38704   6.845  12.429  24.699
37841W        W38705   6.144  12.577  23.307
37842W        W38706   6.167  12.671  22.198
37843W        W38707   5.550  13.467  24.264
37844W        W38708   5.492  11.837  23.474
37845W        W38709   5.879  13.879  24.415
37846W        W38710   6.567  12.831  23.181
37847W        W38711   5.760  11.509  22.686
37848W        W38712   4.251  14.118  22.756
37849W        W38713   3.690  11.481  23.136
37850W        W38714   6.123  12.245  23.692
37851W        W38715   3.987  13.927  23.728
37852W        W38716   5.090  14.088  22.283
37853W        W38717   6.282  12.279  21.883
37854W        W38718   3.794  13.974  24.231
37855W        W38719   4.588  13.684  24.717
37856W        W38720   4.799  13.179  23.344
37857W        W38721   5.221  11.275  24.412
37858W        W38722   7.118  11.045  23.836
37859W        W38723   4.576  13.080  21.682
37860W        W38724   4.215  11.825  22.185
37861W        W38725   4.109  13.898  23.221
37862W        W38726   4.967  13.663  23.233
37863W        W38727   6.690  14.203  24.981
37864W        W38728   5.566  12.058  22.616
37865W        W38729   6.758  14.427  23.514
37866W        W38730   6.544  12.244  25.080
37867W        W38731   7.183  13.742  23.314
37868W        W38732   5.820  13.138  24.671
37869W        W38733   3.305  12.616  22.952
37870W        W38734   4.528  13.250  24.442
37871W        W38735   5.878  12.361  22.900
37872W        W38736   5.689  12.788  23.150
37873W        W38737   4.103  12.262  24.387
37874W        W38738   4.108  12.169  25.124
37875W        W38739   3.908  11.099  23.498
37876W        W38740   5.682  11.481  23.822
37877W        W38741   5.443  11.572  25.206
37878W        W38742   5.740  11.734  22.219
37879W        W38743   7.146  14.011  25.210
37880W        W38744   5.806  11.185  25.160
37881W        W38745   6.834  13.584  25.322
37882W        W38746   6.421  11.739  24.969
37883W        W38747   6.192  11.566  23.081
37884W        W38748   6.452  12.681  25.379
37885W        W38749   4.243  14.330  23.499
37886W        W38750   5.217  11.743  22.420
37887W        W38751   4.599  11.275  25.115
37888W        W38752   6.550  11.870  22.844
37889W        W38753   6.894  12.254  22.946
37890W        W38754   4.740  14.465  25.271
37891W        W38755   4.648  10.988  22.475
37892W        W38756   6.882  11.482  23.657
37893W        W38757   7.138  13.761  21.890
37894W        W38758   3.812  13.010  23.728
37895W        W38759   5.993  11.488  21.780
37896W        W38760   7.102  13.860  23.867
37897W        W38761   7.082  11.048  24.379
37898W        W38762   5.576  12.348  24.975
37899W        W38763   5.326  13.549  22.853
37900W        W38764   6.000  12.906  25.466
37901W        W38765   5.972  11.013  23.851
37902W        W38766   4.339  11.922  23.796
37903W        W38767   4.023  13.054  24.598
37904W        W38768   5.976  14.379  23.341
37905W        W38769   6.912  12.105  24.287
37906W        W38770   5.768  14.442  24.679
37907W        W38771   6.508  13.048  22.082
37908W        W38772   5.250  12.583  23.325
37909W        W38773   7.175  11.057  24.936
37910W        W38774   5.319  13.165  24.594
37911W        W38775   5.698  12.008  23.917
37912W        W38776   6.406  12.403  22.877
37913W        W38777   6.427  12.204  22.392
37914W        W38778   6.623  13.994  22.734
37915W        W38779   6.228  13.491  23.745
37916W        W38780   6.111  12.828  22.860
37917W        W38781   5.567  12.794  23.654
37918W        W38782   6.559  12.722  23.719
37919W        W38783   4.050  11.666  24.136
37920W        W38784   6.678  12.832  24.955
37921W        W38785   7.051  14.324  24.126
37922W        W38786   5.113  13.946  23.629
37923W        W38787   6.268  14.464  24.817
37924W        W38788   6.015  11.669  24.513
37925W        W38789   5.285  14.569  24.508
37926W        W38790   6.710  11.396  23.157
37927W        W38791   6.640  12.658  24.266
37928W        W38792   3.710  11.904  24.432
37929W        W38793   6.490  11.864  23.600
37930W        W38794   6.864  11.927  24.792
37931W        W38795   5.779  13.528  23.445
37932W        W38796   5.077  14.213  23.171
37933W        W38797   4.283  11.329  22.299
37934W        W38798   5.271  11.192  23.920
37935W        W38799   4.203  14.479  22.108
37936W        W38800   4.971  12.840  22.993
37937W        W38801   5.324  13.340  25.076
37938W        W38802   5.335  11.614  22.971
37939W        W38803   6.729  10.976  23.496
37940W        W38804   6.260  14.517  23.744
37941W        W38805   5.932  14.231  24.038
37942W        W38806   5.027  13.308  24.184
37943W        W38807   6.817  13.906  24.320
37944W        W38808   4.524  11.343  22.887
37945W        W38809   5.215  13.828  24.123
37946W        W38810   4.552  11.578  21.861
37947W        W38811   5.283  12.159  24.278
37948W        W38812   6.241  11.049  24.336
37949W        W38813   3.677  13.010  24.241
37950W        W38814   5.396  12.635  22.115
37951W        W38815   4.603  11.065  21.962
37952W        W38816   5.304  12.110  23.093
37953W        W38817   6.185  11.256  24.826
37954W        W38818   4.859  13.248  24.854
37955W        W38819   5.664  12.851  25.071
37956W        W38820   6.182  12.957  25.002
37957W        W38821   5.515  11.218  25.591
37958W        W38822   4.762  11.617  23.862
37959W        W38823   4.180  11.554  23.281
37960W        W38824   3.942  14.380  23.093
37961W        W38825   5.458  13.876  25.157
37962W        W38826   4.694  13.743  22.317
37963W        W38827   6.055  12.741  23.787
37964W        W38828   6.159  12.447  24.221
37965W        W38829   5.432  12.988  24.121
37966W        W38830   6.127  13.384  21.958
37967W        W38831   5.716  11.411  23.288
37968W        W38832   7.009  11.626  22.794
37969W        W38833   3.867  14.228  24.987
37970W        W38834   4.062  13.546  24.353
37971W        W38835   3.610  14.445  22.706
37972W        W38836   5.537  11.692  24.302
37973W        W38837   4.587  14.243  22.376
37974W        W38838   6.835  14.318  22.386
37975W        W38839   5.754  12.683  22.507
37976W        W38840   4.855  11.796  22.957
37977W        W38841   5.362  11.606  21.896
37978W        W38842   5.846  13.330  25.168
37979W        W38843   6.294  11.482  22.547
37980W        W38844   3.809  11.101  22.157
37981W        W38845   5.106  13.637  24.590
37982W        W38846   4.839  13.505  23.750
37983W        W38847   4.674  13.635  21.807
37984W        W38848   3.754  13.955  22.849
37985W        W38849   4.359  12.596  25.282
37986W        W38850   5.078  11.215  25.333
37987W        W38851   5.601  11.404  24.731
37988W        W38852   4.882  11.077  23.149
37989W        W38853   5.929  11.239  22.232
37990W        W38854   3.886  11.176  24.024
37991W        W38855   3.942  12.010  23.434
37992W        W38856   6.677  11.212  24.078
37993W        W38857   4.110  11.615  22.745
37994W        W38858   6.501  11.498  24.499
37995W        W38859   6.672  12.544  22.097
37996W        W38860   4.310  11.389  23.771
37997W        W38861   5.401  11.893  24.761
37998W        W38862   3.710  11.614  22.174
37999W        W38863   4.393  13.040  24.954
38000W        W38864   5.646  12.500  24.070
38001W        W38865   5.509  14.393  22.272
38002W        W38866   3.710  13.119  21.729
38003W        W38867   4.536  13.468  25.212
38004W        W38868   4.130  12.602  24.814
38005W        W38869   4.913  12.879  24.469
38006W        W38870   6.676  11.043  24.727
38007W        W38871   7.228  12.770  24.852
38008W        W38872   6.943  13.268  22.327
38009W        W38873   5.816  13.269  22.994
38010W        W38874   6.553  14.434  21.960
38011W        W38875   5.639  12.543  25.505
38012W        W38876   4.120  13.559  25.526
38013W        W38877   7.336  11.465  25.416
38014W        W38878   6.566  12.255  23.944
38015W        W38879   5.233  14.375  25.447
38016W        W38880   5.063  10.925  22.135
38017W        W38881   6.653  13.546  21.987
38018W        W38882   4.441  11.787  25.072
38019W        W38883   4.964  13.725  25.076
38020W        W38884   6.986  11.461  24.658
38021W        W38885   6.358  14.481  22.443
38022W        W38886   6.388  13.091  24.025
38023W        W38887   4.595  11.480  24.647
38024W        W38888   5.146  12.523  25.336
38025W        W38889   4.451  13.654  22.880
38026W        W38890   6.339  13.267  22.967
38027W        W38891   4.174  11.791  24.627
38028W        W38892   5.452  13.870  23.226
38029W        W38893   7.123  12.357  23.426
38030W        W38894   5.348  11.006  24.951
38031W        W38895   6.299  13.833  24.132
38032W        W38896   6.605  14.171  23.930
38033W        W38897   5.532  13.940  21.985
38034W        W38898   3.751  13.601  25.174
38035W        W38899   4.522  11.942  24.292
38036W        W38900   4.411  11.093  23.370
38037W        W38901   6.165  11.950  24.100
38038W        W38902   5.025  13.008  22.003
38039W        W38903   6.909  13.039  24.022
38040W        W38904   4.208  13.876  25.135
38041W        W38905   6.673  14.505  22.860
38042W        W38906   4.689  11.517  23.363
38043W        W38907   4.352  13.107  23.620
38044W        W38908   4.851  14.672  24.266
38045W        W38909   7.042  14.515  25.216
38046W        W38910   5.925  12.905  24.241
38047W        W38911   3.989  12.223  21.895
38048W        W38912   6.946  14.141  23.112
38049W        W38913   6.713  11.716  22.339
38050W        W38914   4.856  10.987  24.717
38051W        W38915   6.696  13.842  23.534
38052W        W38916   6.611  12.329  23.393
38053W        W38917   4.980  11.934  23.473
38054W        W38918   5.098  12.344  24.822
38055W        W38919   6.137  13.525  24.763
38056W        W38920   4.865  11.903  24.800
38057W        W38921   4.744  14.421  23.500
38058W        W38922   4.252  14.328  25.362
38059W        W38923   4.304  13.966  22.001
38060W        W38924   6.726  13.605  23.079
38061W        W38925   4.456  12.203  24.750
38062W        W38926   6.735  12.055  21.910
38063W        W38927   4.857  13.333  22.849
38064W        W38928   5.870  12.614  24.657
38065W        W38929   5.774  12.143  24.430
38066W        W38930   4.407  12.729  24.410
38067W        W38931   6.687  14.376  24.477
38068W        W38932   6.366  11.358  25.322
38069W        W38933   4.116  11.403  24.963
38070W        W38934   4.458  12.406  24.005
38071W        W38935   4.955  11.917  21.966
38072W        W38936   3.684  13.795  24.700
38073W        W38937   5.104  12.603  24.065
38074W        W38938   4.942  11.413  22.141
38075W        W38939   4.523  12.739  23.285
38076W        W38940   3.932  14.445  24.501
38077W        W38941   6.531  12.781  22.546
38078W        W38942   6.871  11.505  25.152
38079W        W38943   6.252  13.667  23.267
38080W        W38944   3.809  12.580  25.207
38081W        W38945   6.786  11.228  22.522
38082W        W38946   6.544  13.511  22.538
38083W        W38947   5.369  12.520  22.808
38084W        W38948   6.418  11.297  22.063
38085W        W38949   6.452  12.053  24.507
38086W        W38950   3.901  12.541  23.518
38087W        W38951   4.478  13.581  23.396
38088W        W38952   6.212  12.070  23.202
38089W        W38953   5.243  11.748  23.896
38090W        W38954   7.086  13.464  24.325
38091W        W38955   7.106  11.530  24.158
38092W        W38956   3.655  14.307  23.539
38093W        W38957   3.687  13.457  23.007
38094W        W38958   4.149  11.212  25.438
38095W        W38959   5.114  13.875  25.560
38096W        W38960   7.002  12.874  23.535
38097W        W38961   6.153  13.143  22.452
38098W        W38962   5.746  14.705  24.240
38099W        W38963   6.454  13.198  25.410
38100W        W38964   5.259  10.859  22.601
38101W        W38965   5.999  11.761  23.552
38102W        W38966   3.767  13.489  23.926
38103W        W38967   5.012  11.320  22.676
38104W        W38968   4.794  12.927  25.284
38105W        W38969   5.770  11.878  23.060
38106W        W38970   6.059  13.404  24.267
38107W        W38971   4.164  13.985  24.628
38108W        W38972   4.635  13.954  25.405
38109W        W38973   4.646  11.660  22.478
38110W        W38974   6.073  11.936  22.650
38111W        W38975   5.937  14.001  24.906
38112W        W38976   4.836  12.525  23.638
38113W        W38977   4.456  14.399  24.460
38114W        W38978   7.060  14.274  21.938
38115W        W38979   3.899  13.081  25.124
38116W        W38980   5.813  13.209  23.846
38117W        W38981   4.310  13.196  23.105
38118W        W38982   4.908  14.130  24.500
38119W        W38983   5.191  11.419  23.451
38120W        W38984   3.256  13.430  22.665
38121W        W38985   5.439  12.127  21.998
38122W        W38986   3.820  13.002  23.207
38123W        W38987   5.078  11.444  24.860
38124W        W38988   6.955  11.107  22.025
38125W        W38989   7.012  13.087  25.255
38126W        W38990   5.715  14.329  25.255
38127W        W38991   7.236  13.288  24.804
38128W        W38992   6.701  14.078  25.478
38129W        W38993   4.474  14.514  23.937
38130W        W38994   7.117  13.245  23.184
38131W        W38995   5.705  12.306  23.393
38132W        W38996   5.376  11.105  23.041
38133W        W38997   4.597  14.041  23.186
38134W        W38998   4.993  11.728  24.343
38135W        W38999   4.811  11.129  23.690
38136W        W39000   3.871  14.172  22.353
38137W        W39001   5.343  13.196  23.283
38138W        W39002   4.575  14.157  24.910
38139W        W39003   3.566  12.990  22.692
38140W        W39004   3.837  11.568  23.674
38141W        W39005   5.360  13.466  23.763
38142W        W39006   3.733  11.295  22.621
38143W        W39007   6.354  12.536  24.701
38144W        W39008   6.247  11.804  22.110
38145W        W39009   6.692  13.534  23.960
38146W        W39010   5.622  14.116  23.635
38147W        W39011   4.933  14.441  22.708
38148W        W39012   6.091  10.962  21.795
38149W        W39013   3.971  14.411  23.942
38150W        W39014   5.707  12.036  25.354
38151W        W39015   4.027  11.744  25.395
38152W        W39016   3.721  11.957  22.947
38153W        W39017   5.133  12.261  22.389
38154W        W39018   6.036  12.478  25.180
38155W        W39019   4.671  12.928  24.004
38156W        W39020   6.370  11.355  23.582
38157W        W39021   5.222  14.452  23.648
38158W        W39022   6.385  13.969  24.624
38159W        W39023   6.185  14.005  23.648
38160W        W39024   6.106  13.093  23.403
38161W        W39025   5.419  11.280  22.309
38162W        W39026   7.213  10.980  23.319
38163W        W39027   4.960  12.439  21.888
38164W        W39028   6.884  11.868  23.280
38165W        W39029   5.769  13.013  22.097
38166W        W39030   6.594  13.325  24.928
38167W        W39031   6.462  13.986  22.215
38168W        W39032   4.895  11.675  25.270
38169W        W39033   4.802  12.368  24.407
38170W        W39034   6.882  13.739  24.808
38171W        W39035   5.912  11.682  25.016
38172W        W39036   3.740  12.266  24.787
38173W        W39037   5.384  12.636  24.509
38174W        W39038   3.989  13.448  23.460
38175W        W39039   3.987  12.624  24.029
38176W        W39040   6.331  13.028  24.532
38177W        W39041   6.227  14.230  25.274
38178W        W39042   6.072  12.120  24.839
38179W        W39043   6.433  14.165  23.203
38180W        W39044   5.423  14.058  24.588
38181W        W39045   4.904  14.236  24.000
38182W        W39046   6.551  13.487  24.445
38183W        W39047   5.501  13.486  25.550
38184W        W39048   4.316  13.555  23.894
38185W        W39049   6.611  13.265  23.470
38186W        W39050   6.254  14.536  24.278
38187W        W39051   4.298  14.038  24.130
38188W        W39052   5.222  12.041  25.229
38189W        W39053   5.370  14.138  22.747
38190W        W39054   4.990  13.376  25.473
38191W        W39055   4.898  13.913  22.769
38192W        W39056   4.491  12.088  21.784
38193W        W39057   3.769  14.559  28.871
38194W        W39058   4.175  13.462  28.558
38195W        W39059   6.748  12.993  26.186
38196W        W39060   7.043  14.231  28.169
38197W        W39061   4.781  14.310  25.758
38198W        W39062   4.890  12.382  26.606
38199W        W39063   4.422  12.225  26.805
38200W        W39064   5.449  12.822  26.301
38201W        W39065   5.117  14.179  28.195
38202W        W39066   3.932  11.769  28.530
38203W        W39067   4.337  11.075  28.231
38204W        W39068   6.292  11.383  27.282
38205W        W39069   5.855  11.984  25.841
38206W        W39070   6.436  11.639  28.749
38207W        W39071   3.965  11.430  28.117
38208W        W39072   3.950  13.943  28.944
38209W        W39073   5.236  13.174  25.931
38210W        W39074   3.928  12.187  27.537
38211W        W39075   4.765  12.263  28.782
38212W        W39076   7.165  11.864  27.366
38213W        W39077   6.965  13.017  28.044
38214W        W39078   5.296  12.295  26.999
38215W        W39079   5.889  13.805  27.570
38216W        W39080   4.328  13.073  27.965
38217W        W39081   3.594  12.620  27.523
38218W        W39082   4.865  12.660  28.429
38219W        W39083   7.081  12.414  28.724
38220W        W39084   4.470  13.753  27.217
38221W        W39085   5.796  13.637  28.162
38222W        W39086   5.053  12.011  27.500
38223W        W39087   5.098  12.956  27.229
38224W        W39088   5.994  13.842  28.989
38225W        W39089   5.294  13.078  28.941
38226W        W39090   5.386  12.820  28.486
38227W        W39091   3.773  12.029  28.999
38228W        W39092   6.429  13.678  28.733
38229W        W39093   4.023  11.141  26.664
38230W        W39094   4.634  13.472  27.770
38231W        W39095   7.108  13.367  27.070
38232W        W39096   6.399  11.750  27.601
38233W        W39097   6.630  11.762  25.545
38234W        W39098   7.431  12.470  27.927
38235W        W39099   5.160  14.282  27.676
38236W        W39100   7.037  13.566  26.196
38237W        W39101   4.129  14.629  26.295
38238W        W39102   4.528  14.522  26.633
38239W        W39103   4.523  11.265  27.787
38240W        W39104   7.048  12.150  28.081
38241W        W39105   6.276  12.534  26.810
38242W        W39106   6.130  12.442  25.719
38243W        W39107   5.563  13.434  27.738
38244W        W39108   5.289  11.767  27.064
38245W        W39109   6.004  14.080  27.998
38246W        W39110   6.715  12.614  26.534
38247W        W39111   5.804  11.352  26.483
38248W        W39112   4.444  14.193  26.245
38249W        W39113   3.862  11.630  26.750
38250W        W39114   6.315  12.206  27.257
38251W        W39115   3.994  13.915  27.240
38252W        W39116   5.254  14.196  25.942
38253W        W39117   6.654  12.270  25.589
38254W        W39118   3.812  13.955  27.911
38255W        W39119   4.595  13.504  28.277
38256W        W39120   5.207  12.767  26.752
38257W        W39121   5.041  11.322  27.814
38258W        W39122   7.266  11.084  27.379
38259W        W39123   4.327  13.075  25.488
38260W        W39124   4.075  11.848  25.907
38261W        W39125   4.183  13.866  26.751
38262W        W39126   5.050  13.279  26.819
38263W        W39127   6.590  14.108  28.481
38264W        W39128   5.580  11.826  26.263
38265W        W39129   6.882  14.575  27.144
38266W        W39130   6.692  12.303  28.402
38267W        W39131   7.331  13.808  26.897
38268W        W39132   5.867  13.090  28.225
38269W        W39133   3.499  12.599  26.609
38270W        W39134   4.821  13.079  28.065
38271W        W39135   5.996  12.131  26.323
38272W        W39136   5.826  12.771  26.686
38273W        W39137   4.338  12.191  27.850
38274W        W39138   4.259  12.095  28.818
38275W        W39139   4.006  11.126  27.157
38276W        W39140   5.925  11.483  27.631
38277W        W39141   5.482  11.500  28.763
38278W        W39142   5.821  11.467  25.980
38279W        W39143   7.136  14.028  28.658
38280W        W39144   5.960  11.175  28.653
38281W        W39145   6.916  13.566  28.809
38282W        W39146   6.651  11.741  28.262
38283W        W39147   6.186  11.505  26.801
38284W        W39148   6.689  12.648  28.998
38285W        W39149   4.366  14.252  27.119
38286W        W39150   5.094  11.849  26.106
38287W        W39151   4.602  11.172  28.697
38288W        W39152   6.638  11.728  26.625
38289W        W39153   7.120  12.297  26.515
38290W        W39154   4.755  14.318  28.841
38291W        W39155   4.653  11.005  26.103
38292W        W39156   7.069  11.449  27.078
38293W        W39157   7.124  13.797  25.709
38294W        W39158   3.955  12.936  27.263
38295W        W39159   5.910  11.581  25.502
38296W        W39160   7.154  13.842  27.384
38297W        W39161   7.236  10.977  27.876
38298W        W39162   5.667  12.198  28.675
38299W        W39163   5.366  13.337  26.412
38300W        W39164   6.173  12.810   0.052
38301W        W39165   5.991  11.010  27.464
38302W        W39166   4.427  11.983  27.345
38303W        W39167   3.899  13.132  28.265
38304W        W39168   5.847  14.169  27.149
38305W        W39169   6.871  11.769  27.790
38306W        W39170   5.626  14.248  28.307
38307W        W39171   6.826  12.812  25.688
38308W        W39172   5.599  12.324  26.580
38309W        W39173   7.287  11.142  28.350
38310W        W39174   5.352  13.109  28.078
38311W        W39175   5.566  12.037  27.404
38312W        W39176   6.501  12.171  26.400
38313W        W39177   6.877  12.122  26.054
38314W        W39178   6.704  13.843  26.480
38315W        W39179   6.238  13.424  27.342
38316W        W39180   6.150  12.622  26.298
38317W        W39181   5.568  12.733  27.138
38318W        W39182   6.627  12.627  27.235
38319W        W39183   4.148  11.720  27.708
38320W        W39184   6.743  12.805  28.480
38321W        W39185   7.110  14.308  27.636
38322W        W39186   4.973  13.829  27.101
38323W        W39187   6.195  14.458  28.361
38324W        W39188   6.131  11.733  28.050
38325W        W39189   5.328  14.635  28.082
38326W        W39190   7.008  11.364  26.567
38327W        W39191   6.749  12.567  27.953
38328W        W39192   3.867  11.988  28.046
38329W        W39193   6.646  11.764  27.147
38330W        W39194   7.023  11.935  28.564
38331W        W39195   5.824  13.619  27.091
38332W        W39196   5.217  14.188  26.800
38333W        W39197   4.279  11.328  25.926
38334W        W39198   5.470  11.042  27.497
38335W        W39199   4.306  14.511  25.830
38336W        W39200   4.917  12.749  26.228
38337W        W39201   5.503  13.345  28.494
38338W        W39202   5.324  11.468  26.616
38339W        W39203   6.635  11.229  26.934
38340W        W39204   6.377  14.565  27.206
38341W        W39205   5.682  14.293  27.629
38342W        W39206   5.083  13.238  27.671
38343W        W39207   6.886  13.872  27.812
38344W        W39208   4.404  11.393  26.439
38345W        W39209   5.045  13.749  27.617
38346W        W39210   4.485  11.608  25.554
38347W        W39211   5.387  12.238  27.852
38348W        W39212   6.359  11.213  27.795
38349W        W39213   3.843  13.059  27.756
38350W        W39214   5.227  12.672  25.830
38351W        W39215   4.631  11.116  25.595
38352W        W39216   5.209  11.970  26.603
38353W        W39217   6.311  11.344  28.319
38354W        W39218   5.012  13.193  28.507
38355W        W39219   5.786  13.022  28.773
38356W        W39220   6.252  12.976  28.561
38357W        W39221   5.626  11.092   0.033
38358W        W39222   4.888  11.547  27.356
38359W        W39223   4.372  11.705  26.883
38360W        W39224   4.036  14.382  26.754
38361W        W39225   5.583  13.832  28.613
38362W        W39226   4.437  12.990  26.172
38363W        W39227   6.097  12.743  27.252
38364W        W39228   6.323  12.519  27.663
38365W        W39229   5.461  12.907  27.622
38366W        W39230   6.008  13.362  25.692
38367W        W39231   5.750  11.351  27.112
38368W        W39232   7.171  11.779  26.322
38369W        W39233   3.892  14.217  28.469
38370W        W39234   4.085  13.505  27.984
38371W        W39235   3.610  14.669  26.257
38372W        W39236   5.643  11.801  27.892
38373W        W39237   4.810  13.883  26.018
38374W        W39238   7.026  14.096  26.157
38375W        W39239   5.707  12.454  26.032
38376W        W39240   4.711  11.901  26.507
38377W        W39241   5.424  11.702  25.708
38378W        W39242   6.003  13.456  28.583
38379W        W39243   6.505  11.265  26.434
38380W        W39244   3.761  10.940  25.842
38381W        W39245   5.102  13.564  28.112
38382W        W39246   4.797  13.374  27.279
38383W        W39247   4.580  13.505  25.756
38384W        W39248   3.928  14.118  26.331
38385W        W39249   4.387  12.605  28.728
38386W        W39250   5.123  11.067  28.874
38387W        W39251   5.749  11.381  28.194
38388W        W39252   4.942  11.063  26.697
38389W        W39253   6.136  11.091  26.134
38390W        W39254   4.020  11.214  27.659
38391W        W39255   4.000  12.042  27.031
38392W        W39256   6.786  11.338  27.494
38393W        W39257   4.204  11.882  26.422
38394W        W39258   6.840  11.300  28.016
38395W        W39259   7.157  12.339  25.658
38396W        W39260   4.383  11.462  27.339
38397W        W39261   5.463  11.851  28.367
38398W        W39262   3.790  11.445  25.750
38399W        W39263   4.487  13.039  28.471
38400W        W39264   5.750  12.489  27.553
38401W        W39265   5.673  14.535  25.892
38402W        W39266   3.808  12.884  25.628
38403W        W39267   4.660  13.427  28.802
38404W        W39268   4.156  12.683  28.269
38405W        W39269   5.106  12.672  27.941
38406W        W39270   6.616  10.937  28.291
38407W        W39271   7.271  12.741  28.358
38408W        W39272   7.073  12.601  26.100
38409W        W39273   5.955  13.103  26.284
38410W        W39274   6.567  14.598  25.366
38411W        W39275   5.815  12.428   0.120
38412W        W39276   4.209  13.383   0.068
38413W        W39277   7.326  11.502  28.727
38414W        W39278   6.769  12.197  27.506
38415W        W39279   5.239  14.220  28.711
38416W        W39280   5.093  11.005  25.801
38417W        W39281   6.812  13.325  25.783
38418W        W39282   4.474  11.669  28.643
38419W        W39283   4.891  13.852  28.515
38420W        W39284   7.181  11.625  28.209
38421W        W39285   6.747  14.529  26.026
38422W        W39286   6.469  13.018  27.560
38423W        W39287   4.727  11.436  28.235
38424W        W39288   5.225  12.497  28.838
38425W        W39289   4.468  13.666  26.334
38426W        W39290   6.398  13.014  26.572
38427W        W39291   4.340  11.788  28.177
38428W        W39292   5.389  13.689  26.821
38429W        W39293   7.141  12.326  27.127
38430W        W39294   5.489  11.029  28.522
38431W        W39295   6.385  13.802  27.683
38432W        W39296   6.703  14.119  27.378
38433W        W39297   5.271  13.670  26.014
38434W        W39298   3.737  13.434  28.876
38435W        W39299   4.665  11.768  27.771
38436W        W39300   4.484  11.187  26.924
38437W        W39301   6.022  12.083  27.682
38438W        W39302   4.778  13.012  25.789
38439W        W39303   6.984  13.125  27.527
38440W        W39304   4.422  13.893  28.726
38441W        W39305   6.794  14.618  26.556
38442W        W39306   4.863  11.547  26.840
38443W        W39307   4.450  13.051  27.090
38444W        W39308   4.792  14.524  27.950
38445W        W39309   6.869  14.479  28.700
38446W        W39310   5.985  12.899  27.755
38447W        W39311   3.921  12.351  25.682
38448W        W39312   7.079  14.199  26.678
38449W        W39313   6.722  11.626  26.099
38450W        W39314   4.975  10.987  28.391
38451W        W39315   6.826  13.799  26.972
38452W        W39316   6.688  12.223  26.889
38453W        W39317   4.842  12.035  27.022
38454W        W39318   5.255  12.322  28.344
38455W        W39319   6.357  13.707  28.196
38456W        W39320   4.875  11.917  28.392
38457W        W39321   4.864  14.373  27.107
38458W        W39322   4.256  14.397  28.766
38459W        W39323   4.290  13.993  25.785
38460W        W39324   6.828  13.325  26.620
38461W        W39325   4.469  12.260  28.351
38462W        W39326   7.407  12.152  26.056
38463W        W39327   4.853  13.280  26.287
38464W        W39328   5.868  12.619  28.488
38465W        W39329   5.831  12.189  28.173
38466W        W39330   4.584  12.632  27.994
38467W        W39331   6.643  14.547  27.659
38468W        W39332   6.455  11.078  28.756
38469W        W39333   4.095  11.287  28.617
38470W        W39334   4.694  12.403  27.535
38471W        W39335   4.879  12.000  25.655
38472W        W39336   3.765  13.710  28.391
38473W        W39337   5.199  12.503  27.452
38474W        W39338   4.946  11.491  25.769
38475W        W39339   4.435  12.515  26.379
38476W        W39340   3.888  14.478  28.034
38477W        W39341   6.561  12.523  26.023
38478W        W39342   6.850  11.363  28.558
38479W        W39343   6.398  13.538  26.817
38480W        W39344   3.928  12.530  28.959
38481W        W39345   6.891  11.124  26.117
38482W        W39346   6.476  13.420  26.236
38483W        W39347   5.242  12.333  26.224
38484W        W39348   6.312  11.478  25.827
38485W        W39349   6.492  12.114  27.950
38486W        W39350   4.272  12.469  27.241
38487W        W39351   4.598  13.501  26.801
38488W        W39352   6.211  12.012  26.788
38489W        W39353   5.396  11.554  27.515
38490W        W39354   7.192  13.463  27.938
38491W        W39355   7.287  11.486  27.709
38492W        W39356   3.670  14.345  27.143
38493W        W39357   4.236  13.196  26.600
38494W        W39358   4.223  11.110   0.086
38495W        W39359   5.447  13.937   0.112
38496W        W39360   7.067  12.846  27.062
38497W        W39361   6.319  12.957  25.877
38498W        W39362   5.848  14.608  27.997
38499W        W39363   6.615  13.141  28.893
38500W        W39364   5.183  10.888  26.284
38501W        W39365   5.996  11.804  27.221
38502W        W39366   3.804  13.541  27.539
38503W        W39367   4.891  11.422  26.318
38504W        W39368   4.801  12.904  28.882
38505W        W39369   5.721  11.822  26.767
38506W        W39370   6.121  13.384  27.846
38507W        W39371   4.240  13.904  28.242
38508W        W39372   4.846  13.865   0.038
38509W        W39373   4.573  11.745  26.041
38510W        W39374   6.203  11.668  26.303
38511W        W39375   6.060  13.985  28.502
38512W        W39376   4.763  12.588  27.060
38513W        W39377   4.347  14.291  27.918
38514W        W39378   7.103  14.325  25.692
38515W        W39379   4.027  12.993  28.744
38516W        W39380   5.789  13.173  27.354
38517W        W39381   4.691  12.917  26.654
38518W        W39382   4.719  13.925  27.994
38519W        W39383   5.231  11.257  27.090
38520W        W39384   3.549  13.051  26.252
38521W        W39385   5.350  12.192  25.733
38522W        W39386   4.219  12.707  26.798
38523W        W39387   5.240  11.408  28.288
38524W        W39388   6.880  11.336  25.646
38525W        W39389   7.122  12.920  28.828
38526W        W39390   5.753  14.286  28.821
38527W        W39391   7.146  13.283  28.455
38528W        W39392   6.728  14.031  28.973
38529W        W39393   4.460  14.583  27.506
38530W        W39394   7.341  13.384  26.584
38531W        W39395   5.845  12.300  27.044
38532W        W39396   5.474  10.974  26.733
38533W        W39397   4.665  14.037  26.742
38534W        W39398   5.142  11.792  27.962
38535W        W39399   4.917  11.023  27.423
38536W        W39400   3.830  14.353  25.880
38537W        W39401   5.554  13.178  26.875
38538W        W39402   4.599  14.249  28.369
38539W        W39403   3.976  12.774  26.339
38540W        W39404   3.895  11.611  27.271
38541W        W39405   5.326  13.429  27.265
38542W        W39406   3.911  11.467  26.258
38543W        W39407   6.257  12.513  28.180
38544W        W39408   6.365  12.005  25.929
38545W        W39409   6.729  13.550  27.399
38546W        W39410   5.435  13.926  27.339
38547W        W39411   4.949  14.256  26.361
38548W        W39412   6.005  11.089  25.631
38549W        W39413   4.002  14.316  27.546
38550W        W39414   6.112  12.036  28.925
38551W        W39415   4.112  11.626   0.011
38552W        W39416   3.952  12.311  26.572
38553W        W39417   4.754  12.239  26.097
38554W        W39418   6.307  12.473  28.705
38555W        W39419   4.659  12.936  27.565
38556W        W39420   6.142  11.005  26.954
38557W        W39421   5.372  14.427  27.229
38558W        W39422   6.512  14.186  27.991
38559W        W39423   6.291  13.905  27.175
38560W        W39424   6.073  13.152  26.934
38561W        W39425   5.341  11.368  26.100
38562W        W39426   7.313  11.049  26.860
38563W        W39427   4.739  12.513  25.649
38564W        W39428   7.079  11.898  26.837
38565W        W39429   5.690  12.947  25.857
38566W        W39430   6.624  13.309  28.407
38567W        W39431   6.653  13.810  25.929
38568W        W39432   4.967  11.527  28.714
38569W        W39433   4.867  12.215  27.980
38570W        W39434   6.891  13.728  28.301
38571W        W39435   5.920  11.700  28.564
38572W        W39436   3.914  12.278  28.488
38573W        W39437   5.621  12.653  28.044
38574W        W39438   4.066  13.432  27.030
38575W        W39439   4.161  12.661  27.695
38576W        W39440   6.413  12.983  28.067
38577W        W39441   6.287  14.302  28.865
38578W        W39442   6.263  12.044  28.432
38579W        W39443   6.586  14.238  26.863
38580W        W39444   5.460  13.919  27.900
38581W        W39445   4.689  14.122  27.521
38582W        W39446   6.662  13.406  27.890
38583W        W39447   5.645  13.467  28.989
38584W        W39448   4.253  13.301  27.497
38585W        W39449   6.615  13.136  27.072
38586W        W39450   6.193  14.266  27.562
38587W        W39451   4.271  13.850  27.675
38588W        W39452   5.201  11.979  28.797
38589W        W39453   5.426  14.000  26.383
38590W        W39454   5.180  13.568  28.816
38591W        W39455   4.990  13.730  26.496
38592W        W39456   4.380  12.116  25.566
38593W        W39457   3.774  18.256   3.396
38594W        W39458   4.167  17.125   2.869
38595W        W39459   6.925  16.858   0.685
38596W        W39460   7.064  17.905   2.643
38597W        W39461   5.090  17.867   0.188
38598W        W39462   4.966  16.062   1.090
38599W        W39463   4.454  15.857   1.529
38600W        W39464   5.474  16.688   0.715
38601W        W39465   5.186  17.845   3.005
38602W        W39466   3.727  15.379   2.879
38603W        W39467   4.376  14.643   2.749
38604W        W39468   6.226  14.977   1.586
38605W        W39469   5.976  15.761   0.492
38606W        W39470   6.286  15.627   3.244
38607W        W39471   3.784  15.005   2.536
38608W        W39472   3.864  17.742   3.444
38609W        W39473   5.296  16.952   0.317
38610W        W39474   3.743  15.822   2.058
38611W        W39475   4.865  15.919   3.117
38612W        W39476   7.169  15.542   1.813
38613W        W39477   6.888  16.686   2.382
38614W        W39478   5.297  16.175   1.505
38615W        W39479   5.945  17.438   1.951
38616W        W39480   4.210  16.673   2.078
38617W        W39481   3.533  16.270   1.945
38618W        W39482   4.877  16.277   2.749
38619W        W39483   7.024  16.103   3.024
38620W        W39484   4.548  17.561   1.716
38621W        W39485   5.763  17.224   2.640
38622W        W39486   5.226  15.827   1.932
38623W        W39487   5.126  16.672   1.610
38624W        W39488   5.961  17.516   3.417
38625W        W39489   5.393  16.623   3.423
38626W        W39490   5.347  16.495   2.898
38627W        W39491   3.622  15.650   3.322
38628W        W39492   6.429  17.306   3.203
38629W        W39493   4.274  14.999   0.997
38630W        W39494   4.573  17.437   2.231
38631W        W39495   7.091  16.890   1.508
38632W        W39496   6.652  15.177   1.802
38633W        W39497   6.913  15.349   0.039
38634W        W39498   7.321  16.124   2.334
38635W        W39499   5.277  17.851   2.178
38636W        W39500   6.969  17.379   0.634
38637W        W39501   4.378  18.224   0.584
38638W        W39502   4.619  18.163   1.056
38639W        W39503   4.282  14.950   2.317
38640W        W39504   6.875  15.915   2.537
38641W        W39505   6.329  16.326   1.217
38642W        W39506   6.367  16.028   0.292
38643W        W39507   5.496  17.292   2.181
38644W        W39508   5.499  15.704   1.516
38645W        W39509   5.877  17.672   2.429
38646W        W39510   6.832  16.411   0.973
38647W        W39511   5.583  15.166   1.009
38648W        W39512   4.438  17.731   0.718
38649W        W39513   3.862  15.175   1.264
38650W        W39514   6.691  15.672   1.662
38651W        W39515   4.033  17.492   1.603
38652W        W39516   5.320  17.746   0.655
38653W        W39517   6.649  15.782  28.919
38654W        W39518   3.707  17.556   2.210
38655W        W39519   4.591  17.426   2.738
38656W        W39520   4.736  16.741   1.272
38657W        W39521   4.759  15.053   2.106
38658W        W39522   7.307  14.669   1.788
38659W        W39523   4.231  16.520   0.145
38660W        W39524   4.228  15.650   0.367
38661W        W39525   4.108  17.527   1.093
38662W        W39526   5.117  17.072   1.227
38663W        W39527   6.607  17.830   2.900
38664W        W39528   5.552  15.557   0.696
38665W        W39529   6.965  17.803   1.375
38666W        W39530   6.542  15.935   2.944
38667W        W39531   7.217  17.356   1.328
38668W        W39532   5.890  16.736   2.724
38669W        W39533   3.607  16.109   1.075
38670W        W39534   4.543  16.947   2.408
38671W        W39535   6.023  16.005   0.946
38672W        W39536   5.781  16.443   1.058
38673W        W39537   4.029  15.746   2.488
38674W        W39538   4.123  15.769   2.989
38675W        W39539   4.025  14.687   1.354
38676W        W39540   5.885  15.100   2.006
38677W        W39541   5.510  15.206   3.191
38678W        W39542   5.989  15.246   0.622
38679W        W39543   7.097  17.733   3.146
38680W        W39544   5.877  14.836   3.132
38681W        W39545   6.936  17.226   3.269
38682W        W39546   6.505  15.302   2.863
38683W        W39547   6.088  15.121   1.119
38684W        W39548   6.619  16.322   3.277
38685W        W39549   4.243  17.996   1.394
38686W        W39550   5.068  15.725   0.669
38687W        W39551   4.487  14.977   3.115
38688W        W39552   6.795  15.574   0.887
38689W        W39553   7.087  16.005   0.761
38690W        W39554   4.662  18.091   3.614
38691W        W39555   4.672  14.879   0.696
38692W        W39556   7.058  15.029   1.528
38693W        W39557   7.131  17.452   0.158
38694W        W39558   3.818  16.637   1.737
38695W        W39559   6.134  15.120   0.131
38696W        W39560   7.123  17.548   1.804
38697W        W39561   7.190  14.660   2.281
38698W        W39562   5.627  16.155   3.191
38699W        W39563   5.387  17.214   0.765
38700W        W39564   6.239  16.543   3.571
38701W        W39565   5.878  14.649   1.757
38702W        W39566   4.235  15.771   2.007
38703W        W39567   4.081  16.712   2.574
38704W        W39568   5.818  17.878   1.487
38705W        W39569   6.781  15.519   2.183
38706W        W39570   5.702  17.945   2.867
38707W        W39571   6.950  16.730   0.197
38708W        W39572   5.209  16.533   1.123
38709W        W39573   7.035  14.597   2.765
38710W        W39574   5.407  16.846   2.488
38711W        W39575   5.727  15.596   1.968
38712W        W39576   6.522  16.008   0.800
38713W        W39577   6.829  15.776   0.395
38714W        W39578   6.684  17.585   1.010
38715W        W39579   6.307  17.090   1.687
38716W        W39580   6.198  16.398   0.653
38717W        W39581   5.635  16.562   1.539
38718W        W39582   6.592  16.202   1.672
38719W        W39583   3.947  15.345   2.175
38720W        W39584   6.711  16.399   2.766
38721W        W39585   7.126  17.984   2.074
38722W        W39586   5.018  17.553   1.480
38723W        W39587   6.199  18.026   2.655
38724W        W39588   5.899  15.451   2.446
38725W        W39589   5.287  18.156   2.619
38726W        W39590   7.012  15.052   1.006
38727W        W39591   6.583  16.276   2.245
38728W        W39592   3.534  15.540   2.431
38729W        W39593   6.547  15.328   1.300
38730W        W39594   6.916  15.585   2.976
38731W        W39595   5.869  17.277   1.466
38732W        W39596   5.128  17.939   1.157
38733W        W39597   4.099  15.134   0.520
38734W        W39598   5.414  14.815   1.927
38735W        W39599   4.420  17.852   0.161
38736W        W39600   4.731  16.453   0.836
38737W        W39601   5.467  16.979   2.996
38738W        W39602   5.215  15.514   1.129
38739W        W39603   6.643  14.804   1.302
38740W        W39604   6.247  18.143   1.686
38741W        W39605   5.742  17.917   1.995
38742W        W39606   5.110  16.958   2.050
38743W        W39607   6.907  17.558   2.279
38744W        W39608   4.783  15.141   1.123
38745W        W39609   5.023  17.458   1.980
38746W        W39610   4.564  15.104   0.204
38747W        W39611   5.452  15.774   2.377
38748W        W39612   6.291  14.768   2.060
38749W        W39613   3.713  16.653   2.235
38750W        W39614   5.415  16.415   0.255
38751W        W39615   4.643  14.582   0.271
38752W        W39616   5.491  15.974   1.040
38753W        W39617   6.163  15.003   2.517
38754W        W39618   4.990  16.865   2.811
38755W        W39619   5.851  16.616   3.237
38756W        W39620   6.312  16.665   3.032
38757W        W39621   5.480  14.844   3.538
38758W        W39622   4.722  15.680   1.928
38759W        W39623   4.346  15.363   1.369
38760W        W39624   4.020  18.008   0.905
38761W        W39625   5.575  17.484   3.077
38762W        W39626   4.477  16.816   0.529
38763W        W39627   6.121  16.436   1.736
38764W        W39628   6.370  15.848   2.018
38765W        W39629   5.476  16.612   2.026
38766W        W39630   6.175  17.017   0.100
38767W        W39631   5.726  15.221   1.528
38768W        W39632   7.340  15.538   0.875
38769W        W39633   3.843  17.917   2.946
38770W        W39634   4.071  17.192   2.342
38771W        W39635   3.549  18.117   0.679
38772W        W39636   5.471  15.214   2.284
38773W        W39637   4.967  17.383   0.471
38774W        W39638   6.950  17.903   0.669
38775W        W39639   5.711  16.205   0.602
38776W        W39640   4.674  15.644   1.081
38777W        W39641   5.711  15.415   0.195
38778W        W39642   5.949  17.099   3.119
38779W        W39643   6.529  15.119   0.816
38780W        W39644   3.744  14.717   0.372
38781W        W39645   5.013  17.247   2.455
38782W        W39646   4.822  17.106   1.654
38783W        W39647   4.800  17.001   0.174
38784W        W39648   3.695  17.605   0.765
38785W        W39649   4.430  16.220   3.082
38786W        W39650   4.992  14.898   3.288
38787W        W39651   5.678  14.988   2.681
38788W        W39652   4.925  14.621   1.223
38789W        W39653   5.852  14.758   0.793
38790W        W39654   3.859  14.674   2.157
38791W        W39655   3.939  15.535   1.655
38792W        W39656   6.805  14.689   1.863
38793W        W39657   4.190  15.503   0.885
38794W        W39658   6.686  14.971   2.296
38795W        W39659   7.145  16.128   0.174
38796W        W39660   4.360  15.272   1.876
38797W        W39661   5.520  15.512   2.799
38798W        W39662   3.595  15.216   0.316
38799W        W39663   4.520  16.674   2.855
38800W        W39664   5.642  16.136   1.918
38801W        W39665   5.593  17.963   0.254
38802W        W39666   3.728  16.624   0.177
38803W        W39667   4.637  17.108   3.117
38804W        W39668   4.045  16.214   2.728
38805W        W39669   4.935  16.607   2.369
38806W        W39670   6.556  14.794   2.773
38807W        W39671   7.240  16.485   2.703
38808W        W39672   7.230  16.466   0.574
38809W        W39673   5.987  16.864   0.821
38810W        W39674   6.640  18.131   0.256
38811W        W39675   5.821  16.259   3.654
38812W        W39676   4.241  17.187   3.424
38813W        W39677   7.376  15.044   3.370
38814W        W39678   6.944  15.983   2.003
38815W        W39679   5.153  17.991   3.486
38816W        W39680   5.098  14.791   0.422
38817W        W39681   6.675  17.200   0.212
38818W        W39682   4.555  15.488   2.985
38819W        W39683   5.070  17.355   2.947
38820W        W39684   6.977  15.247   2.597
38821W        W39685   6.463  18.176   0.730
38822W        W39686   6.472  16.738   2.013
38823W        W39687   4.676  15.100   2.635
38824W        W39688   5.190  16.160   3.458
38825W        W39689   4.551  17.222   0.867
38826W        W39690   6.463  16.755   0.966
38827W        W39691   4.189  15.278   2.711
38828W        W39692   5.456  17.483   1.216
38829W        W39693   7.300  15.944   1.219
38830W        W39694   5.388  14.733   3.018
38831W        W39695   6.483  17.419   2.017
38832W        W39696   6.684  17.847   1.817
38833W        W39697   5.813  17.197   0.463
38834W        W39698   3.779  17.272   3.210
38835W        W39699   4.499  15.486   2.351
38836W        W39700   4.503  14.863   1.450
38837W        W39701   6.311  15.330   2.152
38838W        W39702   4.914  16.535   0.347
38839W        W39703   6.939  16.543   1.895
38840W        W39704   4.232  17.594   3.093
38841W        W39705   6.849  18.199   1.077
38842W        W39706   4.814  15.265   1.619
38843W        W39707   4.315  16.646   1.560
38844W        W39708   4.848  18.300   2.396
38845W        W39709   6.827  18.183   3.203
38846W        W39710   5.955  16.495   2.247
38847W        W39711   3.942  16.165   0.386
38848W        W39712   7.315  17.709   0.972
38849W        W39713   7.002  15.277   0.536
38850W        W39714   4.912  14.683   2.811
38851W        W39715   6.721  17.366   1.536
38852W        W39716   6.789  15.961   1.238
38853W        W39717   4.970  15.761   1.498
38854W        W39718   5.302  15.984   2.835
38855W        W39719   6.278  17.128   2.748
38856W        W39720   4.968  15.618   2.712
38857W        W39721   4.746  18.004   1.547
38858W        W39722   4.272  18.112   3.249
38859W        W39723   4.444  17.346   0.370
38860W        W39724   6.830  17.093   1.113
38861W        W39725   4.509  15.906   2.669
38862W        W39726   7.348  15.675   0.378
38863W        W39727   4.967  16.907   0.740
38864W        W39728   5.742  16.243   2.693
38865W        W39729   5.945  15.952   2.310
38866W        W39730   4.469  16.379   2.436
38867W        W39731   6.646  18.014   2.345
38868W        W39732   6.380  14.935   3.252
38869W        W39733   3.989  14.886   3.002
38870W        W39734   4.522  16.191   1.959
38871W        W39735   4.701  15.595   0.098
38872W        W39736   3.736  17.425   2.719
38873W        W39737   5.054  16.306   1.961
38874W        W39738   5.178  15.378   0.267
38875W        W39739   4.390  16.258   1.189
38876W        W39740   3.865  18.035   2.360
38877W        W39741   6.749  16.327   0.475
38878W        W39742   6.947  15.025   3.065
38879W        W39743   6.327  17.225   1.195
38880W        W39744   3.856  16.122   3.247
38881W        W39745   7.036  14.753   0.548
38882W        W39746   6.485  17.196   0.703
38883W        W39747   5.196  16.234   0.676
38884W        W39748   6.612  14.988   0.322
38885W        W39749   6.375  15.694   2.522
38886W        W39750   4.057  16.171   1.684
38887W        W39751   4.415  17.182   1.360
38888W        W39752   6.306  15.825   1.341
38889W        W39753   5.291  15.322   1.808
38890W        W39754   7.182  17.127   2.398
38891W        W39755   7.135  15.112   2.065
38892W        W39756   3.764  17.850   1.323
38893W        W39757   3.912  17.110   0.873
38894W        W39758   4.102  14.913   3.512
38895W        W39759   5.186  17.496   3.419
38896W        W39760   7.055  16.368   1.431
38897W        W39761   6.481  16.764   0.430
38898W        W39762   5.761  18.193   2.419
38899W        W39763   6.626  16.844   3.418
38900W        W39764   5.310  14.744   0.915
38901W        W39765   6.163  15.475   1.680
38902W        W39766   3.780  17.131   1.900
38903W        W39767   5.113  15.200   0.743
38904W        W39768   4.921  16.520   3.192
38905W        W39769   5.844  15.583   1.165
38906W        W39770   6.134  17.081   2.262
38907W        W39771   4.163  17.663   2.575
38908W        W39772   4.739  17.693   3.235
38909W        W39773   4.640  15.406   0.619
38910W        W39774   6.281  15.563   0.896
38911W        W39775   6.073  17.576   2.909
38912W        W39776   4.781  16.285   1.523
38913W        W39777   4.382  18.085   2.360
38914W        W39778   7.136  17.990   0.203
38915W        W39779   4.051  16.618   3.074
38916W        W39780   5.869  16.900   1.857
38917W        W39781   4.288  16.779   1.035
38918W        W39782   4.913  17.771   2.535
38919W        W39783   5.237  15.015   1.384
38920W        W39784   3.555  16.954   0.528
38921W        W39785   5.459  15.858   0.286
38922W        W39786   3.917  16.477   1.256
38923W        W39787   5.181  15.127   2.736
38924W        W39788   7.021  14.837   0.030
38925W        W39789   7.029  16.609   3.158
38926W        W39790   5.656  17.944   3.386
38927W        W39791   7.238  17.010   2.893
38928W        W39792   6.653  17.726   3.410
38929W        W39793   4.346  18.179   1.866
38930W        W39794   7.292  16.649   1.052
38931W        W39795   5.850  16.083   1.433
38932W        W39796   5.694  14.765   1.297
38933W        W39797   4.586  17.657   1.207
38934W        W39798   5.034  15.455   2.249
38935W        W39799   4.923  14.736   1.728
38936W        W39800   3.967  17.967   0.388
38937W        W39801   5.601  16.930   1.170
38938W        W39802   4.531  17.946   2.831
38939W        W39803   3.987  16.644   0.632
38940W        W39804   3.919  15.028   1.762
38941W        W39805   5.423  17.081   1.655
38942W        W39806   3.790  14.851   0.859
38943W        W39807   6.243  16.216   2.645
38944W        W39808   6.428  15.468   0.404
38945W        W39809   6.890  17.077   1.949
38946W        W39810   5.471  17.578   1.736
38947W        W39811   4.879  18.009   0.643
38948W        W39812   6.183  14.633   0.283
38949W        W39813   3.845  17.992   1.817
38950W        W39814   5.865  15.773   3.485
38951W        W39815   4.100  15.352   3.264
38952W        W39816   4.020  15.844   1.250
38953W        W39817   4.609  15.957   0.659
38954W        W39818   6.135  16.178   3.173
38955W        W39819   4.693  16.681   1.913
38956W        W39820   6.165  14.606   1.187
38957W        W39821   5.258  18.058   1.688
38958W        W39822   6.405  17.566   2.503
38959W        W39823   6.265  17.617   1.586
38960W        W39824   6.077  16.779   1.342
38961W        W39825   5.534  15.040   0.499
38962W        W39826   7.356  14.666   1.276
38963W        W39827   4.984  16.026   0.235
38964W        W39828   7.058  15.494   1.315
38965W        W39829   5.839  16.685   0.354
38966W        W39830   6.731  16.911   2.869
38967W        W39831   6.536  17.663   0.484
38968W        W39832   5.019  15.388   3.170
38969W        W39833   4.898  15.972   2.327
38970W        W39834   6.858  17.402   2.780
38971W        W39835   5.995  15.301   2.937
38972W        W39836   3.649  15.874   2.833
38973W        W39837   5.329  16.280   2.399
38974W        W39838   3.944  16.993   1.393
38975W        W39839   4.024  16.218   2.209
38976W        W39840   6.374  16.689   2.512
38977W        W39841   6.208  17.974   3.215
38978W        W39842   5.963  15.807   2.851
38979W        W39843   6.420  17.975   1.237
38980W        W39844   5.396  17.592   2.604
38981W        W39845   4.764  17.906   2.051
38982W        W39846   6.644  17.122   2.396
38983W        W39847   5.580  17.137   3.482
38984W        W39848   4.320  17.123   1.871
38985W        W39849   6.603  16.703   1.479
38986W        W39850   6.231  17.861   2.107
38987W        W39851   4.182  17.702   2.058
38988W        W39852   5.392  15.711   3.285
38989W        W39853   5.641  17.932   1.008
38990W        W39854   5.079  17.003   3.333
38991W        W39855   4.990  17.488   0.960
38992W        W39856   4.475  16.078   0.166
38993W        W39857   3.723  18.264   7.098
38994W        W39858   4.076  17.132   6.587
38995W        W39859   6.890  16.849   4.364
38996W        W39860   6.982  17.936   6.425
38997W        W39861   4.477  17.966   4.080
38998W        W39862   5.007  16.152   4.891
38999W        W39863   4.613  15.955   5.322
39000W        W39864   5.587  16.743   4.466
39001W        W39865   5.198  17.836   6.746
39002W        W39866   3.727  15.396   6.740
39003W        W39867   4.179  14.606   6.590
39004W        W39868   6.189  15.132   5.521
39005W        W39869   5.968  15.908   4.005
39006W        W39870   6.291  15.473   7.012
39007W        W39871   3.871  15.032   6.327
39008W        W39872   3.841  17.772   7.165
39009W        W39873   5.186  17.176   3.826
39010W        W39874   3.551  15.822   5.810
39011W        W39875   4.842  15.938   6.917
39012W        W39876   6.985  15.559   5.388
39013W        W39877   6.975  16.664   6.225
39014W        W39878   5.383  16.114   5.278
39015W        W39879   5.920  17.394   5.648
39016W        W39880   4.283  16.779   6.027
39017W        W39881   3.353  16.299   5.767
39018W        W39882   4.821  16.340   6.578
39019W        W39883   7.055  16.076   6.940
39020W        W39884   4.503  17.498   5.354
39021W        W39885   5.745  17.179   6.382
39022W        W39886   5.034  15.909   5.673
39023W        W39887   5.362  16.618   5.338
39024W        W39888   5.984  17.520   7.104
39025W        W39889   5.431  16.623   7.222
39026W        W39890   5.344  16.475   6.717
39027W        W39891   3.559  15.659   7.155
39028W        W39892   6.415  17.285   6.867
39029W        W39893   3.876  14.917   4.783
39030W        W39894   4.674  17.068   5.798
39031W        W39895   7.115  17.050   5.232
39032W        W39896   6.514  15.524   5.637
39033W        W39897   6.672  15.332   3.397
39034W        W39898   7.247  16.079   6.052
39035W        W39899   5.307  17.731   5.860
39036W        W39900   6.916  17.355   4.148
39037W        W39901   4.044  18.121   4.381
39038W        W39902   4.394  18.064   4.813
39039W        W39903   4.336  14.853   6.160
39040W        W39904   6.862  15.772   6.379
39041W        W39905   6.290  16.257   5.035
39042W        W39906   6.326  16.036   3.631
39043W        W39907   5.520  17.240   5.934
39044W        W39908   5.433  15.386   5.100
39045W        W39909   5.823  17.636   6.114
39046W        W39910   6.743  16.346   4.823
39047W        W39911   5.769  15.048   4.430
39048W        W39912   4.328  17.677   4.478
39049W        W39913   3.607  15.184   5.170
39050W        W39914   6.246  15.854   5.336
39051W        W39915   3.999  17.564   5.494
39052W        W39916   4.947  17.717   3.875
39053W        W39917   6.769  15.838   3.421
39054W        W39918   3.758  17.645   5.955
39055W        W39919   4.485  17.195   6.278
39056W        W39920   5.060  16.659   4.927
39057W        W39921   4.731  15.148   6.003
39058W        W39922   7.033  14.688   5.565
39059W        W39923   4.479  16.692   3.384
39060W        W39924   3.793  15.287   3.723
39061W        W39925   4.153  17.596   4.971
39062W        W39926   4.862  17.151   4.936
39063W        W39927   6.525  17.820   6.657
39064W        W39928   5.637  15.553   4.194
39065W        W39929   6.892  17.952   5.266
39066W        W39930   6.548  15.932   6.744
39067W        W39931   7.333  17.446   4.963
39068W        W39932   5.957  16.699   6.450
39069W        W39933   3.477  16.295   4.913
39070W        W39934   4.771  16.758   6.201
39071W        W39935   5.850  15.950   4.519
39072W        W39936   5.977  16.445   4.667
39073W        W39937   4.108  15.908   6.161
39074W        W39938   4.112  15.863   6.860
39075W        W39939   3.992  14.853   5.303
39076W        W39940   5.671  15.194   5.539
39077W        W39941   5.437  15.167   6.804
39078W        W39942   5.918  15.185   3.953
39079W        W39943   7.089  17.698   6.885
39080W        W39944   5.978  14.641   6.791
39081W        W39945   6.912  17.199   7.015
39082W        W39946   6.439  15.268   6.554
39083W        W39947   6.203  15.201   4.729
39084W        W39948   6.638  16.317   7.123
39085W        W39949   4.250  17.982   5.299
39086W        W39950   5.140  15.579   4.044
39087W        W39951   4.557  14.814   6.926
39088W        W39952   6.583  15.560   4.556
39089W        W39953   6.914  15.950   4.548
39090W        W39954   4.769  18.117   6.730
39091W        W39955   4.600  14.617   4.113
39092W        W39956   7.101  14.963   5.129
39093W        W39957   7.122  17.477   3.680
39094W        W39958   3.964  16.675   5.382
39095W        W39959   5.978  15.248   3.444
39096W        W39960   7.196  17.558   5.463
39097W        W39961   6.863  14.793   6.060
39098W        W39962   5.704  16.019   6.779
39099W        W39963   5.460  17.265   4.261
39100W        W39964   6.197  16.450   7.330
39101W        W39965   5.772  14.693   5.446
39102W        W39966   4.060  15.760   5.667
39103W        W39967   3.874  16.721   6.324
39104W        W39968   5.932  17.793   5.209
39105W        W39969   6.885  15.770   5.870
39106W        W39970   5.668  17.910   6.540
39107W        W39971   6.966  16.963   3.800
39108W        W39972   5.489  16.368   4.830
39109W        W39973   7.116  14.628   6.556
39110W        W39974   5.571  16.749   6.129
39111W        W39975   5.546  15.700   5.517
39112W        W39976   6.366  16.109   4.547
39113W        W39977   6.491  15.881   4.114
39114W        W39978   6.613  17.666   4.444
39115W        W39979   6.594  17.035   5.342
39116W        W39980   6.268  16.352   4.065
39117W        W39981   5.845  16.535   5.176
39118W        W39982   6.664  16.524   5.304
39119W        W39983   4.158  15.334   5.992
39120W        W39984   6.769  16.383   6.613
39121W        W39985   7.127  17.985   5.733
39122W        W39986   5.022  17.555   5.223
39123W        W39987   6.163  17.999   6.305
39124W        W39988   6.010  15.340   6.217
39125W        W39989   5.030  17.918   6.275
39126W        W39990   6.974  15.034   4.562
39127W        W39991   6.791  16.317   5.869
39128W        W39992   3.697  15.501   6.190
39129W        W39993   6.461  15.410   5.135
39130W        W39994   6.911  15.566   6.847
39131W        W39995   5.914  17.259   5.124
39132W        W39996   5.137  17.902   4.864
39133W        W39997   4.286  15.033   3.978
39134W        W39998   5.263  15.005   5.892
39135W        W39999   4.127  18.112   3.744
39136W        W40000   5.151  16.453   4.430
39137W        W40001   5.435  16.970   6.749
39138W        W40002   5.340  14.982   4.775
39139W        W40003   6.627  14.963   4.935
39140W        W40004   6.352  18.039   5.394
39141W        W40005   5.746  17.921   5.681
39142W        W40006   5.166  16.804   5.816
39143W        W40007   6.974  17.573   6.062
39144W        W40008   4.649  14.851   4.626
39145W        W40009   5.111  17.288   5.638
39146W        W40010   4.593  15.309   3.474
39147W        W40011   5.415  15.910   6.057
39148W        W40012   5.899  14.904   5.908
39149W        W40013   3.714  16.685   5.838
39150W        W40014   5.365  16.417   3.899
39151W        W40015   4.611  14.827   3.631
39152W        W40016   5.421  15.844   4.822
39153W        W40017   6.159  14.863   6.353
39154W        W40018   4.926  16.830   6.683
39155W        W40019   5.834  16.522   6.918
39156W        W40020   6.327  16.620   6.810
39157W        W40021   5.572  14.816   7.188
39158W        W40022   4.665  15.514   5.639
39159W        W40023   4.098  15.367   5.308
39160W        W40024   3.875  18.057   4.911
39161W        W40025   5.572  17.467   6.804
39162W        W40026   4.803  16.996   4.121
39163W        W40027   6.222  16.414   5.525
39164W        W40028   6.344  15.994   5.806
39165W        W40029   5.760  16.610   5.679
39166W        W40030   6.158  17.051   3.588
39167W        W40031   5.796  15.015   5.034
39168W        W40032   7.057  15.484   4.344
39169W        W40033   3.840  17.941   6.685
39170W        W40034   3.989  17.204   6.093
39171W        W40035   3.507  18.056   4.374
39172W        W40036   5.566  15.425   5.975
39173W        W40037   4.532  17.450   4.051
39174W        W40038   6.709  17.792   3.947
39175W        W40039   5.770  16.345   4.191
39176W        W40040   5.263  15.435   4.540
39177W        W40041   5.530  15.396   3.688
39178W        W40042   5.949  17.055   6.835
39179W        W40043   6.523  15.133   4.288
39180W        W40044   3.722  14.779   3.884
39181W        W40045   5.188  17.048   6.287
39182W        W40046   4.903  16.872   5.374
39183W        W40047   4.734  17.298   3.595
39184W        W40048   3.813  17.696   4.571
39185W        W40049   4.430  16.289   6.916
39186W        W40050   5.073  14.767   6.943
39187W        W40051   5.607  15.033   6.327
39188W        W40052   4.973  14.667   5.008
39189W        W40053   6.169  14.778   4.135
39190W        W40054   3.933  14.885   5.824
39191W        W40055   3.652  15.680   5.313
39192W        W40056   6.719  15.092   5.448
39193W        W40057   3.833  15.164   4.235
39194W        W40058   6.445  15.117   5.985
39195W        W40059   6.711  16.415   3.767
39196W        W40060   4.372  15.056   5.623
39197W        W40061   5.586  15.581   6.473
39198W        W40062   3.365  15.159   3.998
39199W        W40063   4.398  16.717   6.560
39200W        W40064   5.838  16.092   5.648
39201W        W40065   5.373  18.079   3.937
39202W        W40066   3.672  16.580   3.417
39203W        W40067   4.568  17.216   6.789
39204W        W40068   4.063  16.280   6.538
39205W        W40069   5.178  16.440   6.229
39206W        W40070   6.599  14.691   6.530
39207W        W40071   7.298  16.452   6.583
39208W        W40072   7.168  16.548   4.040
39209W        W40073   6.046  16.797   4.226
39210W        W40074   6.555  18.208   3.624
39211W        W40075   5.751  16.176   7.291
39212W        W40076   4.173  17.117   7.109
39213W        W40077   7.252  15.180   7.113
39214W        W40078   6.726  16.025   5.446
39215W        W40079   5.076  18.054   7.194
39216W        W40080   5.082  14.720   3.851
39217W        W40081   6.599  17.313   3.713
39218W        W40082   4.507  15.528   6.838
39219W        W40083   5.050  17.343   6.697
39220W        W40084   6.875  15.258   6.291
39221W        W40085   6.357  18.167   4.103
39222W        W40086   6.520  16.761   5.782
39223W        W40087   4.577  15.166   6.494
39224W        W40088   5.303  16.113   7.082
39225W        W40089   4.385  17.216   4.713
39226W        W40090   6.433  16.650   4.532
39227W        W40091   4.148  15.506   6.475
39228W        W40092   5.283  17.412   4.771
39229W        W40093   7.118  16.018   5.073
39230W        W40094   5.492  14.674   6.693
39231W        W40095   6.400  17.265   5.791
39232W        W40096   6.701  17.677   5.643
39233W        W40097   5.521  17.597   3.786
39234W        W40098   3.756  17.327   6.927
39235W        W40099   4.556  15.600   6.156
39236W        W40100   4.506  14.823   5.164
39237W        W40101   6.009  15.576   5.732
39238W        W40102   4.942  16.661   3.701
39239W        W40103   7.021  16.717   5.616
39240W        W40104   4.206  17.585   6.816
39241W        W40105   6.717  18.172   4.543
39242W        W40106   4.943  15.194   5.071
39243W        W40107   4.472  16.632   5.564
39244W        W40108   5.026  18.196   5.846
39245W        W40109   6.857  18.144   6.898
39246W        W40110   6.073  16.389   6.034
39247W        W40111   3.996  15.763   3.637
39248W        W40112   6.986  17.779   4.781
39249W        W40113   6.717  15.463   3.933
39250W        W40114   4.770  14.673   6.476
39251W        W40115   6.814  17.456   5.151
39252W        W40116   6.641  15.863   4.975
39253W        W40117   5.056  15.720   5.189
39254W        W40118   5.241  16.004   6.548
39255W        W40119   6.271  17.112   6.405
39256W        W40120   4.918  15.598   6.524
39257W        W40121   4.760  18.002   5.215
39258W        W40122   4.279  18.058   7.007
39259W        W40123   4.364  17.674   3.603
39260W        W40124   6.904  17.289   4.664
39261W        W40125   4.492  15.939   6.527
39262W        W40126   7.125  15.394   3.634
39263W        W40127   5.135  16.974   4.529
39264W        W40128   6.123  16.218   6.565
39265W        W40129   5.942  15.883   6.143
39266W        W40130   4.458  16.331   6.204
39267W        W40131   6.618  18.027   6.026
39268W        W40132   6.389  14.927   6.966
39269W        W40133   4.149  15.084   6.778
39270W        W40134   4.511  15.988   5.822
39271W        W40135   4.955  15.710   3.575
39272W        W40136   3.670  17.486   6.443
39273W        W40137   5.348  16.316   5.758
39274W        W40138   5.054  15.210   3.683
39275W        W40139   4.569  16.533   5.060
39276W        W40140   3.824  18.114   6.207
39277W        W40141   6.747  16.348   4.276
39278W        W40142   6.883  15.041   6.779
39279W        W40143   6.420  17.259   4.884
39280W        W40144   3.771  16.213   6.998
39281W        W40145   7.017  15.065   4.037
39282W        W40146   6.476  17.154   4.373
39283W        W40147   5.379  15.996   4.309
39284W        W40148   6.426  15.057   3.772
39285W        W40149   6.430  15.617   6.150
39286W        W40150   3.751  16.190   5.460
39287W        W40151   4.434  17.014   5.191
39288W        W40152   6.181  15.721   4.827
39289W        W40153   5.166  15.377   5.554
39290W        W40154   7.260  17.108   6.099
39291W        W40155   7.083  15.220   5.805
39292W        W40156   3.747  18.015   5.412
39293W        W40157   3.846  17.212   4.698
39294W        W40158   4.134  14.918   7.293
39295W        W40159   5.187  17.525   7.161
39296W        W40160   7.140  16.541   5.104
39297W        W40161   6.492  16.832   3.962
39298W        W40162   5.688  18.198   6.118
39299W        W40163   6.552  16.860   7.194
39300W        W40164   5.090  14.710   4.398
39301W        W40165   5.931  15.484   5.207
39302W        W40166   3.688  17.176   5.676
39303W        W40167   4.820  15.082   4.130
39304W        W40168   4.948  16.467   7.073
39305W        W40169   5.756  15.469   4.708
39306W        W40170   6.031  16.944   5.983
39307W        W40171   4.144  17.668   6.302
39308W        W40172   4.712  17.689   6.995
39309W        W40173   4.627  15.523   3.931
39310W        W40174   6.135  15.517   4.312
39311W        W40175   6.057  17.550   6.580
39312W        W40176   4.937  16.348   5.367
39313W        W40177   4.559  17.941   6.075
39314W        W40178   7.044  17.983   3.626
39315W        W40179   3.953  16.692   6.848
39316W        W40180   6.109  16.933   5.476
39317W        W40181   4.660  16.790   4.613
39318W        W40182   4.901  17.448   6.092
39319W        W40183   5.315  14.919   5.314
39320W        W40184   3.463  16.995   4.408
39321W        W40185   5.473  15.900   3.803
39322W        W40186   4.106  16.777   4.867
39323W        W40187   5.092  15.108   6.399
39324W        W40188   6.897  14.889   3.567
39325W        W40189   6.996  16.681   6.962
39326W        W40190   5.594  17.945   7.071
39327W        W40191   7.213  16.992   6.591
39328W        W40192   6.648  17.656   7.131
39329W        W40193   4.556  18.218   5.641
39330W        W40194   7.267  16.935   4.743
39331W        W40195   5.836  16.016   5.069
39332W        W40196   5.485  14.543   5.016
39333W        W40197   4.663  17.631   4.875
39334W        W40198   5.067  15.525   6.037
39335W        W40199   4.863  14.975   5.538
39336W        W40200   3.816  17.789   4.025
39337W        W40201   5.503  16.936   4.949
39338W        W40202   4.634  17.653   6.496
39339W        W40203   3.706  16.522   4.498
39340W        W40204   3.746  15.332   5.681
39341W        W40205   5.578  17.048   5.467
39342W        W40206   3.506  14.811   4.417
39343W        W40207   6.509  16.123   6.257
39344W        W40208   6.245  15.544   3.769
39345W        W40209   6.921  17.207   5.696
39346W        W40210   5.504  17.554   5.393
39347W        W40211   4.791  17.946   4.483
39348W        W40212   6.005  14.767   3.626
39349W        W40213   4.122  17.974   5.802
39350W        W40214   5.772  15.553   6.967
39351W        W40215   4.077  15.437   7.129
39352W        W40216   3.482  15.788   4.808
39353W        W40217   4.991  16.072   3.949
39354W        W40218   6.155  15.981   7.057
39355W        W40219   4.832  16.395   5.851
39356W        W40220   6.234  14.742   5.202
39357W        W40221   5.268  18.024   5.388
39358W        W40222   6.461  17.560   6.216
39359W        W40223   6.330  17.497   5.340
39360W        W40224   6.275  16.771   5.014
39361W        W40225   5.346  15.115   4.117
39362W        W40226   7.369  14.762   4.743
39363W        W40227   4.689  16.214   3.540
39364W        W40228   6.955  15.439   4.892
39365W        W40229   5.772  16.747   3.780
39366W        W40230   6.700  16.917   6.629
39367W        W40231   6.247  17.797   3.725
39368W        W40232   4.925  15.241   6.895
39369W        W40233   4.890  16.001   6.177
39370W        W40234   6.838  17.411   6.545
39371W        W40235   5.956  15.156   6.722
39372W        W40236   3.710  15.892   6.537
39373W        W40237   5.656  16.279   6.335
39374W        W40238   3.927  17.152   5.193
39375W        W40239   4.110  16.329   5.811
39376W        W40240   6.448  16.638   6.279
39377W        W40241   6.076  17.996   6.843
39378W        W40242   6.105  15.693   6.590
39379W        W40243   6.488  17.810   4.942
39380W        W40244   5.365  17.535   6.337
39381W        W40245   4.825  17.751   5.669
39382W        W40246   6.724  17.100   6.151
39383W        W40247   5.568  17.146   7.222
39384W        W40248   4.190  17.088   5.629
39385W        W40249   6.771  16.852   4.887
39386W        W40250   6.223  17.769   5.811
39387W        W40251   4.381  17.507   5.866
39388W        W40252   5.273  15.637   6.911
39389W        W40253   5.232  17.737   4.321
39390W        W40254   5.068  17.002   7.144
39391W        W40255   4.848  17.405   4.458
39392W        W40256   4.446  15.787   3.393
39393W        W40257   3.680  18.231  10.731
39394W        W40258   4.040  17.113  10.206
39395W        W40259   6.848  16.715   7.985
39396W        W40260   7.203  17.845   9.995
39397W        W40261   4.614  17.929   7.436
39398W        W40262   5.207  15.854   8.450
39399W        W40263   4.421  16.019   9.050
39400W        W40264   5.455  16.670   8.018
39401W        W40265   5.129  17.863  10.156
39402W        W40266   3.654  15.265  10.337
39403W        W40267   4.342  14.612  10.153
39404W        W40268   6.244  14.967   9.004
39405W        W40269   5.902  15.682   7.428
39406W        W40270   6.276  15.496  10.568
39407W        W40271   3.754  14.921   9.951
39408W        W40272   3.784  17.736  10.789
39409W        W40273   5.193  17.245   7.619
39410W        W40274   3.584  15.608   9.380
39411W        W40275   4.895  15.921  10.471
39412W        W40276   7.077  15.537   9.079
39413W        W40277   6.819  16.614   9.801
39414W        W40278   5.365  15.901   8.965
39415W        W40279   5.936  17.364   9.215
39416W        W40280   4.153  16.593   9.505
39417W        W40281   3.489  16.099   9.244
39418W        W40282   4.823  16.348  10.196
39419W        W40283   6.990  15.955  10.730
39420W        W40284   4.551  17.357   8.949
39421W        W40285   5.687  17.258   9.998
39422W        W40286   4.907  15.847   9.255
39423W        W40287   5.201  16.625   9.010
39424W        W40288   5.946  17.417  10.658
39425W        W40289   5.449  16.645  10.751
39426W        W40290   5.337  16.499  10.256
39427W        W40291   3.502  15.607  10.718
39428W        W40292   6.418  17.546  10.481
39429W        W40293   3.898  14.774   8.473
39430W        W40294   4.827  17.276   9.378
39431W        W40295   7.022  17.038   8.894
39432W        W40296   6.688  15.307   9.311
39433W        W40297   6.719  15.276   7.215
39434W        W40298   7.351  15.980   9.795
39435W        W40299   5.500  18.015   9.371
39436W        W40300   7.057  17.498   7.904
39437W        W40301   3.930  18.046   8.056
39438W        W40302   4.412  18.062   8.424
39439W        W40303   4.236  14.875   9.722
39440W        W40304   6.871  16.093   9.906
39441W        W40305   6.275  16.303   8.556
39442W        W40306   6.275  15.998   7.577
39443W        W40307   5.571  17.153   9.485
39444W        W40308   5.467  15.353   8.911
39445W        W40309   5.967  17.560   9.692
39446W        W40310   6.773  16.346   8.383
39447W        W40311   5.643  14.832   8.163
39448W        W40312   4.247  17.656   8.163
39449W        W40313   3.563  15.150   8.582
39450W        W40314   6.164  15.840   8.904
39451W        W40315   4.002  17.437   9.086
39452W        W40316   5.051  17.737   7.620
39453W        W40317   6.634  15.803   7.236
39454W        W40318   3.854  17.484   9.587
39455W        W40319   4.649  17.257   9.871
39456W        W40320   4.888  16.647   8.606
39457W        W40321   4.663  15.020   9.473
39458W        W40322   7.190  14.719   9.161
39459W        W40323   4.560  16.786   7.060
39460W        W40324   3.980  15.352   7.617
39461W        W40325   4.177  17.412   8.605
39462W        W40326   4.896  17.158   8.624
39463W        W40327   6.762  17.882  10.295
39464W        W40328   5.570  15.681   8.057
39465W        W40329   6.873  18.048   8.907
39466W        W40330   6.620  15.930  10.356
39467W        W40331   7.330  17.468   8.734
39468W        W40332   5.853  16.767  10.124
39469W        W40333   3.548  16.246   8.326
39470W        W40334   4.622  16.821   9.582
39471W        W40335   5.943  16.023   8.273
39472W        W40336   5.811  16.523   8.385
39473W        W40337   3.998  15.700   9.807
39474W        W40338   4.138  15.733  10.338
39475W        W40339   3.905  14.669   8.971
39476W        W40340   5.787  15.092   9.229
39477W        W40341   5.499  15.147  10.518
39478W        W40342   5.745  15.311   7.744
39479W        W40343   7.179  17.723  10.551
39480W        W40344   5.861  14.742  10.426
39481W        W40345   6.858  17.288  10.683
39482W        W40346   6.459  15.197  10.206
39483W        W40347   6.294  15.078   8.475
39484W        W40348   6.565  16.295  10.776
39485W        W40349   4.322  17.824   8.884
39486W        W40350   5.217  15.392   7.766
39487W        W40351   4.509  14.917  10.538
39488W        W40352   6.607  15.481   8.183
39489W        W40353   6.939  15.884   8.225
39490W        W40354   4.786  18.118  10.463
39491W        W40355   4.425  14.591   7.932
39492W        W40356   6.941  15.085   8.906
39493W        W40357   7.127  17.487   7.383
39494W        W40358   3.801  16.540   9.120
39495W        W40359   5.969  15.162   7.279
39496W        W40360   7.158  17.465   9.209
39497W        W40361   6.991  14.697   9.698
39498W        W40362   5.746  15.876  10.305
39499W        W40363   5.461  17.185   8.067
39500W        W40364   6.108  16.567  10.942
39501W        W40365   5.814  14.600   9.087
39502W        W40366   4.087  15.611   9.256
39503W        W40367   3.934  16.669   9.957
39504W        W40368   5.959  17.929   8.739
39505W        W40369   6.936  15.725   9.546
39506W        W40370   5.600  18.076  10.204
39507W        W40371   6.921  16.607   7.473
39508W        W40372   5.335  16.338   8.608
39509W        W40373   7.108  14.635  10.210
39510W        W40374   5.423  16.817   9.861
39511W        W40375   5.737  15.637   9.259
39512W        W40376   6.437  15.994   8.132
39513W        W40377   6.725  15.775   7.755
39514W        W40378   6.681  17.657   8.210
39515W        W40379   6.446  17.088   9.040
39516W        W40380   6.143  16.387   7.955
39517W        W40381   5.692  16.613   8.892
39518W        W40382   6.637  16.261   8.944
39519W        W40383   3.874  15.255   9.595
39520W        W40384   6.729  16.430  10.286
39521W        W40385   7.156  17.938   9.450
39522W        W40386   5.036  17.593   8.892
39523W        W40387   6.283  18.097  10.036
39524W        W40388   5.974  15.330   9.728
39525W        W40389   5.319  18.203   9.793
39526W        W40390   6.860  15.028   8.377
39527W        W40391   6.649  16.227   9.455
39528W        W40392   3.454  15.465   9.860
39529W        W40393   6.500  15.398   8.827
39530W        W40394   6.763  15.575  10.019
39531W        W40395   5.731  17.125   8.816
39532W        W40396   5.190  17.865   8.479
39533W        W40397   3.987  14.869   7.803
39534W        W40398   5.410  14.753   9.472
39535W        W40399   4.107  18.070   7.500
39536W        W40400   5.020  16.398   8.162
39537W        W40401   5.427  17.010  10.358
39538W        W40402   5.226  14.831   8.474
39539W        W40403   6.618  14.734   8.743
39540W        W40404   6.337  18.139   9.033
39541W        W40405   5.955  17.870   9.250
39542W        W40406   5.121  16.877   9.444
39543W        W40407   6.907  17.529   9.692
39544W        W40408   4.308  14.973   8.254
39545W        W40409   5.254  17.561   9.361
39546W        W40410   4.544  15.229   7.253
39547W        W40411   5.346  15.794   9.585
39548W        W40412   6.140  14.763   9.468
39549W        W40413   3.643  16.464   9.602
39550W        W40414   5.355  16.290   7.634
39551W        W40415   4.588  14.716   7.437
39552W        W40416   5.681  15.689   8.569
39553W        W40417   6.103  14.881   9.985
39554W        W40418   4.949  16.867  10.138
39555W        W40419   5.808  16.401  10.509
39556W        W40420   6.277  16.608  10.456
39557W        W40421   5.500  14.802  10.919
39558W        W40422   4.586  15.447   9.182
39559W        W40423   4.046  15.218   8.733
39560W        W40424   3.937  17.884   8.543
39561W        W40425   5.505  17.552  10.396
39562W        W40426   4.726  17.069   7.797
39563W        W40427   6.150  16.386   9.064
39564W        W40428   6.183  15.979   9.393
39565W        W40429   5.568  16.640   9.391
39566W        W40430   6.045  16.942   7.327
39567W        W40431   5.739  14.961   8.658
39568W        W40432   7.117  15.396   8.098
39569W        W40433   3.830  17.954  10.325
39570W        W40434   4.164  17.071   9.715
39571W        W40435   3.436  17.979   7.963
39572W        W40436   5.465  15.282   9.577
39573W        W40437   4.603  17.575   7.812
39574W        W40438   6.892  17.990   7.866
39575W        W40439   5.796  16.052   7.774
39576W        W40440   5.354  15.327   8.394
39577W        W40441   5.451  15.310   7.304
39578W        W40442   5.879  16.909  10.616
39579W        W40443   6.267  15.174   7.951
39580W        W40444   3.577  14.580   7.720
39581W        W40445   5.172  17.261   9.790
39582W        W40446   4.755  16.862   9.066
39583W        W40447   4.736  17.337   7.356
39584W        W40448   3.740  17.532   8.183
39585W        W40449   4.374  16.202  10.410
39586W        W40450   5.013  14.918  10.788
39587W        W40451   5.571  14.965  10.015
39588W        W40452   4.743  14.694   8.364
39589W        W40453   5.938  14.841   7.733
39590W        W40454   3.817  14.762   9.469
39591W        W40455   3.681  15.589   8.873
39592W        W40456   6.687  14.793   9.273
39593W        W40457   3.842  15.219   8.151
39594W        W40458   6.509  15.040   9.706
39595W        W40459   7.000  16.103   7.452
39596W        W40460   4.196  15.085   9.227
39597W        W40461   5.504  15.506  10.032
39598W        W40462   3.530  15.120   7.697
39599W        W40463   4.433  16.786  10.064
39600W        W40464   5.712  16.155   9.275
39601W        W40465   5.436  18.094   7.568
39602W        W40466   3.610  16.914   7.194
39603W        W40467   4.545  17.225  10.376
39604W        W40468   4.021  16.161  10.017
39605W        W40469   5.021  16.504   9.763
39606W        W40470   6.593  14.691  10.121
39607W        W40471   7.214  16.406  10.117
39608W        W40472   7.115  16.283   7.934
39609W        W40473   5.953  16.872   8.019
39610W        W40474   6.449  18.143   7.179
39611W        W40475   5.827  16.128  10.935
39612W        W40476   4.168  17.083  10.707
39613W        W40477   7.291  15.100  10.791
39614W        W40478   6.621  15.793   9.145
39615W        W40479   5.288  17.963  10.626
39616W        W40480   5.069  14.488   7.555
39617W        W40481   6.838  17.103   7.569
39618W        W40482   4.579  15.423  10.392
39619W        W40483   5.029  17.363  10.261
39620W        W40484   6.926  15.096   9.998
39621W        W40485   6.561  18.323   7.648
39622W        W40486   6.446  16.736   9.440
39623W        W40487   4.613  15.068  10.012
39624W        W40488   5.387  16.124  10.631
39625W        W40489   4.528  17.221   8.254
39626W        W40490   6.408  16.723   8.255
39627W        W40491   4.127  15.256  10.096
39628W        W40492   5.353  17.377   8.538
39629W        W40493   7.053  15.952   8.782
39630W        W40494   5.339  14.667  10.445
39631W        W40495   6.390  17.395   9.454
39632W        W40496   6.718  17.735   9.269
39633W        W40497   5.569  17.598   7.491
39634W        W40498   3.704  17.280  10.555
39635W        W40499   4.374  15.387   9.663
39636W        W40500   4.361  14.814   8.778
39637W        W40501   6.199  15.428   9.260
39638W        W40502   5.099  16.737   7.624
39639W        W40503   6.924  16.626   9.273
39640W        W40504   4.154  17.563  10.460
39641W        W40505   6.771  18.228   8.347
39642W        W40506   4.859  14.974   8.827
39643W        W40507   4.313  16.536   9.025
39644W        W40508   4.996  18.119   9.394
39645W        W40509   6.960  18.223  10.634
39646W        W40510   6.021  16.456   9.576
39647W        W40511   3.959  15.883   7.375
39648W        W40512   7.077  17.832   8.493
39649W        W40513   6.766  15.257   7.735
39650W        W40514   4.862  14.661  10.222
39651W        W40515   6.809  17.517   8.813
39652W        W40516   6.587  15.879   8.608
39653W        W40517   4.993  15.534   8.839
39654W        W40518   5.280  16.001  10.119
39655W        W40519   6.175  17.175  10.196
39656W        W40520   4.988  15.584  10.096
39657W        W40521   4.779  18.041   8.807
39658W        W40522   4.232  18.051  10.636
39659W        W40523   4.270  17.573   7.347
39660W        W40524   7.011  17.291   8.386
39661W        W40525   4.537  15.847  10.053
39662W        W40526   7.091  15.593   7.391
39663W        W40527   5.025  16.920   8.177
39664W        W40528   5.948  16.269  10.052
39665W        W40529   5.835  15.848   9.759
39666W        W40530   4.478  16.327   9.813
39667W        W40531   6.753  18.016   9.814
39668W        W40532   6.358  14.868  10.612
39669W        W40533   3.959  14.838  10.410
39670W        W40534   4.458  15.876   9.540
39671W        W40535   4.961  15.553   7.312
39672W        W40536   3.723  17.523  10.091
39673W        W40537   5.210  16.247   9.352
39674W        W40538   5.011  15.026   7.383
39675W        W40539   4.471  16.340   8.589
39676W        W40540   3.925  17.975   9.816
39677W        W40541   6.625  16.306   7.766
39678W        W40542   6.866  14.987  10.499
39679W        W40543   6.516  17.186   8.536
39680W        W40544   3.812  16.160  10.518
39681W        W40545   6.921  14.801   7.906
39682W        W40546   6.633  17.174   8.030
39683W        W40547   5.483  16.181   8.149
39684W        W40548   6.415  14.962   7.493
39685W        W40549   6.433  15.622   9.653
39686W        W40550   3.901  16.075   8.916
39687W        W40551   4.412  16.920   8.680
39688W        W40552   6.195  15.615   8.439
39689W        W40553   5.089  15.191   9.242
39690W        W40554   7.071  17.063   9.847
39691W        W40555   7.140  15.142   9.485
39692W        W40556   3.639  17.866   8.960
39693W        W40557   4.040  17.020   8.316
39694W        W40558   4.101  14.862  10.895
39695W        W40559   5.090  17.488  10.744
39696W        W40560   7.087  16.464   8.827
39697W        W40561   6.406  16.780   7.703
39698W        W40562   5.853  18.071   9.750
39699W        W40563   6.367  17.073  10.681
39700W        W40564   5.246  14.513   8.053
39701W        W40565   5.976  15.366   8.818
39702W        W40566   3.788  17.006   9.348
39703W        W40567   4.886  14.850   7.875
39704W        W40568   4.986  16.449  10.673
39705W        W40569   5.855  15.290   8.261
39706W        W40570   6.051  17.026   9.696
39707W        W40571   4.214  17.547   9.949
39708W        W40572   4.613  17.696  10.692
39709W        W40573   4.438  15.099   7.745
39710W        W40574   6.090  15.657   7.935
39711W        W40575   5.977  17.689  10.192
39712W        W40576   4.912  16.201   8.882
39713W        W40577   4.446  17.922   9.666
39714W        W40578   6.987  17.971   7.363
39715W        W40579   4.060  16.632  10.442
39716W        W40580   5.999  16.861   9.213
39717W        W40581   4.547  16.710   8.215
39718W        W40582   4.911  17.703   9.718
39719W        W40583   5.359  14.842   8.971
39720W        W40584   3.545  17.074   7.974
39721W        W40585   5.408  15.796   7.481
39722W        W40586   3.948  16.533   8.603
39723W        W40587   5.081  15.006   9.803
39724W        W40588   6.933  14.852   7.392
39725W        W40589   6.792  16.758  10.707
39726W        W40590   5.834  17.934  10.629
39727W        W40591   7.164  16.898  10.334
39728W        W40592   6.729  17.792  10.811
39729W        W40593   4.489  18.206   9.223
39730W        W40594   7.093  16.783   8.435
39731W        W40595   5.793  16.145   8.753
39732W        W40596   5.575  14.476   8.597
39733W        W40597   4.678  17.632   8.513
39734W        W40598   4.887  15.480   9.616
39735W        W40599   4.942  14.667   9.243
39736W        W40600   3.784  17.707   7.683
39737W        W40601   5.374  16.852   8.546
39738W        W40602   4.640  17.707  10.169
39739W        W40603   3.787  16.628   8.092
39740W        W40604   3.690  15.135   9.111
39741W        W40605   5.252  17.145   9.023
39742W        W40606   3.492  14.827   8.167
39743W        W40607   6.376  16.111   9.865
39744W        W40608   6.351  15.474   7.529
39745W        W40609   6.834  17.115   9.382
39746W        W40610   5.561  17.645   8.954
39747W        W40611   4.861  17.942   8.105
39748W        W40612   6.068  14.642   7.291
39749W        W40613   4.062  17.888   9.318
39750W        W40614   5.810  15.630  10.752
39751W        W40615   4.105  15.297  10.613
39752W        W40616   3.657  15.693   8.364
39753W        W40617   5.121  15.905   7.906
39754W        W40618   6.166  16.026  10.563
39755W        W40619   4.704  16.361   9.343
39756W        W40620   6.109  14.595   8.648
39757W        W40621   5.270  18.099   8.933
39758W        W40622   6.444  17.589   9.958
39759W        W40623   6.316  17.600   8.979
39760W        W40624   6.140  16.797   8.706
39761W        W40625   5.402  14.907   7.697
39762W        W40626   7.196  14.684   8.635
39763W        W40627   4.928  16.061   7.427
39764W        W40628   6.936  15.497   8.581
39765W        W40629   5.785  16.579   7.619
39766W        W40630   6.648  16.943  10.268
39767W        W40631   6.638  17.592   7.640
39768W        W40632   5.026  15.137  10.329
39769W        W40633   4.912  16.011   9.750
39770W        W40634   6.882  17.400  10.189
39771W        W40635   5.921  15.286  10.257
39772W        W40636   3.653  15.774  10.208
39773W        W40637   5.519  16.291   9.769
39774W        W40638   3.917  16.984   8.845
39775W        W40639   3.989  16.099   9.444
39776W        W40640   6.330  16.643   9.950
39777W        W40641   6.360  18.077  10.540
39778W        W40642   6.203  15.695  10.107
39779W        W40643   6.489  17.895   8.610
39780W        W40644   5.479  17.700   9.818
39781W        W40645   4.703  17.750   9.237
39782W        W40646   6.557  17.098   9.812
39783W        W40647   5.490  17.135  10.874
39784W        W40648   4.286  17.011   9.214
39785W        W40649   6.648  16.720   8.726
39786W        W40650   6.339  17.902   9.559
39787W        W40651   4.356  17.462   9.457
39788W        W40652   5.335  15.629  10.509
39789W        W40653   5.391  17.720   8.002
39790W        W40654   5.023  16.974  10.668
39791W        W40655   4.990  17.432   8.137
39792W        W40656   4.474  15.794   7.266
39793W        W40657   3.703  18.250  14.405
39794W        W40658   4.154  17.123  13.920
39795W        W40659   6.827  16.771  11.725
39796W        W40660   6.931  18.015  13.740
39797W        W40661   4.538  17.875  11.186
39798W        W40662   4.962  15.944  11.818
39799W        W40663   4.280  16.250  12.898
39800W        W40664   5.425  16.528  11.625
39801W        W40665   5.137  17.827  13.979
39802W        W40666   3.644  15.243  13.971
39803W        W40667   4.436  14.591  13.847
39804W        W40668   6.170  14.919  12.575
39805W        W40669   5.878  15.787  11.307
39806W        W40670   6.385  15.445  14.191
39807W        W40671   3.801  14.919  13.583
39808W        W40672   3.876  17.780  14.502
39809W        W40673   5.081  17.223  11.190
39810W        W40674   3.950  15.786  12.998
39811W        W40675   4.929  16.011  14.103
39812W        W40676   7.048  15.381  12.700
39813W        W40677   6.869  16.562  13.482
39814W        W40678   5.406  15.734  12.708
39815W        W40679   5.718  17.508  12.966
39816W        W40680   4.231  16.719  13.253
39817W        W40681   3.451  16.246  12.968
39818W        W40682   4.828  16.351  13.732
39819W        W40683   7.052  16.016  14.110
39820W        W40684   4.395  17.510  12.648
39821W        W40685   5.689  17.221  13.607
39822W        W40686   4.938  15.748  12.925
39823W        W40687   5.104  16.563  12.505
39824W        W40688   5.968  17.511  14.434
39825W        W40689   5.386  16.649  14.441
39826W        W40690   5.313  16.433  13.925
39827W        W40691   3.573  15.613  14.367
39828W        W40692   6.386  17.337  14.156
39829W        W40693   4.029  14.696  12.123
39830W        W40694   4.660  17.165  13.080
39831W        W40695   6.807  17.075  12.587
39832W        W40696   6.661  15.086  12.874
39833W        W40697   6.601  15.251  10.887
39834W        W40698   7.346  15.994  13.277
39835W        W40699   5.193  17.820  13.115
39836W        W40700   6.865  17.411  11.502
39837W        W40701   3.813  18.066  11.660
39838W        W40702   4.218  18.012  12.001
39839W        W40703   4.454  14.878  13.361
39840W        W40704   6.933  16.018  13.599
39841W        W40705   6.055  16.234  12.404
39842W        W40706   6.276  16.134  11.197
39843W        W40707   5.550  17.045  13.129
39844W        W40708   5.417  15.336  12.386
39845W        W40709   5.855  17.700  13.440
39846W        W40710   6.549  16.268  12.208
39847W        W40711   5.807  14.950  11.753
39848W        W40712   4.155  17.702  11.504
39849W        W40713   3.724  15.094  12.271
39850W        W40714   6.173  15.770  12.639
39851W        W40715   3.893  17.520  12.758
39852W        W40716   5.038  17.749  11.189
39853W        W40717   6.532  15.785  10.878
39854W        W40718   3.731  17.567  13.274
39855W        W40719   4.551  17.161  13.584
39856W        W40720   5.080  16.436  11.996
39857W        W40721   4.991  14.948  13.321
39858W        W40722   7.191  14.711  12.778
39859W        W40723   4.570  16.736  10.554
39860W        W40724   4.031  15.319  11.139
39861W        W40725   4.039  17.479  12.253
39862W        W40726   4.995  16.937  12.154
39863W        W40727   6.534  17.828  14.013
39864W        W40728   5.558  15.453  11.513
39865W        W40729   6.840  18.247  12.517
39866W        W40730   6.583  15.871  13.961
39867W        W40731   7.156  17.393  12.380
39868W        W40732   5.882  16.753  13.728
39869W        W40733   3.330  16.330  12.460
39870W        W40734   4.750  16.699  13.352
39871W        W40735   5.823  15.847  11.814
39872W        W40736   5.635  16.275  12.037
39873W        W40737   4.070  15.802  13.504
39874W        W40738   4.113  15.806  14.037
39875W        W40739   4.039  14.658  12.623
39876W        W40740   5.693  15.087  12.805
39877W        W40741   5.560  15.154  14.119
39878W        W40742   5.827  15.081  11.248
39879W        W40743   7.000  17.921  14.249
39880W        W40744   5.948  14.723  14.057
39881W        W40745   6.883  17.418  14.213
39882W        W40746   6.544  15.205  13.774
39883W        W40747   6.177  15.121  12.089
39884W        W40748   6.242  16.394  14.420
39885W        W40749   4.122  17.919  12.510
39886W        W40750   5.110  15.344  11.720
39887W        W40751   4.534  14.953  14.201
39888W        W40752   6.542  15.375  11.837
39889W        W40753   6.718  15.854  11.926
39890W        W40754   4.755  18.173  14.132
39891W        W40755   4.487  14.604  11.532
39892W        W40756   6.884  14.954  12.438
39893W        W40757   7.124  17.577  11.062
39894W        W40758   3.927  16.628  12.849
39895W        W40759   5.947  15.138  10.756
39896W        W40760   7.059  17.726  12.746
39897W        W40761   7.157  14.657  13.371
39898W        W40762   5.717  15.989  14.017
39899W        W40763   5.527  17.044  11.686
39900W        W40764   5.856  16.647  14.676
39901W        W40765   5.750  14.577  12.698
39902W        W40766   4.288  15.474  12.758
39903W        W40767   3.879  16.703  13.632
39904W        W40768   5.896  17.908  12.594
39905W        W40769   6.988  15.615  13.246
39906W        W40770   5.648  17.981  13.841
39907W        W40771   6.525  16.852  11.129
39908W        W40772   5.279  16.088  12.348
39909W        W40773   7.179  14.630  13.895
39910W        W40774   5.409  16.755  13.525
39911W        W40775   5.789  15.579  12.995
39912W        W40776   6.295  15.850  11.629
39913W        W40777   6.604  15.577  11.343
39914W        W40778   6.673  17.689  11.893
39915W        W40779   6.403  17.009  12.902
39916W        W40780   6.134  16.257  11.898
39917W        W40781   5.607  16.461  12.558
39918W        W40782   6.427  16.185  12.754
39919W        W40783   4.122  15.297  13.223
39920W        W40784   6.654  16.395  13.935
39921W        W40785   7.121  18.159  13.004
39922W        W40786   4.940  17.480  12.492
39923W        W40787   6.170  18.145  13.822
39924W        W40788   6.043  15.376  13.416
39925W        W40789   5.330  18.167  13.466
39926W        W40790   6.893  14.997  11.920
39927W        W40791   6.774  16.089  13.117
39928W        W40792   3.664  15.410  13.463
39929W        W40793   6.480  15.337  12.453
39930W        W40794   6.953  15.547  13.780
39931W        W40795   5.748  17.417  12.455
39932W        W40796   5.126  17.802  12.146
39933W        W40797   4.039  14.875  11.405
39934W        W40798   5.372  14.752  13.028
39935W        W40799   4.047  18.038  11.114
39936W        W40800   4.989  16.320  11.452
39937W        W40801   5.447  16.936  13.996
39938W        W40802   5.349  14.959  11.978
39939W        W40803   6.487  14.726  12.227
39940W        W40804   6.299  18.259  12.667
39941W        W40805   5.649  18.007  13.035
39942W        W40806   5.139  16.723  13.011
39943W        W40807   6.868  17.789  13.289
39944W        W40808   4.484  14.908  11.964
39945W        W40809   5.177  17.340  12.932
39946W        W40810   4.512  15.264  10.930
39947W        W40811   5.375  15.859  13.211
39948W        W40812   6.236  14.792  13.060
39949W        W40813   3.580  16.663  13.228
39950W        W40814   5.401  16.300  11.140
39951W        W40815   4.576  14.773  11.055
39952W        W40816   5.360  15.702  12.008
39953W        W40817   6.191  14.876  13.570
39954W        W40818   4.923  16.849  13.824
39955W        W40819   5.782  16.502  14.165
39956W        W40820   6.265  16.765  14.071
39957W        W40821   5.560  14.832  14.531
39958W        W40822   4.672  15.304  13.096
39959W        W40823   4.220  15.126  12.379
39960W        W40824   3.737  17.983  12.170
39961W        W40825   5.557  17.498  14.048
39962W        W40826   4.662  16.903  11.302
39963W        W40827   6.055  16.557  12.821
39964W        W40828   6.238  15.874  13.130
39965W        W40829   5.614  16.525  13.099
39966W        W40830   6.050  17.084  11.089
39967W        W40831   5.741  14.934  12.299
39968W        W40832   7.015  15.483  11.663
39969W        W40833   3.870  17.938  13.999
39970W        W40834   4.019  17.160  13.421
39971W        W40835   3.314  17.927  11.559
39972W        W40836   5.530  15.219  13.285
39973W        W40837   4.652  17.415  11.414
39974W        W40838   6.624  17.857  11.324
39975W        W40839   5.837  16.270  11.465
39976W        W40840   4.918  15.152  12.150
39977W        W40841   5.404  15.295  11.015
39978W        W40842   5.907  17.127  14.095
39979W        W40843   6.410  14.867  11.716
39980W        W40844   3.648  14.561  11.309
39981W        W40845   5.081  17.104  13.386
39982W        W40846   4.894  17.006  12.653
39983W        W40847   4.640  17.232  10.900
39984W        W40848   3.630  17.611  11.826
39985W        W40849   4.464  16.316  14.128
39986W        W40850   5.060  14.836  14.405
39987W        W40851   5.679  14.901  13.658
39988W        W40852   4.939  14.631  12.138
39989W        W40853   6.029  14.621  11.448
39990W        W40854   3.993  14.755  13.147
39991W        W40855   3.787  15.561  12.528
39992W        W40856   6.721  14.580  12.960
39993W        W40857   4.034  15.133  11.847
39994W        W40858   6.666  14.905  13.347
39995W        W40859   6.791  16.056  11.228
39996W        W40860   4.359  14.975  12.867
39997W        W40861   5.610  15.511  13.733
39998W        W40862   3.569  15.099  11.359
39999W        W40863   4.402  16.674  13.741
40000W        W40864   5.803  16.083  12.873
40001W        W40865   5.595  18.132  11.056
40002W        W40866   3.702  16.804  10.788
40003W        W40867   4.642  17.296  14.086
40004W        W40868   4.080  16.249  13.776
40005W        W40869   5.194  16.328  13.367
40006W        W40870   6.653  14.698  13.807
40007W        W40871   7.313  16.339  13.645
40008W        W40872   7.002  16.305  11.951
40009W        W40873   5.877  16.692  11.822
40010W        W40874   6.569  18.259  10.980
40011W        W40875   5.812  16.130  14.549
40012W        W40876   4.244  17.186  14.443
40013W        W40877   7.322  15.160  14.449
40014W        W40878   6.619  15.618  12.901
40015W        W40879   5.142  18.059  14.456
40016W        W40880   5.026  14.615  11.258
40017W        W40881   6.528  17.381  11.082
40018W        W40882   4.494  15.465  14.040
40019W        W40883   5.103  17.325  13.867
40020W        W40884   7.036  15.064  13.654
40021W        W40885   6.263  18.380  11.383
40022W        W40886   6.515  16.550  13.099
40023W        W40887   4.705  15.115  13.735
40024W        W40888   5.347  16.136  14.352
40025W        W40889   4.352  17.402  11.865
40026W        W40890   6.387  16.723  12.001
40027W        W40891   4.097  15.325  13.750
40028W        W40892   5.333  17.311  12.160
40029W        W40893   7.109  15.886  12.797
40030W        W40894   5.429  14.663  14.053
40031W        W40895   6.167  17.363  13.206
40032W        W40896   6.614  17.922  12.861
40033W        W40897   5.543  17.634  10.944
40034W        W40898   3.785  17.284  14.250
40035W        W40899   4.510  15.521  13.516
40036W        W40900   4.525  14.728  12.445
40037W        W40901   6.204  15.308  12.920
40038W        W40902   5.128  16.724  11.139
40039W        W40903   6.921  16.885  13.055
40040W        W40904   4.233  17.610  14.155
40041W        W40905   6.815  18.237  11.967
40042W        W40906   4.733  15.204  12.606
40043W        W40907   4.560  16.689  12.861
40044W        W40908   4.872  18.229  13.133
40045W        W40909   6.610  18.274  14.303
40046W        W40910   6.060  16.343  13.283
40047W        W40911   3.974  15.757  10.828
40048W        W40912   7.013  17.857  12.232
40049W        W40913   6.761  15.106  11.420
40050W        W40914   4.944  14.712  13.907
40051W        W40915   6.662  17.546  12.454
40052W        W40916   6.654  15.827  12.443
40053W        W40917   4.993  15.633  12.405
40054W        W40918   5.295  15.952  13.719
40055W        W40919   6.209  17.179  13.690
40056W        W40920   4.933  15.592  13.809
40057W        W40921   4.878  17.995  12.572
40058W        W40922   4.277  18.101  14.334
40059W        W40923   4.209  17.533  10.993
40060W        W40924   6.761  17.193  12.058
40061W        W40925   4.526  15.937  13.793
40062W        W40926   7.027  15.485  11.044
40063W        W40927   5.048  16.888  11.640
40064W        W40928   6.135  16.270  13.879
40065W        W40929   5.832  15.870  13.428
40066W        W40930   4.429  16.259  13.403
40067W        W40931   6.515  18.190  13.347
40068W        W40932   6.410  14.899  14.216
40069W        W40933   4.020  14.883  14.060
40070W        W40934   4.458  15.820  13.114
40071W        W40935   4.955  15.496  10.815
40072W        W40936   3.727  17.441  13.775
40073W        W40937   5.264  16.213  12.857
40074W        W40938   4.946  15.152  11.235
40075W        W40939   4.604  16.663  12.342
40076W        W40940   3.845  18.058  13.501
40077W        W40941   6.579  16.297  11.653
40078W        W40942   6.914  15.027  14.149
40079W        W40943   6.328  17.130  12.386
40080W        W40944   3.752  16.170  14.175
40081W        W40945   6.787  14.593  11.443
40082W        W40946   6.437  17.092  11.592
40083W        W40947   5.407  15.980  11.546
40084W        W40948   6.326  14.964  11.201
40085W        W40949   6.527  15.635  13.480
40086W        W40950   3.821  16.140  12.640
40087W        W40951   4.560  17.190  12.301
40088W        W40952   6.219  15.680  12.124
40089W        W40953   5.184  15.252  12.874
40090W        W40954   7.076  17.307  13.337
40091W        W40955   7.145  15.114  13.136
40092W        W40956   3.599  17.956  12.660
40093W        W40957   4.135  16.953  12.167
40094W        W40958   4.116  14.944  14.589
40095W        W40959   5.192  17.535  14.407
40096W        W40960   7.211  16.765  12.641
40097W        W40961   6.220  16.612  11.458
40098W        W40962   5.876  18.214  13.420
40099W        W40963   6.187  17.022  14.524
40100W        W40964   5.265  14.510  11.724
40101W        W40965   5.938  15.373  12.471
40102W        W40966   3.701  17.110  13.004
40103W        W40967   4.906  14.875  11.681
40104W        W40968   4.932  16.529  14.228
40105W        W40969   5.748  15.382  12.000
40106W        W40970   6.028  16.867  13.248
40107W        W40971   4.174  17.637  13.637
40108W        W40972   4.713  17.730  14.375
40109W        W40973   4.482  15.122  11.458
40110W        W40974   6.087  15.371  11.599
40111W        W40975   6.039  17.639  13.925
40112W        W40976   4.810  16.128  12.561
40113W        W40977   4.516  17.917  13.364
40114W        W40978   7.047  18.085  11.126
40115W        W40979   4.024  16.651  14.122
40116W        W40980   5.920  17.054  12.767
40117W        W40981   4.576  16.933  11.847
40118W        W40982   4.870  17.556  13.440
40119W        W40983   5.251  14.873  12.501
40120W        W40984   3.663  17.139  12.016
40121W        W40985   5.431  15.800  11.038
40122W        W40986   3.793  16.581  12.354
40123W        W40987   5.220  15.141  13.746
40124W        W40988   6.865  14.829  10.991
40125W        W40989   7.107  16.679  13.952
40126W        W40990   5.631  17.917  14.370
40127W        W40991   7.166  17.170  13.818
40128W        W40992   6.549  17.752  14.520
40129W        W40993   4.458  18.070  12.873
40130W        W40994   6.873  16.706  12.238
40131W        W40995   5.744  15.831  12.332
40132W        W40996   5.511  14.493  12.200
40133W        W40997   4.574  17.728  12.225
40134W        W40998   5.084  15.460  13.349
40135W        W40999   4.875  14.754  12.845
40136W        W41000   3.681  17.709  11.291
40137W        W41001   5.472  16.759  12.140
40138W        W41002   4.643  17.748  13.851
40139W        W41003   3.398  16.298  11.944
40140W        W41004   3.862  15.121  12.789
40141W        W41005   5.419  16.985  12.611
40142W        W41006   3.623  14.792  11.801
40143W        W41007   6.460  16.152  13.514
40144W        W41008   6.176  15.453  11.087
40145W        W41009   6.707  17.413  12.972
40146W        W41010   5.371  17.750  12.631
40147W        W41011   4.622  17.831  11.708
40148W        W41012   5.988  14.674  10.942
40149W        W41013   3.989  17.949  13.021
40150W        W41014   5.781  15.579  14.330
40151W        W41015   4.041  15.361  14.275
40152W        W41016   3.548  15.327  11.843
40153W        W41017   5.042  15.661  11.331
40154W        W41018   6.181  15.907  14.286
40155W        W41019   4.793  16.272  13.048
40156W        W41020   6.035  14.581  12.041
40157W        W41021   5.273  18.245  12.813
40158W        W41022   6.366  17.729  13.520
40159W        W41023   6.222  17.517  12.727
40160W        W41024   5.975  16.745  12.334
40161W        W41025   5.376  14.950  11.445
40162W        W41026   7.231  14.617  12.228
40163W        W41027   4.974  16.028  10.973
40164W        W41028   6.932  15.438  12.195
40165W        W41029   5.685  16.731  11.221
40166W        W41030   6.684  16.983  13.869
40167W        W41031   6.226  17.791  10.946
40168W        W41032   4.945  15.281  14.210
40169W        W41033   4.869  15.925  13.416
40170W        W41034   6.769  17.483  13.712
40171W        W41035   6.023  15.220  13.912
40172W        W41036   3.659  15.752  13.847
40173W        W41037   5.668  16.309  13.600
40174W        W41038   3.766  17.080  12.509
40175W        W41039   3.917  16.272  13.271
40176W        W41040   6.369  16.665  13.580
40177W        W41041   6.144  18.006  14.314
40178W        W41042   6.119  15.716  13.813
40179W        W41043   6.462  17.981  12.274
40180W        W41044   5.369  17.631  13.556
40181W        W41045   4.752  17.661  12.955
40182W        W41046   6.595  17.097  13.375
40183W        W41047   5.552  17.146  14.470
40184W        W41048   4.195  17.077  12.847
40185W        W41049   6.469  16.653  12.541
40186W        W41050   6.150  17.921  13.069
40187W        W41051   4.267  17.518  13.143
40188W        W41052   5.314  15.649  14.150
40189W        W41053   5.236  17.475  11.613
40190W        W41054   5.054  17.037  14.302
40191W        W41055   4.858  17.392  11.934
40192W        W41056   4.489  15.774  10.753
40193W        W41057   3.657  18.197  18.028
40194W        W41058   4.198  17.165  17.503
40195W        W41059   6.978  16.795  15.758
40196W        W41060   7.135  17.895  17.260
40197W        W41061   4.675  17.997  14.824
40198W        W41062   4.983  15.928  15.837
40199W        W41063   4.620  15.796  16.259
40200W        W41064   5.614  16.392  15.458
40201W        W41065   5.203  17.912  17.670
40202W        W41066   3.628  15.458  17.649
40203W        W41067   4.281  14.510  17.521
40204W        W41068   6.241  14.952  16.358
40205W        W41069   5.922  15.729  15.072
40206W        W41070   6.261  15.430  17.956
40207W        W41071   3.716  15.098  17.260
40208W        W41072   3.849  17.728  18.110
40209W        W41073   5.185  17.248  14.832
40210W        W41074   3.766  15.748  16.662
40211W        W41075   4.795  15.925  17.842
40212W        W41076   7.012  15.601  16.449
40213W        W41077   6.953  16.710  17.183
40214W        W41078   5.357  15.885  16.253
40215W        W41079   5.878  17.472  16.543
40216W        W41080   4.305  16.705  16.731
40217W        W41081   3.390  16.143  16.570
40218W        W41082   4.700  16.332  17.490
40219W        W41083   6.933  16.228  17.938
40220W        W41084   4.582  17.585  16.247
40221W        W41085   5.631  17.279  17.230
40222W        W41086   5.021  15.753  16.601
40223W        W41087   5.301  16.593  16.283
40224W        W41088   5.973  17.492  17.980
40225W        W41089   5.405  16.652  18.023
40226W        W41090   5.198  16.501  17.551
40227W        W41091   3.458  15.579  18.141
40228W        W41092   6.452  17.515  17.726
40229W        W41093   3.920  14.776  15.793
40230W        W41094   4.929  17.318  16.550
40231W        W41095   6.882  17.129  16.192
40232W        W41096   6.392  15.286  16.699
40233W        W41097   6.612  15.215  14.576
40234W        W41098   7.193  16.244  17.129
40235W        W41099   5.401  17.981  16.808
40236W        W41100   7.046  17.486  15.236
40237W        W41101   4.039  18.194  15.335
40238W        W41102   4.472  18.119  15.674
40239W        W41103   4.209  14.935  17.171
40240W        W41104   6.791  15.971  17.325
40241W        W41105   6.388  16.230  15.897
40242W        W41106   6.273  16.018  14.824
40243W        W41107   5.668  17.063  16.769
40244W        W41108   5.533  15.410  16.138
40245W        W41109   5.807  17.712  17.006
40246W        W41110   6.888  16.325  15.949
40247W        W41111   5.888  14.941  15.576
40248W        W41112   4.385  17.822  15.249
40249W        W41113   3.598  15.161  15.982
40250W        W41114   6.228  15.973  16.334
40251W        W41115   4.093  17.535  16.383
40252W        W41116   5.131  17.778  14.876
40253W        W41117   6.614  15.755  14.549
40254W        W41118   3.932  17.558  16.880
40255W        W41119   4.646  17.343  17.264
40256W        W41120   4.972  16.541  15.874
40257W        W41121   4.708  14.954  16.964
40258W        W41122   7.204  14.720  16.505
40259W        W41123   4.527  16.827  14.215
40260W        W41124   3.923  15.386  14.783
40261W        W41125   4.223  17.523  15.850
40262W        W41126   5.106  17.034  15.837
40263W        W41127   6.697  17.916  17.539
40264W        W41128   5.590  15.364  15.341
40265W        W41129   6.810  18.153  16.150
40266W        W41130   6.548  15.951  17.780
40267W        W41131   7.319  17.456  15.993
40268W        W41132   5.916  16.857  17.200
40269W        W41133   3.493  16.287  15.701
40270W        W41134   4.717  16.986  16.887
40271W        W41135   5.888  15.949  15.556
40272W        W41136   5.895  16.354  15.885
40273W        W41137   4.112  15.857  17.096
40274W        W41138   4.236  15.865  17.668
40275W        W41139   4.014  14.773  16.300
40276W        W41140   5.789  15.091  16.605
40277W        W41141   5.429  15.138  17.749
40278W        W41142   5.757  15.291  14.849
40279W        W41143   7.186  17.863  17.768
40280W        W41144   5.814  14.750  17.749
40281W        W41145   6.869  17.256  17.964
40282W        W41146   6.440  15.195  17.499
40283W        W41147   6.273  15.157  15.896
40284W        W41148   6.358  16.392  18.038
40285W        W41149   4.239  17.969  16.132
40286W        W41150   5.198  15.478  15.038
40287W        W41151   4.493  14.856  17.866
40288W        W41152   6.538  15.409  15.539
40289W        W41153   6.781  15.863  15.649
40290W        W41154   4.715  18.231  17.850
40291W        W41155   4.477  14.636  15.182
40292W        W41156   6.927  15.087  16.279
40293W        W41157   7.034  17.590  14.696
40294W        W41158   3.944  16.621  16.378
40295W        W41159   5.988  15.114  14.413
40296W        W41160   7.117  17.497  16.481
40297W        W41161   7.048  14.764  17.000
40298W        W41162   5.604  16.074  17.555
40299W        W41163   5.480  17.235  15.256
40300W        W41164   5.921  16.754  18.034
40301W        W41165   5.794  14.578  16.479
40302W        W41166   4.221  15.537  16.474
40303W        W41167   4.427  16.745  17.244
40304W        W41168   5.895  17.946  16.052
40305W        W41169   7.061  15.748  16.955
40306W        W41170   5.694  17.967  17.459
40307W        W41171   5.397  16.244  15.900
40308W        W41172   7.136  14.721  17.510
40309W        W41173   5.418  16.789  17.168
40310W        W41174   5.643  15.605  16.601
40311W        W41175   6.352  15.906  15.359
40312W        W41176   6.505  15.541  15.023
40313W        W41177   6.677  17.734  15.544
40314W        W41178   6.232  17.060  16.353
40315W        W41179   6.152  16.427  15.449
40316W        W41180   5.704  16.277  16.340
40317W        W41181   6.639  16.311  16.411
40318W        W41182   4.007  15.340  16.903
40319W        W41183   6.658  16.425  17.535
40320W        W41184   7.136  17.986  16.758
40321W        W41185   5.043  17.480  16.066
40322W        W41186   6.206  18.022  17.285
40323W        W41187   6.063  15.305  17.092
40324W        W41188   5.293  18.237  17.256
40325W        W41189   6.896  15.041  15.666
40326W        W41190   6.722  16.313  16.928
40327W        W41191   3.655  15.591  17.152
40328W        W41192   6.546  15.418  16.239
40329W        W41193   6.790  15.538  17.617
40330W        W41194   5.854  17.268  16.072
40331W        W41195   5.220  17.875  15.779
40332W        W41196   3.976  14.963  15.110
40333W        W41197   5.351  14.813  16.817
40334W        W41198   4.175  18.133  14.840
40335W        W41199   5.124  16.257  15.444
40336W        W41200   5.372  17.008  17.613
40337W        W41201   5.426  15.070  15.757
40338W        W41202   6.609  14.763  16.043
40339W        W41203   6.322  18.119  16.366
40340W        W41204   5.862  17.996  16.567
40341W        W41205   5.189  16.860  16.711
40342W        W41206   6.918  17.544  16.948
40343W        W41207   4.333  14.977  15.543
40344W        W41208   5.385  17.480  16.733
40345W        W41209   4.480  15.348  14.540
40346W        W41210   5.355  15.787  17.000
40347W        W41211   6.167  14.732  16.821
40348W        W41212   3.893  16.758  17.059
40349W        W41213   5.384  16.299  14.849
40350W        W41214   4.586  14.769  14.672
40351W        W41215   5.444  15.730  15.732
40352W        W41216   6.121  14.841  17.334
40353W        W41217   4.881  16.915  17.478
40354W        W41218   5.700  16.583  17.593
40355W        W41219   6.208  16.668  17.608
40356W        W41220   5.449  14.806  18.160
40357W        W41221   4.704  15.349  16.553
40358W        W41222   4.130  15.203  16.025
40359W        W41223   3.894  17.934  15.756
40360W        W41224   5.548  17.512  17.683
40361W        W41225   4.877  17.020  15.172
40362W        W41226   6.174  16.504  16.295
40363W        W41227   6.230  16.277  16.748
40364W        W41228   5.630  16.560  16.764
40365W        W41229   5.845  17.144  14.894
40366W        W41230   5.816  14.996  16.092
40367W        W41231   6.992  15.466  15.332
40368W        W41232   3.865  17.894  17.622
40369W        W41233   4.236  17.159  16.998
40370W        W41234   3.535  18.093  15.397
40371W        W41235   5.521  15.283  17.003
40372W        W41236   4.743  17.518  15.052
40373W        W41237   6.639  17.774  15.033
40374W        W41238   5.867  16.250  15.047
40375W        W41239   5.081  15.398  15.565
40376W        W41240   5.346  15.308  14.550
40377W        W41241   5.866  17.093  17.662
40378W        W41242   6.410  14.884  15.494
40379W        W41243   3.623  14.617  14.957
40380W        W41244   5.131  17.209  17.103
40381W        W41245   4.887  16.890  16.288
40382W        W41246   4.723  17.265  14.609
40383W        W41247   3.610  17.570  15.480
40384W        W41248   4.405  16.270  17.930
40385W        W41249   4.944  14.729  18.065
40386W        W41250   5.617  14.860  17.291
40387W        W41251   4.798  14.678  15.652
40388W        W41252   5.828  14.824  15.073
40389W        W41253   3.832  14.850  16.807
40390W        W41254   3.819  15.630  16.126
40391W        W41255   6.675  14.772  16.597
40392W        W41256   3.869  15.252  15.551
40393W        W41257   6.552  14.967  17.060
40394W        W41258   7.102  15.888  14.634
40395W        W41259   4.312  15.014  16.638
40396W        W41260   5.483  15.545  17.437
40397W        W41261   3.506  15.129  14.954
40398W        W41262   4.469  16.747  17.749
40399W        W41263   5.750  16.066  16.791
40400W        W41264   5.534  18.097  14.860
40401W        W41265   3.600  16.794  14.409
40402W        W41266   4.625  17.234  17.788
40403W        W41267   4.163  16.328  17.443
40404W        W41268   4.951  16.578  17.104
40405W        W41269   6.596  14.667  17.471
40406W        W41270   7.190  16.485  17.591
40407W        W41271   6.823  15.924  15.113
40408W        W41272   5.827  16.850  15.366
40409W        W41273   6.420  18.228  14.811
40410W        W41274   5.769  16.245  18.039
40411W        W41275   4.200  17.104  18.046
40412W        W41276   7.257  15.239  18.048
40413W        W41277   6.620  15.857  16.687
40414W        W41278   5.088  18.059  18.147
40415W        W41279   5.021  14.614  14.891
40416W        W41280   6.289  17.426  14.846
40417W        W41281   4.540  15.477  17.746
40418W        W41282   5.054  17.416  17.577
40419W        W41283   6.952  15.169  17.308
40420W        W41284   6.374  18.107  15.336
40421W        W41285   6.585  16.770  16.630
40422W        W41286   4.626  15.090  17.442
40423W        W41287   5.267  16.160  17.928
40424W        W41288   4.504  17.296  15.453
40425W        W41289   6.488  16.832  15.564
40426W        W41290   4.109  15.419  17.414
40427W        W41291   5.464  17.401  15.765
40428W        W41292   7.205  15.968  16.145
40429W        W41293   5.301  14.636  17.696
40430W        W41294   6.270  17.754  16.776
40431W        W41295   6.712  17.832  16.541
40432W        W41296   5.589  17.578  14.783
40433W        W41297   3.798  17.291  17.815
40434W        W41298   4.487  15.406  17.054
40435W        W41299   4.475  14.801  16.058
40436W        W41300   6.131  15.719  16.773
40437W        W41301   4.970  16.745  14.725
40438W        W41302   7.004  17.049  16.689
40439W        W41303   4.248  17.586  17.811
40440W        W41304   6.777  18.244  15.645
40441W        W41305   4.972  15.014  16.003
40442W        W41306   4.423  16.696  16.195
40443W        W41307   4.928  18.159  16.896
40444W        W41308   6.870  18.296  17.840
40445W        W41309   6.090  16.766  16.738
40446W        W41310   4.009  15.837  14.532
40447W        W41311   7.105  17.873  15.776
40448W        W41312   6.684  15.084  15.109
40449W        W41313   4.793  14.603  17.380
40450W        W41314   6.773  17.630  16.081
40451W        W41315   6.701  15.886  16.152
40452W        W41316   5.029  15.503  16.132
40453W        W41317   5.117  15.976  17.451
40454W        W41318   6.284  17.138  17.394
40455W        W41319   4.969  15.483  17.470
40456W        W41320   4.815  18.026  16.070
40457W        W41321   4.224  18.073  17.978
40458W        W41322   4.327  17.636  14.713
40459W        W41323   6.897  17.306  15.706
40460W        W41324   4.607  15.838  17.320
40461W        W41325   7.008  15.411  14.813
40462W        W41326   5.268  16.776  15.423
40463W        W41327   5.925  16.350  17.182
40464W        W41328   5.852  15.795  17.203
40465W        W41329   4.453  16.284  17.010
40466W        W41330   6.677  18.018  17.028
40467W        W41331   6.310  14.889  17.880
40468W        W41332   4.014  14.943  17.666
40469W        W41333   4.530  15.829  16.773
40470W        W41334   4.982  15.678  14.556
40471W        W41335   3.751  17.447  17.341
40472W        W41336   5.270  16.218  16.646
40473W        W41337   4.903  15.165  14.758
40474W        W41338   4.372  16.236  16.470
40475W        W41339   3.922  18.079  17.152
40476W        W41340   6.667  16.338  15.469
40477W        W41341   6.838  15.033  17.796
40478W        W41342   6.434  17.235  15.913
40479W        W41343   3.812  16.307  17.877
40480W        W41344   6.840  14.604  15.096
40481W        W41345   6.552  17.292  15.295
40482W        W41346   5.478  15.918  15.243
40483W        W41347   6.238  15.035  14.859
40484W        W41348   6.579  15.532  17.116
40485W        W41349   3.833  16.127  16.296
40486W        W41350   4.605  17.169  15.957
40487W        W41351   6.293  15.716  15.871
40488W        W41352   5.252  15.260  16.543
40489W        W41353   7.236  17.162  17.130
40490W        W41354   6.903  15.234  16.791
40491W        W41355   3.682  17.953  16.258
40492W        W41356   3.761  17.114  15.698
40493W        W41357   4.091  14.914  18.186
40494W        W41358   5.206  17.557  18.065
40495W        W41359   7.036  16.646  16.351
40496W        W41360   6.269  16.896  15.057
40497W        W41361   5.784  18.246  17.019
40498W        W41362   6.331  17.066  17.911
40499W        W41363   5.286  14.678  15.399
40500W        W41364   6.039  15.446  16.291
40501W        W41365   3.930  17.076  16.607
40502W        W41366   4.891  14.989  15.247
40503W        W41367   4.891  16.530  17.957
40504W        W41368   5.875  15.436  15.755
40505W        W41369   6.150  17.257  16.918
40506W        W41370   4.234  17.649  17.286
40507W        W41371   4.749  17.727  17.864
40508W        W41372   4.442  15.133  15.012
40509W        W41373   6.109  15.298  15.281
40510W        W41374   6.012  17.562  17.455
40511W        W41375   4.937  16.201  16.266
40512W        W41376   4.440  18.039  17.006
40513W        W41377   6.909  18.080  14.731
40514W        W41378   3.961  16.757  17.690
40515W        W41379   5.770  16.810  16.323
40516W        W41380   4.256  16.892  15.682
40517W        W41381   4.917  17.652  16.925
40518W        W41382   5.369  14.809  16.279
40519W        W41383   3.324  17.139  15.408
40520W        W41384   5.484  15.779  14.730
40521W        W41385   3.840  16.641  15.885
40522W        W41386   5.129  15.003  17.305
40523W        W41387   6.975  14.865  14.668
40524W        W41388   6.753  16.722  17.978
40525W        W41389   5.604  17.933  18.000
40526W        W41390   7.224  17.003  17.634
40527W        W41391   6.758  17.787  18.044
40528W        W41392   4.592  17.999  16.527
40529W        W41393   7.361  16.948  16.053
40530W        W41394   5.821  15.858  16.058
40531W        W41395   5.599  14.580  15.865
40532W        W41396   4.703  17.673  15.729
40533W        W41397   5.004  15.393  16.975
40534W        W41398   4.906  14.873  16.502
40535W        W41399   3.805  17.807  15.035
40536W        W41400   5.558  16.765  15.852
40537W        W41401   4.786  17.854  17.367
40538W        W41402   3.641  16.703  15.387
40539W        W41403   3.823  15.225  16.445
40540W        W41404   5.372  17.140  16.299
40541W        W41405   3.554  14.856  15.427
40542W        W41406   6.324  16.023  17.166
40543W        W41407   6.166  15.528  14.656
40544W        W41408   6.586  17.341  16.589
40545W        W41409   5.504  17.651  16.237
40546W        W41410   4.906  17.972  15.327
40547W        W41411   6.022  14.637  14.599
40548W        W41412   4.082  17.994  16.628
40549W        W41413   5.798  15.692  17.832
40550W        W41414   4.073  15.380  17.935
40551W        W41415   3.610  15.758  15.669
40552W        W41416   5.024  15.954  15.017
40553W        W41417   6.101  16.155  17.635
40554W        W41418   4.784  16.515  16.635
40555W        W41419   6.136  14.632  15.913
40556W        W41420   5.435  18.161  16.319
40557W        W41421   6.476  17.574  17.209
40558W        W41422   6.279  17.611  16.256
40559W        W41423   6.084  16.829  15.887
40560W        W41424   5.352  14.993  14.983
40561W        W41425   7.105  14.643  15.997
40562W        W41426   4.887  16.194  14.594
40563W        W41427   6.968  15.473  15.940
40564W        W41428   5.448  16.812  14.941
40565W        W41429   6.719  16.969  17.547
40566W        W41430   6.026  17.879  14.812
40567W        W41431   4.945  15.215  17.917
40568W        W41432   4.923  16.082  16.991
40569W        W41433   6.936  17.447  17.473
40570W        W41434   5.909  15.248  17.576
40571W        W41435   3.774  15.942  17.496
40572W        W41436   5.404  16.280  17.136
40573W        W41437   4.085  17.093  16.114
40574W        W41438   3.968  16.297  16.794
40575W        W41439   6.403  16.660  17.134
40576W        W41440   6.108  17.969  17.794
40577W        W41441   6.233  15.657  17.504
40578W        W41442   6.391  17.987  15.880
40579W        W41443   5.323  17.692  17.226
40580W        W41444   5.064  17.817  16.461
40581W        W41445   6.655  17.111  17.050
40582W        W41446   5.559  17.152  18.075
40583W        W41447   4.442  17.139  16.478
40584W        W41448   6.573  16.731  16.081
40585W        W41449   6.271  18.276  16.844
40586W        W41450   4.442  17.569  16.773
40587W        W41451   5.251  15.643  17.870
40588W        W41452   5.413  17.757  15.302
40589W        W41453   5.054  17.048  18.004
40590W        W41454   5.044  17.417  15.465
40591W        W41455   4.518  15.854  14.371
40592W        W41456   3.694  18.201  21.752
40593W        W41457   4.094  17.130  21.108
40594W        W41458   6.476  16.618  18.788
40595W        W41459   7.054  17.862  20.900
40596W        W41460   4.615  17.898  18.327
40597W        W41461   5.031  15.984  19.474
40598W        W41462   4.679  15.692  19.743
40599W        W41463   5.612  16.643  19.032
40600W        W41464   5.109  17.897  21.158
40601W        W41465   3.708  15.400  21.297
40602W        W41466   4.342  14.597  21.198
40603W        W41467   6.229  14.980  19.904
40604W        W41468   5.862  16.024  18.522
40605W        W41469   6.376  15.351  21.467
40606W        W41470   3.771  15.074  20.901
40607W        W41471   3.849  17.706  21.795
40608W        W41472   5.226  17.228  18.471
40609W        W41473   3.643  15.716  20.309
40610W        W41474   4.842  15.903  21.457
40611W        W41475   7.018  15.455  20.056
40612W        W41476   6.836  16.654  20.796
40613W        W41477   5.383  15.997  19.852
40614W        W41478   5.875  17.373  20.273
40615W        W41479   4.198  16.589  20.401
40616W        W41480   3.473  16.198  20.171
40617W        W41481   4.700  16.290  21.097
40618W        W41482   6.939  16.034  21.493
40619W        W41483   4.508  17.318  19.846
40620W        W41484   5.628  17.268  20.818
40621W        W41485   5.004  15.757  20.176
40622W        W41486   5.203  16.490  19.829
40623W        W41487   5.891  17.465  21.663
40624W        W41488   5.432  16.671  21.639
40625W        W41489   5.338  16.503  21.158
40626W        W41490   3.612  15.645  21.747
40627W        W41491   6.357  17.374  21.359
40628W        W41492   4.069  14.854  19.385
40629W        W41493   4.572  16.944  20.375
40630W        W41494   6.987  17.122  19.741
40631W        W41495   6.680  15.065  20.132
40632W        W41496   6.732  15.382  18.154
40633W        W41497   7.098  16.198  20.679
40634W        W41498   5.223  17.638  20.230
40635W        W41499   7.035  17.387  18.817
40636W        W41500   3.979  18.117  18.955
40637W        W41501   4.353  18.003  19.299
40638W        W41502   4.247  14.980  20.745
40639W        W41503   6.793  15.789  20.849
40640W        W41504   6.288  16.342  19.770
40641W        W41505   6.174  15.924  18.120
40642W        W41506   5.406  17.159  20.349
40643W        W41507   5.655  15.582  19.645
40644W        W41508   5.882  17.693  20.669
40645W        W41509   6.341  16.118  19.298
40646W        W41510   5.885  14.914  19.095
40647W        W41511   4.136  17.620  19.005
40648W        W41512   3.682  15.255  19.430
40649W        W41513   6.497  15.585  20.153
40650W        W41514   3.981  17.446  19.984
40651W        W41515   5.047  17.716  18.549
40652W        W41516   6.702  15.899  18.275
40653W        W41517   3.789  17.494  20.471
40654W        W41518   4.524  17.190  20.819
40655W        W41519   5.179  16.728  19.365
40656W        W41520   4.709  15.017  20.496
40657W        W41521   7.277  14.670  20.078
40658W        W41522   4.627  16.889  18.232
40659W        W41523   3.921  15.323  18.442
40660W        W41524   4.129  17.412  19.489
40661W        W41525   4.833  17.104  19.483
40662W        W41526   6.606  17.804  21.189
40663W        W41527   5.629  15.622  18.759
40664W        W41528   6.918  18.174  19.852
40665W        W41529   6.499  15.842  21.254
40666W        W41530   7.347  17.474  19.600
40667W        W41531   5.822  16.619  20.994
40668W        W41532   3.474  16.302  19.300
40669W        W41533   4.540  16.668  20.789
40670W        W41534   5.852  15.932  19.316
40671W        W41535   5.938  16.437  19.400
40672W        W41536   3.999  15.855  20.668
40673W        W41537   4.193  15.838  21.413
40674W        W41538   3.941  14.763  19.910
40675W        W41539   5.787  15.160  20.139
40676W        W41540   5.509  15.143  21.548
40677W        W41541   5.864  15.140  18.601
40678W        W41542   7.067  17.653  21.404
40679W        W41543   5.990  14.650  21.361
40680W        W41544   6.830  17.184  21.516
40681W        W41545   6.420  15.259  20.946
40682W        W41546   6.267  15.123  19.398
40683W        W41547   6.484  16.261  21.615
40684W        W41548   4.271  17.837  19.786
40685W        W41549   5.165  15.399  18.791
40686W        W41550   4.642  14.966  21.444
40687W        W41551   6.678  15.357  19.185
40688W        W41552   6.660  15.727  18.828
40689W        W41553   4.643  17.976  21.391
40690W        W41554   4.500  14.651  18.894
40691W        W41555   7.058  15.019  19.791
40692W        W41556   7.146  17.610  18.343
40693W        W41557   3.832  16.586  20.007
40694W        W41558   5.851  15.136  18.071
40695W        W41559   7.060  17.561  20.025
40696W        W41560   7.123  14.607  20.587
40697W        W41561   5.639  15.940  21.191
40698W        W41562   5.653  17.215  18.800
40699W        W41563   6.034  16.589  21.813
40700W        W41564   5.793  14.691  19.917
40701W        W41565   4.121  15.601  20.117
40702W        W41566   4.017  16.678  20.890
40703W        W41567   5.722  17.833  19.693
40704W        W41568   6.741  15.374  20.542
40705W        W41569   5.639  17.957  21.063
40706W        W41570   6.757  16.414  18.400
40707W        W41571   5.449  16.284  19.408
40708W        W41572   7.130  14.625  21.118
40709W        W41573   5.420  16.804  20.741
40710W        W41574   5.492  15.585  20.147
40711W        W41575   6.126  15.790  18.896
40712W        W41576   6.350  15.580  18.467
40713W        W41577   6.855  17.483  19.375
40714W        W41578   6.273  17.049  20.145
40715W        W41579   6.056  16.326  18.927
40716W        W41580   5.711  16.416  19.852
40717W        W41581   6.728  16.278  20.086
40718W        W41582   3.944  15.344  20.517
40719W        W41583   6.624  16.317  21.119
40720W        W41584   7.152  17.945  20.355
40721W        W41585   5.026  17.511  19.747
40722W        W41586   6.157  17.971  21.005
40723W        W41587   5.920  15.320  20.745
40724W        W41588   5.272  18.237  20.800
40725W        W41589   7.009  14.990  19.291
40726W        W41590   6.561  16.203  20.618
40727W        W41591   3.598  15.564  20.809
40728W        W41592   6.619  15.344  19.704
40729W        W41593   6.875  15.508  21.348
40730W        W41594   6.035  17.321  19.771
40731W        W41595   5.263  17.802  19.401
40732W        W41596   4.077  14.862  18.695
40733W        W41597   5.453  14.779  20.317
40734W        W41598   4.109  18.043  18.459
40735W        W41599   5.155  16.442  18.899
40736W        W41600   5.427  17.012  21.227
40737W        W41601   5.416  15.117  19.184
40738W        W41602   6.625  14.785  19.618
40739W        W41603   6.403  18.260  19.971
40740W        W41604   5.688  17.863  20.212
40741W        W41605   5.102  16.740  20.272
40742W        W41606   6.857  17.533  20.529
40743W        W41607   4.565  14.993  19.289
40744W        W41608   4.917  17.236  20.163
40745W        W41609   4.499  15.249  18.215
40746W        W41610   5.332  15.797  20.598
40747W        W41611   6.076  14.738  20.346
40748W        W41612   3.701  16.556  20.506
40749W        W41613   5.437  16.328  18.453
40750W        W41614   4.536  14.752  18.387
40751W        W41615   5.380  15.688  19.211
40752W        W41616   6.108  14.836  20.859
40753W        W41617   4.924  16.848  21.102
40754W        W41618   5.777  16.356  21.440
40755W        W41619   6.224  16.590  21.322
40756W        W41620   5.584  14.745  21.890
40757W        W41621   4.625  15.399  20.151
40758W        W41622   4.124  15.241  19.732
40759W        W41623   3.843  17.843  19.376
40760W        W41624   5.442  17.524  21.359
40761W        W41625   4.767  17.118  18.689
40762W        W41626   6.078  16.570  20.165
40763W        W41627   6.269  16.060  20.219
40764W        W41628   5.584  16.562  20.328
40765W        W41629   5.982  17.144  18.373
40766W        W41630   5.806  15.097  19.596
40767W        W41631   7.137  15.404  18.972
40768W        W41632   3.759  17.909  21.293
40769W        W41633   4.064  17.068  20.568
40770W        W41634   3.491  17.946  18.997
40771W        W41635   5.437  15.273  20.582
40772W        W41636   4.591  17.618  18.770
40773W        W41637   7.004  17.889  18.954
40774W        W41638   6.009  16.494  18.449
40775W        W41639   4.965  15.344  19.289
40776W        W41640   5.398  15.322  18.274
40777W        W41641   5.879  16.958  21.475
40778W        W41642   6.563  14.863  19.074
40779W        W41643   3.614  14.721  18.517
40780W        W41644   4.990  17.056  20.648
40781W        W41645   4.734  16.817  19.911
40782W        W41646   4.748  17.399  18.264
40783W        W41647   3.644  17.459  19.093
40784W        W41648   4.456  16.269  21.562
40785W        W41649   5.100  14.845  21.713
40786W        W41650   5.596  14.909  20.945
40787W        W41651   5.058  14.802  19.416
40788W        W41652   6.209  14.758  18.724
40789W        W41653   3.836  14.833  20.436
40790W        W41654   3.685  15.631  19.803
40791W        W41655   6.757  14.569  20.217
40792W        W41656   4.098  15.242  19.056
40793W        W41657   6.560  14.855  20.599
40794W        W41658   7.187  16.082  18.358
40795W        W41659   4.244  15.067  20.212
40796W        W41660   5.536  15.433  21.084
40797W        W41661   3.416  15.220  18.529
40798W        W41662   4.435  16.728  21.280
40799W        W41663   5.691  16.060  20.265
40800W        W41664   5.457  18.038  18.516
40801W        W41665   3.705  16.883  18.129
40802W        W41666   4.614  17.223  21.323
40803W        W41667   4.162  16.262  21.133
40804W        W41668   5.025  16.478  20.733
40805W        W41669   6.566  14.701  21.113
40806W        W41670   7.131  16.385  21.158
40807W        W41671   6.719  16.223  18.967
40808W        W41672   6.030  16.855  18.816
40809W        W41673   6.457  18.205  18.127
40810W        W41674   5.685  15.971  21.836
40811W        W41675   4.217  17.114  21.622
40812W        W41676   7.288  15.111  21.716
40813W        W41677   6.881  15.862  20.347
40814W        W41678   5.114  18.053  21.659
40815W        W41679   5.024  14.597  18.559
40816W        W41680   6.885  16.932  18.449
40817W        W41681   4.533  15.465  21.415
40818W        W41682   5.057  17.363  21.053
40819W        W41683   6.930  15.051  20.894
40820W        W41684   6.734  18.006  18.529
40821W        W41685   6.531  16.660  20.365
40822W        W41686   4.612  15.256  20.968
40823W        W41687   5.295  16.155  21.542
40824W        W41688   4.455  17.210  19.114
40825W        W41689   6.411  16.624  19.301
40826W        W41690   4.123  15.495  21.008
40827W        W41691   5.338  17.254  19.383
40828W        W41692   7.015  15.912  19.817
40829W        W41693   5.451  14.646  21.385
40830W        W41694   6.362  17.507  20.358
40831W        W41695   6.664  17.871  20.173
40832W        W41696   5.617  17.559  18.390
40833W        W41697   3.757  17.299  21.472
40834W        W41698   4.412  15.544  20.583
40835W        W41699   4.433  14.809  19.764
40836W        W41700   5.983  15.630  20.276
40837W        W41701   5.078  16.721  18.439
40838W        W41702   7.034  16.674  20.328
40839W        W41703   4.194  17.586  21.336
40840W        W41704   6.819  18.241  19.290
40841W        W41705   4.830  15.132  19.752
40842W        W41706   4.344  16.466  19.914
40843W        W41707   4.964  18.056  20.407
40844W        W41708   6.860  18.123  21.472
40845W        W41709   5.999  16.314  20.588
40846W        W41710   3.877  15.837  18.040
40847W        W41711   7.137  17.908  19.469
40848W        W41712   6.735  15.221  18.676
40849W        W41713   4.772  14.772  20.975
40850W        W41714   6.565  17.440  19.883
40851W        W41715   6.494  15.879  19.750
40852W        W41716   5.166  15.520  19.738
40853W        W41717   5.148  16.032  21.045
40854W        W41718   6.092  17.071  21.007
40855W        W41719   5.017  15.540  21.133
40856W        W41720   4.780  17.987  19.683
40857W        W41721   4.169  18.062  21.560
40858W        W41722   4.247  17.534  18.369
40859W        W41723   6.895  16.755  19.393
40860W        W41724   4.555  15.800  21.014
40861W        W41725   7.072  15.583  18.479
40862W        W41726   5.216  16.971  18.915
40863W        W41727   6.120  16.153  21.056
40864W        W41728   5.827  15.839  20.723
40865W        W41729   4.379  16.190  20.676
40866W        W41730   6.601  17.963  20.689
40867W        W41731   6.441  14.816  21.610
40868W        W41732   4.136  15.064  21.266
40869W        W41733   4.501  15.930  20.239
40870W        W41734   4.939  15.610  18.285
40871W        W41735   3.685  17.465  20.987
40872W        W41736   5.193  16.224  20.299
40873W        W41737   4.947  15.095  18.428
40874W        W41738   4.746  16.491  19.521
40875W        W41739   3.789  17.951  20.754
40876W        W41740   6.368  16.126  18.577
40877W        W41741   6.889  14.990  21.413
40878W        W41742   6.509  17.101  19.507
40879W        W41743   3.837  16.220  21.539
40880W        W41744   7.008  14.779  18.807
40881W        W41745   6.680  17.056  19.017
40882W        W41746   5.581  16.128  18.933
40883W        W41747   6.329  15.089  18.352
40884W        W41748   6.259  15.212  20.393
40885W        W41749   3.794  16.139  19.748
40886W        W41750   4.345  16.904  19.549
40887W        W41751   6.287  15.626  19.355
40888W        W41752   5.111  15.239  20.190
40889W        W41753   7.101  17.092  20.650
40890W        W41754   7.147  15.077  20.384
40891W        W41755   3.706  17.903  19.858
40892W        W41756   3.942  17.035  19.183
40893W        W41757   4.202  14.863  21.722
40894W        W41758   5.348  17.642  21.857
40895W        W41759   6.749  16.303  19.573
40896W        W41760   6.388  16.818  18.340
40897W        W41761   5.771  18.197  20.607
40898W        W41762   6.380  16.950  21.640
40899W        W41763   5.320  14.594  18.997
40900W        W41764   6.124  15.465  19.811
40901W        W41765   3.687  17.051  20.183
40902W        W41766   4.947  14.944  18.934
40903W        W41767   4.945  16.523  21.488
40904W        W41768   5.848  15.422  19.182
40905W        W41769   5.926  16.904  20.538
40906W        W41770   4.160  17.562  20.813
40907W        W41771   4.940  17.568  21.526
40908W        W41772   4.515  15.150  18.735
40909W        W41773   6.263  15.278  18.892
40910W        W41774   5.916  17.539  21.163
40911W        W41775   4.825  16.166  19.917
40912W        W41776   4.467  17.895  20.565
40913W        W41777   7.129  18.112  18.235
40914W        W41778   3.934  16.711  21.404
40915W        W41779   5.741  16.941  20.024
40916W        W41780   4.754  16.780  19.081
40917W        W41781   4.851  17.546  20.579
40918W        W41782   5.355  14.993  19.811
40919W        W41783   3.436  17.040  18.855
40920W        W41784   5.440  15.841  18.294
40921W        W41785   3.914  16.559  19.468
40922W        W41786   5.140  15.040  21.206
40923W        W41787   6.899  14.899  18.304
40924W        W41788   6.790  16.648  21.491
40925W        W41789   5.673  17.935  21.602
40926W        W41790   7.119  16.919  21.145
40927W        W41791   6.644  17.631  21.695
40928W        W41792   4.484  18.174  20.133
40929W        W41793   7.143  16.297  19.257
40930W        W41794   5.954  15.956  19.824
40931W        W41795   5.565  14.669  19.446
40932W        W41796   4.620  17.585  19.418
40933W        W41797   4.927  15.478  20.616
40934W        W41798   4.977  14.757  20.090
40935W        W41799   3.771  17.689  18.630
40936W        W41800   5.639  16.839  19.532
40937W        W41801   4.625  17.655  21.018
40938W        W41802   3.701  16.602  18.947
40939W        W41803   3.719  15.202  20.071
40940W        W41804   5.227  16.999  19.829
40941W        W41805   3.641  14.997  18.971
40942W        W41806   6.325  15.704  20.657
40943W        W41807   5.871  15.563  18.318
40944W        W41808   6.785  17.118  20.217
40945W        W41809   5.525  17.406  19.885
40946W        W41810   4.852  17.954  19.108
40947W        W41811   5.958  14.686  18.272
40948W        W41812   4.041  17.897  20.268
40949W        W41813   5.865  15.513  21.629
40950W        W41814   4.093  15.404  21.676
40951W        W41815   3.627  15.810  19.325
40952W        W41816   5.171  15.913  18.727
40953W        W41817   6.094  15.955  21.539
40954W        W41818   4.690  16.431  20.333
40955W        W41819   6.113  14.646  19.502
40956W        W41820   5.269  18.016  19.890
40957W        W41821   6.341  17.516  20.860
40958W        W41822   6.169  17.786  19.950
40959W        W41823   6.126  16.815  19.704
40960W        W41824   5.397  14.958  18.656
40961W        W41825   7.340  14.652  19.508
40962W        W41826   4.946  16.150  18.320
40963W        W41827   7.075  15.465  19.510
40964W        W41828   5.590  16.815  18.491
40965W        W41829   6.570  16.936  21.144
40966W        W41830   6.660  17.414  18.418
40967W        W41831   4.983  15.335  21.622
40968W        W41832   4.849  15.997  20.624
40969W        W41833   6.814  17.365  21.020
40970W        W41834   5.949  15.147  21.246
40971W        W41835   3.760  15.902  21.140
40972W        W41836   5.511  16.260  20.742
40973W        W41837   3.846  17.006  19.693
40974W        W41838   3.999  16.135  20.238
40975W        W41839   6.313  16.631  20.821
40976W        W41840   6.203  17.873  21.526
40977W        W41841   6.056  15.629  21.135
40978W        W41842   6.573  17.890  19.615
40979W        W41843   5.339  17.702  20.727
40980W        W41844   4.709  17.716  20.109
40981W        W41845   6.527  17.088  20.655
40982W        W41846   5.510  17.152  21.797
40983W        W41847   4.193  16.970  20.054
40984W        W41848   6.627  16.743  19.862
40985W        W41849   6.192  18.012  20.398
40986W        W41850   4.361  17.425  20.347
40987W        W41851   5.370  15.652  21.530
40988W        W41852   5.397  17.646  18.910
40989W        W41853   5.045  17.049  21.577
40990W        W41854   4.962  17.417  19.069
40991W        W41855   4.407  15.764  18.155
40992W        W41856   3.739  18.241  25.351
40993W        W41857   4.128  17.127  24.874
40994W        W41858   6.616  16.799  22.486
40995W        W41859   7.101  18.002  24.738
40996W        W41860   4.863  17.750  22.003
40997W        W41861   4.901  15.931  22.872
40998W        W41862   4.525  15.846  23.539
40999W        W41863   5.343  16.573  22.479
41000W        W41864   5.158  17.919  24.932
41001W        W41865   3.722  15.431  24.978
41002W        W41866   4.268  14.590  24.920
41003W        W41867   6.213  15.007  23.610
41004W        W41868   5.937  15.728  22.233
41005W        W41869   6.338  15.468  25.220
41006W        W41870   3.794  15.113  24.595
41007W        W41871   3.854  17.746  25.460
41008W        W41872   5.109  17.274  22.102
41009W        W41873   3.677  15.745  23.966
41010W        W41874   4.812  15.877  25.181
41011W        W41875   6.997  15.401  23.768
41012W        W41876   6.863  16.540  24.475
41013W        W41877   5.355  15.903  23.658
41014W        W41878   5.816  17.409  23.991
41015W        W41879   4.210  16.606  24.089
41016W        W41880   3.466  16.210  23.863
41017W        W41881   4.799  16.281  24.863
41018W        W41882   6.978  16.072  25.051
41019W        W41883   4.575  17.458  23.657
41020W        W41884   5.698  17.269  24.571
41021W        W41885   4.906  15.751  23.913
41022W        W41886   5.223  16.605  23.765
41023W        W41887   5.937  17.501  25.386
41024W        W41888   5.332  16.640  25.480
41025W        W41889   5.275  16.508  24.967
41026W        W41890   3.593  15.714  25.383
41027W        W41891   6.422  17.301  25.106
41028W        W41892   4.084  14.877  23.049
41029W        W41893   4.808  17.300  24.126
41030W        W41894   6.759  17.014  23.576
41031W        W41895   6.575  15.183  23.941
41032W        W41896   6.751  15.275  21.836
41033W        W41897   7.248  16.165  24.445
41034W        W41898   5.325  18.011  24.074
41035W        W41899   6.787  17.296  22.546
41036W        W41900   4.092  18.060  22.649
41037W        W41901   4.489  17.996  23.088
41038W        W41902   4.244  14.877  24.479
41039W        W41903   6.847  15.883  24.557
41040W        W41904   6.083  16.233  23.248
41041W        W41905   6.189  16.149  22.027
41042W        W41906   5.510  17.056  24.154
41043W        W41907   5.431  15.435  23.428
41044W        W41908   5.947  17.702  24.396
41045W        W41909   6.506  16.329  22.972
41046W        W41910   5.799  15.020  22.743
41047W        W41911   4.369  17.633  22.751
41048W        W41912   3.704  15.224  23.154
41049W        W41913   6.012  15.905  23.637
41050W        W41914   4.052  17.477  23.739
41051W        W41915   5.214  17.703  22.382
41052W        W41916   6.574  15.763  21.755
41053W        W41917   3.836  17.534  24.222
41054W        W41918   4.608  17.309  24.617
41055W        W41919   4.940  16.629  23.334
41056W        W41920   4.599  15.101  24.169
41057W        W41921   7.156  14.676  23.758
41058W        W41922   4.607  16.768  21.767
41059W        W41923   4.165  15.481  22.184
41060W        W41924   4.251  17.479  23.244
41061W        W41925   5.014  17.126  23.250
41062W        W41926   6.655  17.844  24.945
41063W        W41927   5.579  15.441  22.546
41064W        W41928   6.809  18.052  23.610
41065W        W41929   6.488  15.900  24.932
41066W        W41930   7.177  17.423  23.412
41067W        W41931   5.883  16.759  24.676
41068W        W41932   3.424  16.352  22.964
41069W        W41933   4.573  16.849  24.381
41070W        W41934   5.808  15.870  22.737
41071W        W41935   5.626  16.419  23.019
41072W        W41936   4.098  15.931  24.379
41073W        W41937   4.106  15.825  25.119
41074W        W41938   3.930  14.753  23.513
41075W        W41939   5.698  15.104  23.829
41076W        W41940   5.470  15.181  25.138
41077W        W41941   5.909  15.194  22.237
41078W        W41942   7.137  17.741  25.189
41079W        W41943   5.862  14.783  25.058
41080W        W41944   6.921  17.194  25.305
41081W        W41945   6.462  15.304  24.736
41082W        W41946   6.222  15.180  23.113
41083W        W41947   6.598  16.276  25.507
41084W        W41948   4.316  17.892  23.557
41085W        W41949   5.080  15.543  22.452
41086W        W41950   4.606  14.958  25.127
41087W        W41951   6.555  15.481  22.877
41088W        W41952   6.819  15.904  22.681
41089W        W41953   4.726  18.095  25.244
41090W        W41954   4.582  14.747  22.448
41091W        W41955   6.757  14.964  23.508
41092W        W41956   7.071  17.436  21.914
41093W        W41957   3.826  16.607  23.687
41094W        W41958   5.994  15.032  21.750
41095W        W41959   7.095  17.698  23.854
41096W        W41960   7.124  14.666  24.495
41097W        W41961   5.644  16.112  25.082
41098W        W41962   5.451  17.124  22.448
41099W        W41963   6.154  16.470  25.381
41100W        W41964   5.720  14.612  23.723
41101W        W41965   4.165  15.651  23.847
41102W        W41966   3.988  16.709  24.583
41103W        W41967   5.906  17.948  23.398
41104W        W41968   6.794  15.438  24.322
41105W        W41969   5.728  18.012  24.790
41106W        W41970   6.525  16.609  22.000
41107W        W41971   5.215  16.171  23.228
41108W        W41972   7.432  14.636  24.923
41109W        W41973   5.400  16.809  24.578
41110W        W41974   5.668  15.604  23.934
41111W        W41975   6.313  15.917  22.741
41112W        W41976   6.460  15.792  22.276
41113W        W41977   6.567  17.707  22.777
41114W        W41978   6.261  16.946  23.765
41115W        W41979   6.047  16.354  22.740
41116W        W41980   5.627  16.335  23.530
41117W        W41981   6.494  16.130  23.605
41118W        W41982   4.071  15.308  24.209
41119W        W41983   6.586  16.407  24.996
41120W        W41984   7.114  18.075  24.198
41121W        W41985   5.066  17.520  23.581
41122W        W41986   6.229  18.043  24.724
41123W        W41987   5.930  15.385  24.419
41124W        W41988   5.318  18.268  24.565
41125W        W41989   6.750  15.005  22.964
41126W        W41990   6.797  16.164  24.109
41127W        W41991   3.691  15.589  24.442
41128W        W41992   6.470  15.458  23.504
41129W        W41993   6.865  15.550  24.964
41130W        W41994   5.882  17.211  23.514
41131W        W41995   5.254  17.767  23.152
41132W        W41996   4.169  14.973  22.224
41133W        W41997   5.296  14.811  24.022
41134W        W41998   4.158  18.056  22.084
41135W        W41999   4.998  16.451  22.845
41136W        W42000   5.379  17.055  25.004
41137W        W42001   5.343  15.119  23.009
41138W        W42002   6.390  14.697  23.242
41139W        W42003   6.293  18.182  23.698
41140W        W42004   5.819  17.925  23.919
41141W        W42005   5.057  16.860  24.197
41142W        W42006   6.944  17.631  24.383
41143W        W42007   4.574  14.999  22.912
41144W        W42008   5.283  17.503  24.048
41145W        W42009   4.538  15.221  21.900
41146W        W42010   5.362  15.783  24.316
41147W        W42011   6.131  15.012  24.112
41148W        W42012   3.695  16.580  24.178
41149W        W42013   5.349  16.313  22.029
41150W        W42014   4.645  14.698  21.923
41151W        W42015   5.326  15.656  22.949
41152W        W42016   6.106  14.907  24.612
41153W        W42017   4.925  16.875  24.783
41154W        W42018   5.736  16.654  25.160
41155W        W42019   6.263  16.809  25.016
41156W        W42020   5.549  14.820  25.493
41157W        W42021   4.594  15.357  23.732
41158W        W42022   4.150  15.264  23.439
41159W        W42023   3.971  17.893  23.144
41160W        W42024   5.540  17.553  24.980
41161W        W42025   4.949  16.965  22.497
41162W        W42026   6.089  16.424  23.749
41163W        W42027   6.261  16.044  24.060
41164W        W42028   5.527  16.551  24.169
41165W        W42029   6.029  17.089  21.993
41166W        W42030   5.798  14.940  23.284
41167W        W42031   7.018  15.402  22.690
41168W        W42032   3.867  17.884  24.958
41169W        W42033   4.146  17.147  24.365
41170W        W42034   3.603  17.985  22.781
41171W        W42035   5.457  15.253  24.260
41172W        W42036   4.748  17.472  22.427
41173W        W42037   6.708  17.695  22.221
41174W        W42038   5.768  16.261  22.325
41175W        W42039   4.883  15.405  22.904
41176W        W42040   5.483  15.411  22.006
41177W        W42041   5.877  17.138  25.036
41178W        W42042   6.315  14.965  22.647
41179W        W42043   3.730  14.682  22.258
41180W        W42044   5.173  17.263  24.508
41181W        W42045   4.861  16.977  23.728
41182W        W42046   4.667  17.269  21.859
41183W        W42047   3.855  17.518  22.825
41184W        W42048   4.420  16.234  25.210
41185W        W42049   5.070  14.853  25.315
41186W        W42050   5.596  14.979  24.663
41187W        W42051   4.992  14.728  23.137
41188W        W42052   5.906  14.705  22.354
41189W        W42053   3.821  14.845  24.171
41190W        W42054   3.745  15.645  23.464
41191W        W42055   6.688  14.677  23.976
41192W        W42056   4.131  15.225  22.670
41193W        W42057   6.589  14.925  24.406
41194W        W42058   6.777  16.148  22.029
41195W        W42059   4.226  14.962  23.863
41196W        W42060   5.505  15.517  24.735
41197W        W42061   3.673  15.208  22.228
41198W        W42062   4.446  16.673  24.877
41199W        W42063   5.709  16.119  23.986
41200W        W42064   5.579  17.990  22.165
41201W        W42065   3.742  16.608  21.877
41202W        W42066   4.595  17.124  25.115
41203W        W42067   4.099  16.255  24.805
41204W        W42068   5.079  16.432  24.477
41205W        W42069   6.729  14.710  24.858
41206W        W42070   7.236  16.491  24.834
41207W        W42071   6.930  16.429  22.707
41208W        W42072   5.779  16.802  22.697
41209W        W42073   6.533  18.072  21.900
41210W        W42074   5.762  16.167  25.568
41211W        W42075   4.168  17.096  25.411
41212W        W42076   7.339  14.935  25.343
41213W        W42077   6.638  15.723  23.921
41214W        W42078   5.200  18.045  25.447
41215W        W42079   5.054  14.627  22.226
41216W        W42080   6.566  17.219  22.040
41217W        W42081   4.483  15.481  25.086
41218W        W42082   5.005  17.419  24.961
41219W        W42083   6.982  15.125  24.679
41220W        W42084   6.335  18.013  22.382
41221W        W42085   6.485  16.566  24.053
41222W        W42086   4.593  15.214  24.667
41223W        W42087   5.198  16.168  25.345
41224W        W42088   4.626  17.189  22.855
41225W        W42089   6.288  16.792  22.888
41226W        W42090   4.145  15.510  24.684
41227W        W42091   5.489  17.290  23.172
41228W        W42092   6.995  15.968  23.620
41229W        W42093   5.382  14.639  24.997
41230W        W42094   6.302  17.349  24.129
41231W        W42095   6.606  17.794  24.012
41232W        W42096   5.720  17.480  22.176
41233W        W42097   3.762  17.301  25.204
41234W        W42098   4.496  15.602  24.286
41235W        W42099   4.465  14.845  23.414
41236W        W42100   6.172  15.516  23.967
41237W        W42101   5.095  16.762  22.020
41238W        W42102   6.964  16.824  24.045
41239W        W42103   4.247  17.554  25.151
41240W        W42104   6.676  18.208  22.878
41241W        W42105   4.911  15.184  23.362
41242W        W42106   4.493  16.593  23.622
41243W        W42107   4.899  18.208  24.280
41244W        W42108   6.918  18.206  25.203
41245W        W42109   6.015  16.419  24.297
41246W        W42110   4.024  15.904  21.903
41247W        W42111   6.927  17.817  23.154
41248W        W42112   6.600  15.307  22.375
41249W        W42113   4.820  14.618  24.783
41250W        W42114   6.684  17.542  23.540
41251W        W42115   6.654  15.866  23.196
41252W        W42116   4.987  15.706  23.357
41253W        W42117   5.229  16.008  24.786
41254W        W42118   6.201  17.175  24.633
41255W        W42119   4.940  15.588  24.784
41256W        W42120   4.840  17.956  23.475
41257W        W42121   4.224  18.072  25.286
41258W        W42122   4.399  17.691  21.802
41259W        W42123   6.794  17.307  23.081
41260W        W42124   4.485  15.888  24.756
41261W        W42125   6.937  15.650  22.157
41262W        W42126   5.284  16.890  22.878
41263W        W42127   6.084  16.314  24.868
41264W        W42128   5.878  15.905  24.409
41265W        W42129   4.476  16.333  24.459
41266W        W42130   6.674  18.062  24.462
41267W        W42131   6.333  14.956  25.088
41268W        W42132   4.129  15.092  24.986
41269W        W42133   4.486  16.052  24.017
41270W        W42134   5.060  15.734  21.947
41271W        W42135   3.712  17.437  24.713
41272W        W42136   5.188  16.179  24.054
41273W        W42137   5.008  15.150  22.115
41274W        W42138   4.631  16.240  23.204
41275W        W42139   3.893  18.068  24.476
41276W        W42140   6.484  16.297  22.440
41277W        W42141   6.839  15.081  25.191
41278W        W42142   6.348  17.128  23.286
41279W        W42143   3.799  16.217  25.252
41280W        W42144   6.781  14.825  22.456
41281W        W42145   6.245  17.168  22.468
41282W        W42146   5.368  16.112  22.715
41283W        W42147   6.370  14.913  22.119
41284W        W42148   6.358  15.703  24.436
41285W        W42149   3.798  16.177  23.413
41286W        W42150   4.518  17.044  23.350
41287W        W42151   6.163  15.717  23.170
41288W        W42152   5.146  15.293  23.834
41289W        W42153   7.171  17.183  24.371
41290W        W42154   7.048  15.026  24.141
41291W        W42155   3.768  17.890  23.607
41292W        W42156   4.118  17.064  22.974
41293W        W42157   4.203  14.868  25.449
41294W        W42158   5.273  17.527  25.414
41295W        W42159   6.863  16.492  23.676
41296W        W42160   6.122  16.666  22.326
41297W        W42161   5.773  18.245  24.322
41298W        W42162   6.594  16.798  25.409
41299W        W42163   5.414  14.661  22.730
41300W        W42164   5.937  15.418  23.511
41301W        W42165   3.839  17.053  23.961
41302W        W42166   5.015  14.980  22.626
41303W        W42167   4.853  16.600  25.252
41304W        W42168   5.769  15.427  23.033
41305W        W42169   6.004  16.931  24.210
41306W        W42170   4.181  17.620  24.625
41307W        W42171   4.747  17.577  25.381
41308W        W42172   4.606  15.264  22.432
41309W        W42173   6.110  15.446  22.638
41310W        W42174   6.047  17.598  24.886
41311W        W42175   4.897  16.197  23.638
41312W        W42176   4.457  17.977  24.376
41313W        W42177   7.045  17.950  21.925
41314W        W42178   3.985  16.681  25.113
41315W        W42179   5.740  16.791  23.773
41316W        W42180   4.561  16.700  22.975
41317W        W42181   4.923  17.714  24.460
41318W        W42182   5.330  14.926  23.505
41319W        W42183   3.696  17.146  22.493
41320W        W42184   5.446  15.859  22.277
41321W        W42185   4.132  16.579  23.251
41322W        W42186   5.092  15.069  24.787
41323W        W42187   6.901  14.797  21.918
41324W        W42188   7.030  16.560  25.289
41325W        W42189   5.695  17.953  25.311
41326W        W42190   7.289  17.005  24.841
41327W        W42191   6.689  17.657  25.425
41328W        W42192   4.511  18.208  23.919
41329W        W42193   7.226  16.839  23.488
41330W        W42194   5.671  15.900  23.242
41331W        W42195   5.496  14.514  23.217
41332W        W42196   4.756  17.563  23.165
41333W        W42197   4.977  15.416  24.313
41334W        W42198   4.849  14.856  23.766
41335W        W42199   4.002  17.643  22.337
41336W        W42200   5.443  16.778  23.337
41337W        W42201   4.621  17.776  24.866
41338W        W42202   3.363  16.712  22.570
41339W        W42203   3.754  15.211  23.770
41340W        W42204   5.362  17.131  23.680
41341W        W42205   3.692  14.953  22.700
41342W        W42206   6.451  16.206  24.510
41343W        W42207   6.269  15.418  21.970
41344W        W42208   6.792  17.311  23.994
41345W        W42209   5.564  17.609  23.590
41346W        W42210   4.897  17.879  22.774
41347W        W42211   6.063  14.541  21.886
41348W        W42212   4.064  17.957  24.009
41349W        W42213   5.803  15.656  25.355
41350W        W42214   4.071  15.416  25.411
41351W        W42215   3.624  15.867  23.000
41352W        W42216   4.994  16.089  22.369
41353W        W42217   6.208  15.960  25.367
41354W        W42218   4.760  16.486  24.047
41355W        W42219   6.037  14.585  22.871
41356W        W42220   5.382  18.084  23.560
41357W        W42221   6.454  17.606  24.539
41358W        W42222   6.198  17.638  23.701
41359W        W42223   5.955  16.734  23.298
41360W        W42224   5.447  14.981  22.331
41361W        W42225   7.100  14.662  23.199
41362W        W42226   4.864  16.211  21.880
41363W        W42227   6.918  15.405  23.250
41364W        W42228   5.644  16.756  22.114
41365W        W42229   6.780  16.873  24.901
41366W        W42230   6.222  17.642  22.017
41367W        W42231   4.954  15.337  25.230
41368W        W42232   4.861  15.961  24.402
41369W        W42233   6.868  17.386  24.831
41370W        W42234   5.943  15.284  24.920
41371W        W42235   3.713  15.915  24.825
41372W        W42236   5.608  16.312  24.608
41373W        W42237   4.033  17.027  23.487
41374W        W42238   3.979  16.166  23.927
41375W        W42239   6.377  16.702  24.540
41376W        W42240   6.234  17.926  25.239
41377W        W42241   5.997  15.784  24.888
41378W        W42242   6.431  17.930  23.267
41379W        W42243   5.434  17.724  24.495
41380W        W42244   4.829  17.800  23.964
41381W        W42245   6.672  17.104  24.439
41382W        W42246   5.581  17.095  25.480
41383W        W42247   4.372  17.056  23.897
41384W        W42248   6.442  16.611  23.403
41385W        W42249   6.234  18.076  24.205
41386W        W42250   4.369  17.547  24.132
41387W        W42251   5.315  15.689  25.195
41388W        W42252   5.587  17.572  22.717
41389W        W42253   5.042  17.065  25.374
41390W        W42254   5.109  17.386  22.799
41391W        W42255   4.525  15.751  21.842
41392W        W42256   3.826  18.202  28.917
41393W        W42257   4.119  17.154  28.532
41394W        W42258   6.974  16.763  26.269
41395W        W42259   7.080  17.838  28.192
41396W        W42260   4.717  17.960  25.742
41397W        W42261   4.994  16.048  26.591
41398W        W42262   4.387  15.798  26.810
41399W        W42263   5.310  16.423  26.375
41400W        W42264   5.130  17.807  28.175
41401W        W42265   3.943  15.419  28.520
41402W        W42266   4.325  14.665  28.283
41403W        W42267   6.210  15.042  27.217
41404W        W42268   5.860  15.752  25.889
41405W        W42269   6.454  15.319  28.776
41406W        W42270   3.976  15.048  28.127
41407W        W42271   3.937  17.637  28.980
41408W        W42272   5.376  16.762  25.988
41409W        W42273   3.885  15.802  27.552
41410W        W42274   4.786  15.982  28.750
41411W        W42275   7.056  15.599  27.305
41412W        W42276   6.951  16.656  28.092
41413W        W42277   5.271  15.912  27.089
41414W        W42278   5.910  17.460  27.615
41415W        W42279   4.292  16.719  27.844
41416W        W42280   3.499  16.239  27.526
41417W        W42281   4.816  16.371  28.415
41418W        W42282   7.026  16.062  28.643
41419W        W42283   4.500  17.523  27.164
41420W        W42284   5.813  17.286  28.190
41421W        W42285   5.018  15.686  27.491
41422W        W42286   5.073  16.640  27.196
41423W        W42287   6.214  17.534   0.073
41424W        W42288   5.189  16.676  28.891
41425W        W42289   5.342  16.457  28.443
41426W        W42290   3.721  15.691  28.910
41427W        W42291   6.520  17.301  28.720
41428W        W42292   4.174  14.907  26.735
41429W        W42293   4.620  17.134  27.735
41430W        W42294   7.153  17.061  27.112
41431W        W42295   6.315  15.338  27.612
41432W        W42296   6.863  15.359  25.625
41433W        W42297   7.263  16.106  27.916
41434W        W42298   5.195  17.902  27.663
41435W        W42299   7.093  17.322  26.248
41436W        W42300   4.076  18.204  26.266
41437W        W42301   4.493  18.119  26.586
41438W        W42302   4.456  14.950  27.873
41439W        W42303   6.936  15.761  28.102
41440W        W42304   6.355  16.268  26.831
41441W        W42305   6.219  16.127  25.879
41442W        W42306   5.618  17.050  27.685
41443W        W42307   5.314  15.408  27.059
41444W        W42308   6.067  17.713  28.042
41445W        W42309   6.840  16.329  26.689
41446W        W42310   5.923  15.017  26.380
41447W        W42311   4.374  17.791  26.194
41448W        W42312   3.822  15.282  26.735
41449W        W42313   6.347  15.905  27.300
41450W        W42314   3.994  17.505  27.225
41451W        W42315   5.177  17.745  25.878
41452W        W42316   6.704  15.788  25.401
41453W        W42317   3.797  17.560  27.797
41454W        W42318   4.529  17.197  28.225
41455W        W42319   4.939  16.567  26.703
41456W        W42320   4.989  14.994  27.905
41457W        W42321   7.286  14.730  27.411
41458W        W42322   4.420  16.659  25.511
41459W        W42323   4.210  15.501  25.915
41460W        W42324   4.155  17.498  26.723
41461W        W42325   4.983  17.087  26.770
41462W        W42326   6.635  17.754  28.490
41463W        W42327   5.673  15.464  26.276
41464W        W42328   6.894  18.098  27.052
41465W        W42329   6.590  15.905  28.429
41466W        W42330   7.335  17.387  26.767
41467W        W42331   5.869  16.752  28.201
41468W        W42332   3.583  16.237  26.625
41469W        W42333   4.784  16.754  28.033
41470W        W42334   5.921  15.920  26.393
41471W        W42335   5.864  16.419  26.786
41472W        W42336   4.321  15.813  27.855
41473W        W42337   4.247  15.763  28.830
41474W        W42338   4.070  14.676  27.177
41475W        W42339   5.812  15.150  27.527
41476W        W42340   5.436  15.152  28.837
41477W        W42341   5.971  15.236  25.902
41478W        W42342   7.117  17.639  28.686
41479W        W42343   5.971  14.757  28.752
41480W        W42344   6.994  17.098  28.794
41481W        W42345   6.560  15.408  28.280
41482W        W42346   6.172  15.263  26.760
41483W        W42347   6.695  16.299  28.972
41484W        W42348   4.226  17.943  27.011
41485W        W42349   5.206  15.478  26.069
41486W        W42350   4.577  14.800  28.768
41487W        W42351   6.613  15.484  26.614
41488W        W42352   6.955  15.877  26.412
41489W        W42353   4.785  17.955  28.781
41490W        W42354   4.695  14.650  26.146
41491W        W42355   7.068  15.113  27.106
41492W        W42356   7.152  17.512  25.697
41493W        W42357   4.042  16.633  27.327
41494W        W42358   5.947  15.160  25.405
41495W        W42359   7.173  17.510  27.383
41496W        W42360   7.037  14.794  27.866
41497W        W42361   5.690  15.748  28.799
41498W        W42362   5.388  17.078  26.400
41499W        W42363   6.222  16.488   0.090
41500W        W42364   5.852  14.666  27.284
41501W        W42365   4.455  15.600  27.340
41502W        W42366   3.914  16.798  28.218
41503W        W42367   5.818  17.922  27.190
41504W        W42368   6.798  15.438  27.729
41505W        W42369   5.643  17.855  28.277
41506W        W42370   6.899  16.568  25.790
41507W        W42371   5.518  16.059  26.681
41508W        W42372   7.193  14.720  28.358
41509W        W42373   5.357  16.803  28.065
41510W        W42374   5.563  15.657  27.429
41511W        W42375   6.447  15.935  26.375
41512W        W42376   6.706  15.941  25.907
41513W        W42377   6.704  17.596  26.484
41514W        W42378   6.220  17.081  27.380
41515W        W42379   6.167  16.386  26.348
41516W        W42380   5.499  16.358  27.142
41517W        W42381   6.730  16.307  27.224
41518W        W42382   4.149  15.350  27.700
41519W        W42383   6.653  16.416  28.475
41520W        W42384   7.143  17.945  27.658
41521W        W42385   5.006  17.530  27.093
41522W        W42386   6.259  18.098  28.350
41523W        W42387   6.090  15.358  28.078
41524W        W42388   5.385  18.234  28.020
41525W        W42389   6.975  15.093  26.603
41526W        W42390   6.698  16.213  28.010
41527W        W42391   3.868  15.593  28.039
41528W        W42392   6.562  15.432  27.140
41529W        W42393   6.960  15.537  28.564
41530W        W42394   5.824  17.291  27.121
41531W        W42395   5.138  17.832  26.696
41532W        W42396   4.319  15.003  25.976
41533W        W42397   5.458  14.765  27.609
41534W        W42398   4.232  18.131  25.786
41535W        W42399   4.805  16.411  26.209
41536W        W42400   5.521  16.940  28.528
41537W        W42401   5.436  15.101  26.588
41538W        W42402   6.594  14.954  26.906
41539W        W42403   6.444  18.209  27.265
41540W        W42404   5.702  17.919  27.703
41541W        W42405   5.085  16.914  27.647
41542W        W42406   6.908  17.502  27.824
41543W        W42407   4.571  15.038  26.454
41544W        W42408   5.030  17.415  27.591
41545W        W42409   4.544  15.279  25.555
41546W        W42410   5.363  15.900  27.848
41547W        W42411   6.193  14.801  27.664
41548W        W42412   3.776  16.607  27.775
41549W        W42413   5.221  16.286  25.869
41550W        W42414   4.681  14.805  25.650
41551W        W42415   5.249  15.598  26.585
41552W        W42416   6.285  14.980  28.398
41553W        W42417   5.005  16.875  28.463
41554W        W42418   5.718  16.576  28.854
41555W        W42419   6.175  16.570  28.573
41556W        W42420   5.579  14.715   0.096
41557W        W42421   4.851  15.231  27.282
41558W        W42422   4.459  15.303  26.907
41559W        W42423   3.874  17.915  26.630
41560W        W42424   5.377  17.423  28.424
41561W        W42425   4.455  16.819  26.023
41562W        W42426   6.097  16.381  27.264
41563W        W42427   6.259  16.198  27.718
41564W        W42428   5.445  16.566  27.611
41565W        W42429   6.116  16.999  25.471
41566W        W42430   5.736  15.098  27.010
41567W        W42431   7.215  15.427  26.298
41568W        W42432   3.844  17.856  28.520
41569W        W42433   4.092  17.172  27.929
41570W        W42434   3.548  18.129  26.290
41571W        W42435   5.615  15.423  27.905
41572W        W42436   4.730  17.507  25.962
41573W        W42437   7.015  17.845  26.155
41574W        W42438   5.732  16.287  26.065
41575W        W42439   4.741  15.578  26.492
41576W        W42440   5.516  15.342  25.640
41577W        W42441   6.072  17.073  28.584
41578W        W42442   6.490  15.037  26.387
41579W        W42443   3.825  14.865  25.809
41580W        W42444   5.041  17.222  28.076
41581W        W42445   4.792  17.074  27.253
41582W        W42446   4.620  17.134  25.644
41583W        W42447   3.530  17.608  26.334
41584W        W42448   4.321  16.271  28.682
41585W        W42449   5.084  14.713  28.922
41586W        W42450   5.717  15.030  28.277
41587W        W42451   5.025  14.678  26.685
41588W        W42452   6.245  14.800  25.993
41589W        W42453   3.997  14.831  27.662
41590W        W42454   4.002  15.612  27.090
41591W        W42455   6.692  15.003  27.436
41592W        W42456   4.237  15.431  26.446
41593W        W42457   6.569  15.021  27.946
41594W        W42458   7.076  16.116  25.568
41595W        W42459   4.373  15.067  27.362
41596W        W42460   5.491  15.492  28.410
41597W        W42461   3.721  15.388  25.788
41598W        W42462   4.414  16.720  28.407
41599W        W42463   5.732  16.146  27.561
41600W        W42464   5.587  18.079  25.912
41601W        W42465   3.680  16.865  25.499
41602W        W42466   4.625  17.103  28.709
41603W        W42467   4.130  16.338  28.194
41604W        W42468   5.108  16.345  27.982
41605W        W42469   6.684  14.612  28.234
41606W        W42470   7.354  16.410  28.321
41607W        W42471   7.153  16.215  26.069
41608W        W42472   5.749  16.706  26.369
41609W        W42473   6.543  18.127  25.605
41610W        W42474   5.857  16.130   0.105
41611W        W42475   4.250  17.010   0.033
41612W        W42476   7.287  15.139  28.687
41613W        W42477   6.813  15.946  27.593
41614W        W42478   5.283  17.868  28.683
41615W        W42479   5.148  14.687  25.849
41616W        W42480   6.893  17.074  25.816
41617W        W42481   4.437  15.306  28.700
41618W        W42482   4.869  17.504  28.493
41619W        W42483   7.026  15.229  28.149
41620W        W42484   6.489  18.000  26.122
41621W        W42485   6.474  16.657  27.534
41622W        W42486   4.688  15.049  28.326
41623W        W42487   5.335  16.136  28.840
41624W        W42488   4.520  17.247  26.356
41625W        W42489   6.532  16.720  26.569
41626W        W42490   4.353  15.418  28.190
41627W        W42491   5.411  17.404  26.803
41628W        W42492   7.210  16.026  26.996
41629W        W42493   5.477  14.674  28.580
41630W        W42494   6.408  17.459  27.706
41631W        W42495   6.704  17.779  27.427
41632W        W42496   5.135  17.205  25.866
41633W        W42497   3.759  17.119  28.909
41634W        W42498   4.677  15.405  27.769
41635W        W42499   4.652  14.829  27.018
41636W        W42500   5.996  15.728  27.685
41637W        W42501   4.903  16.708  25.767
41638W        W42502   7.004  16.775  27.526
41639W        W42503   4.381  17.579  28.676
41640W        W42504   6.768  18.162  26.535
41641W        W42505   4.953  15.189  26.764
41642W        W42506   4.525  16.638  27.052
41643W        W42507   4.836  18.151  27.924
41644W        W42508   6.896  18.128  28.744
41645W        W42509   5.951  16.616  27.703
41646W        W42510   3.952  15.896  25.675
41647W        W42511   7.142  17.845  26.653
41648W        W42512   6.719  15.459  26.115
41649W        W42513   4.953  14.613  28.441
41650W        W42514   6.867  17.553  26.980
41651W        W42515   6.709  15.887  26.921
41652W        W42516   4.849  15.659  26.987
41653W        W42517   5.198  15.944  28.358
41654W        W42518   6.401  17.363  28.209
41655W        W42519   4.828  15.551  28.436
41656W        W42520   4.748  17.985  27.031
41657W        W42521   4.274  18.082  28.696
41658W        W42522   4.311  17.621  25.672
41659W        W42523   6.879  17.118  26.677
41660W        W42524   4.470  15.924  28.336
41661W        W42525   7.158  15.704  25.877
41662W        W42526   4.923  16.912  26.262
41663W        W42527   5.781  16.182  28.539
41664W        W42528   5.788  15.838  28.148
41665W        W42529   4.573  16.296  27.963
41666W        W42530   6.718  18.240  27.696
41667W        W42531   6.474  14.789  28.865
41668W        W42532   4.074  14.925  28.635
41669W        W42533   4.616  16.056  27.508
41670W        W42534   4.919  15.656  25.637
41671W        W42535   3.735  17.408  28.296
41672W        W42536   5.113  16.199  27.490
41673W        W42537   5.045  15.161  25.716
41674W        W42538   4.500  16.267  26.657
41675W        W42539   3.888  18.039  28.034
41676W        W42540   6.660  16.361  26.196
41677W        W42541   6.806  15.013  28.556
41678W        W42542   6.447  17.242  26.925
41679W        W42543   3.840  16.203  28.873
41680W        W42544   6.982  14.982  26.117
41681W        W42545   6.596  17.125  26.243
41682W        W42546   5.413  15.921  26.206
41683W        W42547   6.434  15.074  25.586
41684W        W42548   6.433  15.764  27.941
41685W        W42549   4.212  16.145  27.153
41686W        W42550   4.459  17.118  26.863
41687W        W42551   6.216  15.769  26.802
41688W        W42552   5.281  15.239  27.553
41689W        W42553   7.188  17.100  27.941
41690W        W42554   7.236  15.201  27.611
41691W        W42555   3.696  17.940  27.116
41692W        W42556   4.059  17.032  26.479
41693W        W42557   4.180  14.778   0.114
41694W        W42558   5.415  17.460   0.222
41695W        W42559   7.170  16.552  27.023
41696W        W42560   6.357  16.629  25.848
41697W        W42561   5.921  18.261  27.998
41698W        W42562   6.571  16.791  28.864
41699W        W42563   5.362  14.583  26.313
41700W        W42564   6.018  15.509  27.208
41701W        W42565   3.782  17.082  27.483
41702W        W42566   5.043  15.019  26.257
41703W        W42567   4.673  16.600  28.867
41704W        W42568   5.730  15.568  26.774
41705W        W42569   6.144  17.055  27.882
41706W        W42570   4.199  17.618  28.177
41707W        W42571   4.779  17.497   0.007
41708W        W42572   4.697  15.357  26.040
41709W        W42573   6.203  15.488  26.284
41710W        W42574   6.109  17.610  28.551
41711W        W42575   4.817  16.191  27.060
41712W        W42576   4.363  18.006  27.865
41713W        W42577   7.040  18.017  25.669
41714W        W42578   3.964  16.674  28.708
41715W        W42579   5.759  16.790  27.246
41716W        W42580   4.495  16.750  26.525
41717W        W42581   4.709  17.599  27.962
41718W        W42582   5.247  14.910  27.103
41719W        W42583   3.640  16.779  26.068
41720W        W42584   5.390  15.833  25.696
41721W        W42585   4.056  16.546  26.817
41722W        W42586   5.198  15.071  28.380
41723W        W42587   6.940  14.828  25.638
41724W        W42588   7.085  16.573  28.730
41725W        W42589   5.802  17.956  28.783
41726W        W42590   7.296  16.922  28.403
41727W        W42591   6.715  17.692   0.000
41728W        W42592   4.417  18.224  27.406
41729W        W42593   7.312  16.849  26.635
41730W        W42594   5.835  15.972  27.086
41731W        W42595   5.571  14.634  26.799
41732W        W42596   4.656  17.626  26.676
41733W        W42597   5.130  15.466  28.028
41734W        W42598   4.948  14.729  27.473
41735W        W42599   3.853  17.829  25.976
41736W        W42600   5.425  16.756  26.811
41737W        W42601   4.599  17.925  28.323
41738W        W42602   4.056  16.541  26.304
41739W        W42603   3.876  15.147  27.243
41740W        W42604   5.322  17.097  27.221
41741W        W42605   3.880  15.110  26.253
41742W        W42606   6.194  16.161  28.231
41743W        W42607   6.343  15.589  25.743
41744W        W42608   6.731  17.226  27.380
41745W        W42609   5.466  17.573  27.365
41746W        W42610   4.882  17.929  26.266
41747W        W42611   6.064  14.670  25.517
41748W        W42612   4.001  17.950  27.513
41749W        W42613   6.141  15.651   0.012
41750W        W42614   4.049  15.290   0.031
41751W        W42615   3.884  15.798  26.617
41752W        W42616   4.906  15.906  26.087
41753W        W42617   6.254  16.098  28.764
41754W        W42618   4.691  16.583  27.540
41755W        W42619   6.095  14.750  26.805
41756W        W42620   5.265  18.007  27.157
41757W        W42621   6.575  17.847  27.995
41758W        W42622   6.247  17.603  27.239
41759W        W42623   6.194  16.781  26.956
41760W        W42624   5.509  15.019  26.039
41761W        W42625   7.272  14.710  26.822
41762W        W42626   4.761  16.205  25.623
41763W        W42627   7.076  15.554  26.803
41764W        W42628   5.806  16.663  25.713
41765W        W42629   6.595  16.919  28.378
41766W        W42630   6.680  17.539  25.933
41767W        W42631   4.921  15.193  28.817
41768W        W42632   4.844  15.874  27.960
41769W        W42633   6.903  17.328  28.320
41770W        W42634   5.918  15.276  28.689
41771W        W42635   3.951  15.931  28.443
41772W        W42636   5.638  16.322  28.038
41773W        W42637   3.948  17.036  26.980
41774W        W42638   4.146  16.254  27.661
41775W        W42639   6.364  16.612  28.046
41776W        W42640   6.326  17.995  28.849
41777W        W42641   6.140  15.681  28.485
41778W        W42642   6.464  17.886  26.860
41779W        W42643   5.452  17.505  27.896
41780W        W42644   4.717  17.824  27.511
41781W        W42645   6.667  17.033  27.868
41782W        W42646   5.676  17.074  28.985
41783W        W42647   4.286  17.082  27.366
41784W        W42648   6.703  16.798  27.068
41785W        W42649   6.223  17.947  27.630
41786W        W42650   4.300  17.541  27.645
41787W        W42651   5.181  15.644  28.825
41788W        W42652   5.456  17.691  26.312
41789W        W42653   5.164  17.195  28.844
41790W        W42654   5.019  17.427  26.373
41791W        W42655   4.434  15.789  25.521
41792W        W42656   3.741  21.857   3.379
41793W        W42657   4.089  20.745   2.948
41794W        W42658   6.801  20.407   0.773
41795W        W42659   7.072  21.600   2.694
41796W        W42660   5.000  21.588   0.322
41797W        W42661   4.844  19.707   1.124
41798W        W42662   4.502  19.504   1.485
41799W        W42663   5.428  20.282   0.734
41800W        W42664   5.109  21.509   3.022
41801W        W42665   3.761  19.020   2.956
41802W        W42666   4.145  18.292   2.767
41803W        W42667   6.153  18.662   1.675
41804W        W42668   5.897  19.458   0.437
41805W        W42669   6.361  19.074   3.214
41806W        W42670   3.867  18.676   2.579
41807W        W42671   3.891  21.384   3.557
41808W        W42672   5.245  20.691   0.364
41809W        W42673   3.778  19.437   2.014
41810W        W42674   4.755  19.515   3.203
41811W        W42675   6.944  19.188   1.760
41812W        W42676   6.973  20.322   2.577
41813W        W42677   5.362  19.775   1.607
41814W        W42678   5.854  21.060   1.955
41815W        W42679   4.274  20.363   2.141
41816W        W42680   3.585  19.909   1.915
41817W        W42681   4.763  19.975   2.850
41818W        W42682   6.986  19.684   3.228
41819W        W42683   4.516  21.201   1.706
41820W        W42684   5.730  20.907   2.794
41821W        W42685   5.092  19.524   1.968
41822W        W42686   5.182  20.269   1.645
41823W        W42687   5.886  21.132   3.288
41824W        W42688   5.340  20.279   3.492
41825W        W42689   5.300  20.077   2.971
41826W        W42690   3.565  19.294   3.381
41827W        W42691   6.413  21.011   3.139
41828W        W42692   4.190  18.469   1.046
41829W        W42693   4.554  20.809   2.185
41830W        W42694   7.039  20.622   1.577
41831W        W42695   6.597  18.822   1.855
41832W        W42696   6.893  19.006   0.173
41833W        W42697   7.173  19.835   2.427
41834W        W42698   5.257  21.457   2.209
41835W        W42699   6.918  20.900   0.733
41836W        W42700   4.358  21.916   0.627
41837W        W42701   4.520  21.808   1.093
41838W        W42702   4.380  18.622   2.419
41839W        W42703   6.777  19.530   2.618
41840W        W42704   6.313  19.839   1.309
41841W        W42705   6.341  19.678   0.309
41842W        W42706   5.432  20.927   2.214
41843W        W42707   5.497  19.272   1.596
41844W        W42708   5.766  21.274   2.429
41845W        W42709   6.825  19.969   1.071
41846W        W42710   5.661  18.716   0.967
41847W        W42711   4.320  21.404   0.723
41848W        W42712   3.897  18.839   1.267
41849W        W42713   6.463  19.328   1.754
41850W        W42714   4.003  21.143   1.645
41851W        W42715   5.305  21.276   0.665
41852W        W42716   6.657  19.442  28.972
41853W        W42717   3.752  21.224   2.268
41854W        W42718   4.508  20.895   2.693
41855W        W42719   4.804  20.230   1.260
41856W        W42720   4.838  18.789   2.219
41857W        W42721   7.191  18.200   1.598
41858W        W42722   4.480  20.055   0.279
41859W        W42723   4.226  19.259   0.512
41860W        W42724   4.065  21.206   1.134
41861W        W42725   5.094  20.651   1.306
41862W        W42726   6.632  21.491   2.950
41863W        W42727   5.561  19.210   0.728
41864W        W42728   6.913  21.608   1.524
41865W        W42729   6.443  19.560   3.018
41866W        W42730   7.168  20.981   1.190
41867W        W42731   5.904  20.379   2.734
41868W        W42732   3.878  19.754   1.073
41869W        W42733   4.641  20.421   2.505
41870W        W42734   5.980  19.584   0.941
41871W        W42735   5.824  20.050   1.093
41872W        W42736   4.080  19.480   2.456
41873W        W42737   4.165  19.420   3.089
41874W        W42738   3.970  18.425   1.568
41875W        W42739   5.718  18.774   1.995
41876W        W42740   5.508  18.813   3.199
41877W        W42741   6.111  18.585   0.690
41878W        W42742   7.120  21.381   3.189
41879W        W42743   5.842  18.366   3.135
41880W        W42744   6.881  20.849   3.325
41881W        W42745   6.462  18.867   2.761
41882W        W42746   6.157  18.821   1.186
41883W        W42747   6.551  19.920   3.393
41884W        W42748   4.238  21.601   1.476
41885W        W42749   5.081  19.356   0.763
41886W        W42750   4.527  18.560   3.424
41887W        W42751   6.572  19.168   0.894
41888W        W42752   7.060  19.533   0.918
41889W        W42753   4.746  21.720   3.355
41890W        W42754   4.790  18.530   0.598
41891W        W42755   7.038  18.692   1.615
41892W        W42756   7.147  20.986   0.253
41893W        W42757   3.901  20.307   1.784
41894W        W42758   6.098  18.788   0.154
41895W        W42759   7.218  21.151   1.694
41896W        W42760   7.011  18.360   2.383
41897W        W42761   5.580  19.647   3.130
41898W        W42762   5.370  20.782   0.850
41899W        W42763   6.139  20.186   3.581
41900W        W42764   5.753  18.339   1.734
41901W        W42765   4.224  19.288   1.857
41902W        W42766   4.115  20.334   2.633
41903W        W42767   5.785  21.423   1.518
41904W        W42768   6.664  19.101   2.290
41905W        W42769   5.627  21.493   2.909
41906W        W42770   6.948  20.368   0.286
41907W        W42771   5.292  20.051   1.175
41908W        W42772   7.159  18.371   2.876
41909W        W42773   5.432  20.545   2.556
41910W        W42774   5.635  19.278   2.091
41911W        W42775   6.470  19.659   0.843
41912W        W42776   6.812  19.460   0.472
41913W        W42777   6.727  21.274   1.018
41914W        W42778   6.446  20.722   1.629
41915W        W42779   6.015  19.986   0.585
41916W        W42780   5.702  20.175   1.600
41917W        W42781   6.680  19.829   1.703
41918W        W42782   4.045  19.006   2.246
41919W        W42783   6.720  19.991   2.881
41920W        W42784   7.169  21.560   2.027
41921W        W42785   4.971  21.117   1.515
41922W        W42786   6.270  21.706   2.661
41923W        W42787   5.828  19.025   2.511
41924W        W42788   5.279  21.785   2.610
41925W        W42789   7.043  18.664   1.112
41926W        W42790   6.709  20.013   2.247
41927W        W42791   3.606  19.218   2.458
41928W        W42792   6.636  18.970   1.367
41929W        W42793   6.866  19.203   3.022
41930W        W42794   5.889  20.888   1.467
41931W        W42795   5.154  21.497   1.223
41932W        W42796   4.255  18.722   0.513
41933W        W42797   5.350  18.357   2.139
41934W        W42798   4.455  21.553   0.243
41935W        W42799   4.611  20.090   0.775
41936W        W42800   5.470  20.562   3.069
41937W        W42801   5.264  19.010   1.185
41938W        W42802   6.577  18.463   1.433
41939W        W42803   6.165  21.700   1.736
41940W        W42804   5.723  21.571   2.013
41941W        W42805   5.128  20.515   2.108
41942W        W42806   6.974  21.206   2.357
41943W        W42807   4.695  18.693   1.060
41944W        W42808   4.966  21.051   2.022
41945W        W42809   4.674  18.772   0.142
41946W        W42810   5.383  19.596   2.402
41947W        W42811   6.121  18.394   2.114
41948W        W42812   3.759  20.300   2.270
41949W        W42813   5.401  19.988   0.301
41950W        W42814   4.746  18.253   0.187
41951W        W42815   5.386  19.533   1.146
41952W        W42816   6.114  18.528   2.611
41953W        W42817   4.985  20.503   2.892
41954W        W42818   5.768  20.168   3.222
41955W        W42819   6.281  20.205   3.054
41956W        W42820   5.552  18.448   3.585
41957W        W42821   4.714  19.188   1.867
41958W        W42822   4.380  18.986   1.455
41959W        W42823   3.990  21.714   0.983
41960W        W42824   5.391  21.077   3.154
41961W        W42825   4.366  20.509   0.538
41962W        W42826   6.197  20.082   1.750
41963W        W42827   6.297  19.689   2.079
41964W        W42828   5.609  20.349   2.089
41965W        W42829   6.105  20.661   0.123
41966W        W42830   5.700  18.782   1.470
41967W        W42831   7.417  19.159   0.865
41968W        W42832   3.912  21.647   2.913
41969W        W42833   4.062  20.801   2.406
41970W        W42834   3.552  21.776   0.675
41971W        W42835   5.358  18.829   2.356
41972W        W42836   4.859  21.081   0.506
41973W        W42837   6.941  21.387   0.563
41974W        W42838   5.566  19.755   0.721
41975W        W42839   4.733  19.195   1.116
41976W        W42840   5.670  19.116   0.095
41977W        W42841   6.002  20.643   3.162
41978W        W42842   6.574  18.646   0.927
41979W        W42843   3.802  18.465   0.355
41980W        W42844   4.985  20.819   2.485
41981W        W42845   4.782  20.599   1.747
41982W        W42846   4.735  20.674   0.224
41983W        W42847   3.786  21.296   0.689
41984W        W42848   4.402  19.907   3.234
41985W        W42849   5.035  18.459   3.601
41986W        W42850   5.596  18.578   2.732
41987W        W42851   4.991  18.394   1.348
41988W        W42852   5.681  18.295   0.644
41989W        W42853   3.983  18.480   2.104
41990W        W42854   3.994  19.326   1.384
41991W        W42855   6.780  18.344   1.915
41992W        W42856   4.277  18.970   0.953
41993W        W42857   6.557  18.595   2.316
41994W        W42858   7.107  19.872   0.229
41995W        W42859   4.399  18.754   1.915
41996W        W42860   5.387  19.122   2.786
41997W        W42861   3.802  18.986   0.388
41998W        W42862   4.485  20.403   2.989
41999W        W42863   5.742  19.809   1.977
42000W        W42864   5.511  21.639   0.305
42001W        W42865   3.959  20.155   0.292
42002W        W42866   4.533  20.892   3.214
42003W        W42867   4.103  19.854   2.816
42004W        W42868   5.086  20.175   2.505
42005W        W42869   6.635  18.346   2.754
42006W        W42870   7.231  20.044   2.921
42007W        W42871   7.196  20.061   0.702
42008W        W42872   5.938  20.478   0.803
42009W        W42873   6.634  21.759   0.188
42010W        W42874   5.641  19.852   3.614
42011W        W42875   4.144  20.903   3.543
42012W        W42876   7.304  18.742   3.232
42013W        W42877   6.833  19.546   2.104
42014W        W42878   5.230  21.696   3.494
42015W        W42879   5.233  18.342   0.382
42016W        W42880   6.653  20.791   0.302
42017W        W42881   4.493  19.038   3.225
42018W        W42882   4.932  21.030   2.949
42019W        W42883   6.946  18.804   2.635
42020W        W42884   6.467  22.001   0.621
42021W        W42885   6.474  20.422   2.048
42022W        W42886   4.568  18.625   2.903
42023W        W42887   5.170  19.786   3.387
42024W        W42888   4.483  20.928   0.841
42025W        W42889   6.360  20.187   0.938
42026W        W42890   4.248  19.028   2.749
42027W        W42891   5.432  21.048   1.289
42028W        W42892   7.156  19.607   1.513
42029W        W42893   5.329  18.333   3.122
42030W        W42894   6.332  20.913   2.122
42031W        W42895   6.673  21.374   1.935
42032W        W42896   5.743  20.874   0.485
42033W        W42897   3.717  20.929   3.260
42034W        W42898   4.515  19.201   2.332
42035W        W42899   4.490  18.473   1.475
42036W        W42900   6.187  18.942   2.148
42037W        W42901   4.960  20.259   0.399
42038W        W42902   6.998  20.419   2.063
42039W        W42903   4.114  21.227   3.124
42040W        W42904   6.782  21.822   1.027
42041W        W42905   4.879  18.857   1.525
42042W        W42906   4.414  20.215   1.643
42043W        W42907   4.820  21.935   2.396
42044W        W42908   6.882  21.840   3.236
42045W        W42909   6.051  20.137   2.259
42046W        W42910   4.179  19.787   0.608
42047W        W42911   7.188  21.486   1.078
42048W        W42912   6.969  18.938   0.679
42049W        W42913   4.828  18.236   3.141
42050W        W42914   6.749  21.114   1.497
42051W        W42915   6.716  19.492   1.300
42052W        W42916   5.015  19.378   1.489
42053W        W42917   5.119  19.584   2.847
42054W        W42918   6.240  20.788   2.700
42055W        W42919   4.836  19.114   2.845
42056W        W42920   4.759  21.644   1.534
42057W        W42921   4.240  21.755   3.298
42058W        W42922   4.347  21.028   0.329
42059W        W42923   6.720  20.706   1.178
42060W        W42924   4.528  19.525   2.735
42061W        W42925   7.331  19.471   0.462
42062W        W42926   4.867  20.567   0.812
42063W        W42927   5.950  19.865   2.860
42064W        W42928   5.896  19.598   2.425
42065W        W42929   4.434  19.956   2.443
42066W        W42930   6.673  21.657   2.352
42067W        W42931   6.334  18.488   3.152
42068W        W42932   4.090  18.649   3.140
42069W        W42933   4.533  19.672   2.005
42070W        W42934   4.883  19.262   0.217
42071W        W42935   3.733  21.086   2.772
42072W        W42936   5.254  19.988   2.070
42073W        W42937   5.223  18.822   0.163
42074W        W42938   4.380  19.929   1.205
42075W        W42939   3.882  21.726   2.408
42076W        W42940   6.704  19.973   0.528
42077W        W42941   6.804  18.700   3.128
42078W        W42942   6.312  21.025   1.209
42079W        W42943   3.827  19.776   3.269
42080W        W42944   6.982  18.415   0.620
42081W        W42945   6.399  20.772   0.765
42082W        W42946   5.080  19.875   0.708
42083W        W42947   6.552  18.635   0.402
42084W        W42948   6.290  19.305   2.560
42085W        W42949   4.053  19.791   1.611
42086W        W42950   4.573  20.825   1.344
42087W        W42951   6.248  19.318   1.279
42088W        W42952   5.196  19.029   1.920
42089W        W42953   7.244  20.764   2.469
42090W        W42954   7.049  18.810   2.119
42091W        W42955   3.733  21.518   1.413
42092W        W42956   3.985  20.791   0.824
42093W        W42957   4.031  18.618   3.681
42094W        W42958   4.962  21.235   3.450
42095W        W42959   7.141  20.117   1.455
42096W        W42960   6.386  20.369   0.456
42097W        W42961   5.776  21.808   2.480
42098W        W42962   6.464  20.543   3.397
42099W        W42963   5.203  18.370   0.883
42100W        W42964   5.983  19.155   1.699
42101W        W42965   3.776  20.789   1.954
42102W        W42966   5.189  18.848   0.686
42103W        W42967   4.864  20.199   3.297
42104W        W42968   5.773  19.186   1.184
42105W        W42969   5.892  20.706   2.333
42106W        W42970   4.172  21.284   2.623
42107W        W42971   4.448  21.328   3.494
42108W        W42972   4.681  19.032   0.629
42109W        W42973   6.068  19.094   0.760
42110W        W42974   6.088  21.272   2.836
42111W        W42975   4.847  19.867   1.633
42112W        W42976   4.395  21.650   2.362
42113W        W42977   7.145  21.609   0.146
42114W        W42978   4.001  20.265   3.136
42115W        W42979   6.005  20.559   1.847
42116W        W42980   4.381  20.455   1.067
42117W        W42981   4.806  21.318   2.504
42118W        W42982   5.297  18.591   1.697
42119W        W42983   3.675  20.527   0.518
42120W        W42984   5.359  19.474   0.313
42121W        W42985   3.975  20.208   1.303
42122W        W42986   5.072  18.636   2.745
42123W        W42987   6.961  18.496   0.100
42124W        W42988   6.905  20.296   3.265
42125W        W42989   5.728  21.664   3.391
42126W        W42990   7.171  20.634   2.954
42127W        W42991   6.682  21.333   3.452
42128W        W42992   4.375  21.878   1.910
42129W        W42993   7.202  20.466   1.090
42130W        W42994   5.848  19.647   1.458
42131W        W42995   5.498  18.326   1.296
42132W        W42996   4.568  21.311   1.194
42133W        W42997   5.034  19.229   2.390
42134W        W42998   4.841  18.405   1.867
42135W        W42999   3.973  21.685   0.391
42136W        W43000   5.592  20.509   1.227
42137W        W43001   4.572  21.412   2.971
42138W        W43002   4.019  20.235   0.799
42139W        W43003   3.890  18.904   1.770
42140W        W43004   5.471  20.697   1.721
42141W        W43005   3.764  18.698   0.806
42142W        W43006   6.353  19.819   2.568
42143W        W43007   6.423  19.140   0.379
42144W        W43008   6.838  20.892   1.962
42145W        W43009   5.399  21.208   1.779
42146W        W43010   4.832  21.516   0.799
42147W        W43011   6.116  18.275   0.251
42148W        W43012   3.937  21.588   1.908
42149W        W43013   5.746  19.233   3.435
42150W        W43014   4.029  19.082   3.450
42151W        W43015   4.316  19.472   0.996
42152W        W43016   4.653  19.581   0.621
42153W        W43017   6.074  19.681   3.373
42154W        W43018   4.755  20.152   2.064
42155W        W43019   6.014  18.334   1.252
42156W        W43020   5.265  21.694   1.700
42157W        W43021   6.493  21.208   2.534
42158W        W43022   6.260  21.201   1.686
42159W        W43023   6.113  20.422   1.339
42160W        W43024   5.667  18.774   0.463
42161W        W43025   7.359  18.232   1.093
42162W        W43026   4.926  19.784   0.209
42163W        W43027   7.115  19.140   1.277
42164W        W43028   5.735  20.371   0.327
42165W        W43029   6.655  20.579   2.926
42166W        W43030   6.252  21.109   0.335
42167W        W43031   4.976  18.796   3.229
42168W        W43032   4.880  19.722   2.392
42169W        W43033   6.868  21.045   2.846
42170W        W43034   5.971  18.847   2.974
42171W        W43035   3.714  19.514   2.846
42172W        W43036   5.593  20.042   2.508
42173W        W43037   4.009  20.716   1.339
42174W        W43038   4.053  19.885   2.117
42175W        W43039   6.422  20.323   2.559
42176W        W43040   6.218  21.552   3.252
42177W        W43041   5.957  19.353   2.949
42178W        W43042   6.438  21.558   1.338
42179W        W43043   5.306  21.192   2.646
42180W        W43044   4.775  21.538   2.030
42181W        W43045   6.713  20.742   2.435
42182W        W43046   5.557  20.746   3.540
42183W        W43047   4.270  20.721   1.773
42184W        W43048   6.615  20.270   1.441
42185W        W43049   6.198  21.408   2.173
42186W        W43050   4.238  21.211   2.120
42187W        W43051   5.240  19.271   3.262
42188W        W43052   5.645  21.443   1.018
42189W        W43053   5.040  20.721   3.361
42190W        W43054   4.967  21.052   1.007
42191W        W43055   4.441  19.559   0.155
42192W        W43056   3.732  21.973   7.073
42193W        W43057   4.224  20.789   6.581
42194W        W43058   6.917  20.477   4.482
42195W        W43059   7.177  21.544   6.323
42196W        W43060   4.642  21.579   3.902
42197W        W43061   4.952  19.646   4.767
42198W        W43062   4.565  19.258   5.017
42199W        W43063   5.591  20.234   4.430
42200W        W43064   5.185  21.552   6.656
42201W        W43065   3.680  18.912   6.700
42202W        W43066   4.308  18.124   6.491
42203W        W43067   6.278  18.600   5.321
42204W        W43068   5.912  19.487   3.864
42205W        W43069   6.360  19.064   6.930
42206W        W43070   3.831  18.646   6.263
42207W        W43071   3.921  21.499   7.142
42208W        W43072   5.147  20.916   3.845
42209W        W43073   3.803  19.351   5.696
42210W        W43074   4.902  19.522   6.803
42211W        W43075   6.982  19.170   5.453
42212W        W43076   6.938  20.402   6.292
42213W        W43077   5.273  19.786   5.154
42214W        W43078   5.986  21.008   5.569
42215W        W43079   4.289  20.433   5.750
42216W        W43080   3.443  19.788   5.656
42217W        W43081   4.830  19.954   6.517
42218W        W43082   7.007  19.706   6.799
42219W        W43083   4.540  21.326   5.320
42220W        W43084   5.714  20.906   6.402
42221W        W43085   4.979  19.338   5.662
42222W        W43086   5.095  20.316   5.399
42223W        W43087   6.001  21.248   7.083
42224W        W43088   5.386  20.283   7.112
42225W        W43089   5.277  20.165   6.618
42226W        W43090   3.565  19.302   7.114
42227W        W43091   6.443  21.126   6.790
42228W        W43092   4.111  18.495   4.753
42229W        W43093   4.786  21.001   5.944
42230W        W43094   7.129  20.702   5.303
42231W        W43095   6.558  18.903   5.650
42232W        W43096   6.978  19.031   3.557
42233W        W43097   7.248  19.684   6.038
42234W        W43098   5.390  21.573   5.816
42235W        W43099   7.050  20.875   4.155
42236W        W43100   4.081  21.856   4.340
42237W        W43101   4.479  21.816   4.706
42238W        W43102   4.291  18.417   6.058
42239W        W43103   6.852  19.549   6.340
42240W        W43104   6.300  19.897   4.830
42241W        W43105   6.318  19.812   3.885
42242W        W43106   5.680  20.767   5.921
42243W        W43107   5.505  19.022   5.090
42244W        W43108   5.981  21.205   6.049
42245W        W43109   6.788  20.045   4.737
42246W        W43110   5.922  18.702   4.406
42247W        W43111   4.411  21.461   4.363
42248W        W43112   3.667  18.794   5.000
42249W        W43113   6.216  19.580   5.239
42250W        W43114   4.035  21.218   5.448
42251W        W43115   5.124  21.437   3.919
42252W        W43116   6.622  19.414   3.496
42253W        W43117   3.889  21.247   5.947
42254W        W43118   4.662  21.049   6.427
42255W        W43119   5.306  20.250   4.886
42256W        W43120   4.774  18.674   5.843
42257W        W43121   7.159  18.377   5.377
42258W        W43122   4.447  20.461   3.495
42259W        W43123   3.985  19.076   4.000
42260W        W43124   4.199  21.163   4.954
42261W        W43125   5.175  20.732   5.055
42262W        W43126   6.708  21.566   6.602
42263W        W43127   5.638  19.326   4.266
42264W        W43128   6.903  21.763   5.181
42265W        W43129   6.539  19.527   6.798
42266W        W43130   7.350  21.094   5.046
42267W        W43131   5.924  20.439   6.284
42268W        W43132   3.319  19.833   4.774
42269W        W43133   4.647  20.509   6.118
42270W        W43134   5.911  19.635   4.569
42271W        W43135   5.830  20.098   4.867
42272W        W43136   4.131  19.443   6.089
42273W        W43137   4.171  19.448   6.794
42274W        W43138   3.980  18.435   5.253
42275W        W43139   5.759  18.776   5.473
42276W        W43140   5.450  18.811   6.762
42277W        W43141   5.754  18.964   3.916
42278W        W43142   7.142  21.432   6.857
42279W        W43143   5.749  18.394   6.734
42280W        W43144   6.899  20.943   7.019
42281W        W43145   6.434  18.846   6.478
42282W        W43146   6.334  18.819   4.844
42283W        W43147   6.644  19.967   7.078
42284W        W43148   4.202  21.669   5.155
42285W        W43149   5.219  19.061   4.202
42286W        W43150   4.550  18.588   6.741
42287W        W43151   6.635  19.120   4.485
42288W        W43152   6.900  19.670   4.333
42289W        W43153   4.797  21.918   6.888
42290W        W43154   4.509  18.379   4.423
42291W        W43155   6.826  18.730   5.245
42292W        W43156   7.129  21.111   3.688
42293W        W43157   3.834  20.270   5.567
42294W        W43158   5.974  18.755   3.472
42295W        W43159   7.166  21.192   5.534
42296W        W43160   7.020  18.336   6.085
42297W        W43161   5.728  19.699   6.655
42298W        W43162   5.380  20.675   4.584
42299W        W43163   5.864  20.420   7.205
42300W        W43164   5.859  18.291   5.355
42301W        W43165   4.283  19.203   5.527
42302W        W43166   4.089  20.387   6.220
42303W        W43167   5.860  21.500   5.100
42304W        W43168   6.815  19.506   5.808
42305W        W43169   5.693  21.719   6.588
42306W        W43170   6.693  20.249   3.758
42307W        W43171   5.441  19.797   4.659
42308W        W43172   7.129  18.419   6.593
42309W        W43173   5.424  20.493   6.274
42310W        W43174   5.461  19.382   5.472
42311W        W43175   6.386  19.634   4.387
42312W        W43176   6.568  19.350   4.013
42313W        W43177   6.720  21.368   4.500
42314W        W43178   6.461  20.827   5.350
42315W        W43179   6.082  20.071   4.354
42316W        W43180   5.578  20.164   5.318
42317W        W43181   6.591  20.112   5.212
42318W        W43182   4.120  18.942   5.956
42319W        W43183   6.613  19.978   6.529
42320W        W43184   7.194  21.644   5.792
42321W        W43185   5.059  21.228   5.175
42322W        W43186   6.247  21.750   6.392
42323W        W43187   6.092  19.039   6.135
42324W        W43188   5.335  21.873   6.239
42325W        W43189   6.818  18.651   4.728
42326W        W43190   6.805  19.977   6.025
42327W        W43191   3.694  19.143   6.174
42328W        W43192   6.521  19.157   5.203
42329W        W43193   6.855  19.146   6.671
42330W        W43194   5.995  20.981   5.059
42331W        W43195   5.182  21.550   4.810
42332W        W43196   4.058  18.603   4.202
42333W        W43197   5.461  18.417   5.690
42334W        W43198   4.167  21.747   3.826
42335W        W43199   5.085  20.107   4.430
42336W        W43200   5.441  20.661   6.767
42337W        W43201   5.427  18.766   4.620
42338W        W43202   6.621  18.313   5.047
42339W        W43203   6.300  21.824   5.399
42340W        W43204   5.865  21.508   5.615
42341W        W43205   5.106  20.583   5.881
42342W        W43206   6.911  21.248   5.995
42343W        W43207   4.557  18.772   4.770
42344W        W43208   5.287  21.078   5.793
42345W        W43209   4.425  18.956   3.754
42346W        W43210   5.368  19.505   5.982
42347W        W43211   6.141  18.283   5.819
42348W        W43212   3.624  20.187   6.052
42349W        W43213   5.222  19.990   3.908
42350W        W43214   4.467  18.466   3.922
42351W        W43215   5.337  19.294   4.689
42352W        W43216   6.074  18.510   6.310
42353W        W43217   4.955  20.577   6.530
42354W        W43218   5.768  20.218   6.733
42355W        W43219   6.261  20.361   6.685
42356W        W43220   5.481  18.471   7.193
42357W        W43221   4.717  18.929   5.381
42358W        W43222   4.195  18.884   5.113
42359W        W43223   3.892  21.583   4.756
42360W        W43224   5.573  21.207   6.790
42361W        W43225   4.821  20.666   4.215
42362W        W43226   6.080  20.054   5.342
42363W        W43227   6.441  19.863   5.664
42364W        W43228   5.521  20.275   5.809
42365W        W43229   6.059  20.707   3.672
42366W        W43230   5.851  18.650   4.953
42367W        W43231   7.124  18.935   4.455
42368W        W43232   3.959  21.704   6.668
42369W        W43233   4.279  20.885   6.068
42370W        W43234   3.579  21.842   4.422
42371W        W43235   5.655  19.093   5.865
42372W        W43236   4.794  21.168   4.186
42373W        W43237   7.146  21.390   4.192
42374W        W43238   5.645  19.821   4.146
42375W        W43239   4.859  19.153   4.584
42376W        W43240   5.303  18.919   3.662
42377W        W43241   5.952  20.777   6.840
42378W        W43242   6.449  18.605   4.383
42379W        W43243   3.705  18.294   3.967
42380W        W43244   5.198  20.948   6.269
42381W        W43245   4.937  20.846   5.485
42382W        W43246   4.646  20.907   3.734
42383W        W43247   4.013  21.162   4.460
42384W        W43248   4.463  19.863   6.853
42385W        W43249   5.055  18.505   6.914
42386W        W43250   5.584  18.711   6.263
42387W        W43251   4.865  18.341   4.831
42388W        W43252   6.188  18.660   3.946
42389W        W43253   3.853  18.423   5.789
42390W        W43254   3.851  19.267   5.183
42391W        W43255   6.704  18.350   5.607
42392W        W43256   3.989  18.965   4.596
42393W        W43257   6.524  18.573   6.037
42394W        W43258   6.826  19.757   3.831
42395W        W43259   4.318  18.663   5.587
42396W        W43260   5.599  19.231   6.375
42397W        W43261   3.573  18.781   3.946
42398W        W43262   4.476  20.330   6.586
42399W        W43263   5.715  19.794   5.656
42400W        W43264   5.524  21.771   3.912
42401W        W43265   3.688  20.199   3.543
42402W        W43266   4.623  20.908   6.914
42403W        W43267   4.055  19.828   6.433
42404W        W43268   5.100  20.127   6.117
42405W        W43269   6.608  18.317   6.471
42406W        W43270   7.203  19.991   6.438
42407W        W43271   7.092  20.161   4.099
42408W        W43272   5.942  20.566   4.605
42409W        W43273   6.532  21.814   3.612
42410W        W43274   5.774  19.882   7.167
42411W        W43275   4.123  20.925   7.088
42412W        W43276   7.246  18.770   7.037
42413W        W43277   6.732  19.617   5.311
42414W        W43278   5.165  21.728   7.194
42415W        W43279   4.911  18.259   4.076
42416W        W43280   6.661  20.767   3.815
42417W        W43281   4.572  19.110   6.708
42418W        W43282   5.085  21.042   6.749
42419W        W43283   6.911  18.777   6.307
42420W        W43284   6.767  21.751   4.112
42421W        W43285   6.415  20.382   5.616
42422W        W43286   4.527  18.821   6.280
42423W        W43287   5.306  19.800   6.967
42424W        W43288   4.496  20.958   4.559
42425W        W43289   6.421  20.389   4.606
42426W        W43290   4.113  19.065   6.459
42427W        W43291   5.490  21.114   4.860
42428W        W43292   7.150  19.716   5.029
42429W        W43293   5.290  18.313   6.490
42430W        W43294   6.447  21.130   5.780
42431W        W43295   6.718  21.536   5.599
42432W        W43296   5.492  21.260   3.620
42433W        W43297   3.864  21.146   6.697
42434W        W43298   4.590  19.213   5.969
42435W        W43299   4.483  18.443   5.158
42436W        W43300   6.298  19.350   5.705
42437W        W43301   4.908  20.425   3.761
42438W        W43302   6.919  20.308   5.600
42439W        W43303   4.320  21.343   6.848
42440W        W43304   6.841  21.875   4.637
42441W        W43305   5.032  18.818   4.969
42442W        W43306   4.604  20.471   5.326
42443W        W43307   4.941  21.860   5.882
42444W        W43308   6.860  21.874   6.965
42445W        W43309   6.032  20.135   5.880
42446W        W43310   3.884  19.512   3.719
42447W        W43311   7.136  21.489   4.807
42448W        W43312   6.722  18.850   4.022
42449W        W43313   4.769  18.366   6.280
42450W        W43314   6.824  21.222   5.153
42451W        W43315   6.713  19.547   4.800
42452W        W43316   5.066  19.299   5.147
42453W        W43317   5.256  19.670   6.451
42454W        W43318   6.222  20.842   6.417
42455W        W43319   4.947  19.267   6.362
42456W        W43320   4.864  21.721   5.205
42457W        W43321   4.306  21.850   7.038
42458W        W43322   4.239  21.225   3.950
42459W        W43323   6.987  20.972   4.685
42460W        W43324   4.515  19.547   6.417
42461W        W43325   7.065  19.247   4.052
42462W        W43326   5.292  20.480   4.096
42463W        W43327   6.095  19.959   6.372
42464W        W43328   5.890  19.552   6.083
42465W        W43329   4.467  20.011   6.155
42466W        W43330   6.729  21.730   6.110
42467W        W43331   6.247  18.494   6.809
42468W        W43332   4.038  18.495   6.736
42469W        W43333   4.458  19.662   5.741
42470W        W43334   4.858  19.167   3.581
42471W        W43335   3.522  21.269   6.319
42472W        W43336   5.193  19.869   5.662
42473W        W43337   4.871  18.785   3.941
42474W        W43338   4.824  20.105   5.010
42475W        W43339   3.966  21.860   6.182
42476W        W43340   6.605  20.077   4.242
42477W        W43341   6.754  18.667   6.840
42478W        W43342   6.475  20.998   4.845
42479W        W43343   3.791  19.798   6.943
42480W        W43344   6.846  18.327   4.046
42481W        W43345   6.570  20.842   4.346
42482W        W43346   5.168  19.584   4.263
42483W        W43347   6.525  18.727   3.564
42484W        W43348   6.607  19.147   6.107
42485W        W43349   3.878  19.767   5.385
42486W        W43350   4.665  20.904   5.050
42487W        W43351   6.261  19.332   4.786
42488W        W43352   5.229  18.891   5.504
42489W        W43353   7.182  20.834   6.150
42490W        W43354   7.038  18.749   5.777
42491W        W43355   3.677  21.658   5.250
42492W        W43356   4.355  20.537   4.861
42493W        W43357   4.165  18.515   7.249
42494W        W43358   5.260  21.234   7.189
42495W        W43359   7.106  20.210   5.127
42496W        W43360   6.296  20.441   4.051
42497W        W43361   5.818  21.761   6.079
42498W        W43362   6.552  20.477   7.109
42499W        W43363   5.254  18.248   4.481
42500W        W43364   6.015  19.101   5.182
42501W        W43365   3.864  20.768   5.735
42502W        W43366   4.948  18.665   4.433
42503W        W43367   4.880  20.283   6.945
42504W        W43368   5.821  19.112   4.695
42505W        W43369   6.188  20.709   5.928
42506W        W43370   4.213  21.349   6.337
42507W        W43371   4.808  21.403   6.989
42508W        W43372   4.479  18.883   4.274
42509W        W43373   6.144  19.163   4.261
42510W        W43374   6.017  21.313   6.557
42511W        W43375   4.792  19.715   5.349
42512W        W43376   4.479  21.764   6.094
42513W        W43377   7.056  21.621   3.697
42514W        W43378   3.944  20.259   6.702
42515W        W43379   5.920  20.507   5.517
42516W        W43380   4.866  20.528   4.709
42517W        W43381   5.007  21.427   6.165
42518W        W43382   5.403  18.514   5.171
42519W        W43383   3.856  20.774   4.826
42520W        W43384   5.361  19.434   3.788
42521W        W43385   4.315  20.047   5.408
42522W        W43386   5.010  18.776   6.482
42523W        W43387   6.997  18.507   3.586
42524W        W43388   6.952  20.266   6.800
42525W        W43389   5.659  21.644   7.094
42526W        W43390   7.192  20.700   6.663
42527W        W43391   6.707  21.406   7.129
42528W        W43392   4.502  21.804   5.574
42529W        W43393   7.300  20.596   4.841
42530W        W43394   5.717  19.521   5.033
42531W        W43395   5.609  18.116   4.929
42532W        W43396   4.681  21.378   4.826
42533W        W43397   5.175  18.975   6.014
42534W        W43398   4.948  18.457   5.389
42535W        W43399   3.789  21.490   4.085
42536W        W43400   5.673  20.586   5.039
42537W        W43401   4.662  21.558   6.527
42538W        W43402   3.935  20.253   5.059
42539W        W43403   3.857  18.865   5.512
42540W        W43404   5.439  20.681   5.486
42541W        W43405   3.655  18.529   4.495
42542W        W43406   6.402  19.636   6.132
42543W        W43407   6.227  19.127   3.712
42544W        W43408   6.856  20.813   5.704
42545W        W43409   5.547  21.167   5.363
42546W        W43410   4.890  21.639   4.388
42547W        W43411   6.043  18.266   3.615
42548W        W43412   3.996  21.702   5.666
42549W        W43413   5.914  19.346   7.022
42550W        W43414   4.123  18.954   6.969
42551W        W43415   3.646  19.406   4.725
42552W        W43416   4.760  19.272   4.079
42553W        W43417   6.178  19.879   6.863
42554W        W43418   4.736  20.129   5.727
42555W        W43419   6.138  18.216   4.928
42556W        W43420   5.369  21.647   5.306
42557W        W43421   6.455  21.284   6.267
42558W        W43422   6.311  21.320   5.320
42559W        W43423   6.202  20.473   5.067
42560W        W43424   5.345  18.582   4.068
42561W        W43425   7.120  18.253   4.886
42562W        W43426   4.847  19.657   3.750
42563W        W43427   6.946  19.115   4.926
42564W        W43428   5.728  20.289   3.889
42565W        W43429   6.664  20.670   6.643
42566W        W43430   6.706  21.253   3.972
42567W        W43431   5.007  19.022   6.965
42568W        W43432   4.871  19.676   6.051
42569W        W43433   6.904  21.108   6.506
42570W        W43434   5.939  18.910   6.629
42571W        W43435   3.701  19.428   6.595
42572W        W43436   5.603  19.984   6.222
42573W        W43437   4.100  20.692   5.281
42574W        W43438   4.040  19.927   5.882
42575W        W43439   6.431  20.326   6.177
42576W        W43440   6.297  21.665   6.904
42577W        W43441   6.127  19.391   6.526
42578W        W43442   6.494  21.595   4.927
42579W        W43443   5.519  21.359   6.269
42580W        W43444   4.919  21.410   5.642
42581W        W43445   6.651  20.814   6.156
42582W        W43446   5.618  20.866   7.233
42583W        W43447   4.440  20.898   5.578
42584W        W43448   6.749  20.565   4.975
42585W        W43449   6.285  21.620   5.883
42586W        W43450   4.394  21.345   5.824
42587W        W43451   5.411  19.322   6.842
42588W        W43452   5.322  21.324   4.374
42589W        W43453   5.109  20.722   7.172
42590W        W43454   5.008  21.031   4.658
42591W        W43455   4.393  19.443   3.564
42592W        W43456   3.759  21.915  10.766
42593W        W43457   4.251  21.064  10.262
42594W        W43458   6.898  20.527   7.958
42595W        W43459   7.058  21.586  10.038
42596W        W43460   4.673  21.661   7.405
42597W        W43461   5.169  19.761   8.325
42598W        W43462   4.644  19.433   8.947
42599W        W43463   5.648  20.370   8.061
42600W        W43464   5.181  21.503  10.270
42601W        W43465   3.681  18.915  10.225
42602W        W43466   4.313  18.105  10.132
42603W        W43467   6.222  18.674   9.022
42604W        W43468   6.063  19.660   7.736
42605W        W43469   6.402  19.123  10.652
42606W        W43470   3.709  18.465   9.895
42607W        W43471   3.934  21.419  10.806
42608W        W43472   5.273  20.964   7.636
42609W        W43473   3.731  19.477   9.363
42610W        W43474   5.068  19.426  10.339
42611W        W43475   6.975  19.162   9.205
42612W        W43476   6.964  20.336   9.879
42613W        W43477   5.538  19.415   9.051
42614W        W43478   5.876  21.147   9.275
42615W        W43479   4.191  20.505   9.555
42616W        W43480   3.527  19.971   9.472
42617W        W43481   4.942  19.913  10.212
42618W        W43482   6.950  19.728  10.562
42619W        W43483   4.564  21.295   9.009
42620W        W43484   5.758  20.971  10.232
42621W        W43485   5.051  19.481   9.255
42622W        W43486   5.217  20.359   8.956
42623W        W43487   5.987  21.170  10.702
42624W        W43488   5.403  20.362  10.868
42625W        W43489   5.419  20.117  10.234
42626W        W43490   3.257  19.318  10.617
42627W        W43491   6.460  20.994  10.529
42628W        W43492   4.034  18.430   8.415
42629W        W43493   4.732  21.160   9.480
42630W        W43494   6.972  20.713   8.869
42631W        W43495   6.691  18.742   9.267
42632W        W43496   6.824  19.032   7.216
42633W        W43497   7.271  19.770   9.790
42634W        W43498   5.412  21.644   9.444
42635W        W43499   6.988  21.039   7.902
42636W        W43500   3.984  21.788   8.017
42637W        W43501   4.437  21.820   8.424
42638W        W43502   4.294  18.418   9.701
42639W        W43503   6.830  19.559   9.986
42640W        W43504   6.293  19.995   8.557
42641W        W43505   6.232  20.111   7.338
42642W        W43506   5.597  20.845   9.560
42643W        W43507   5.504  19.057   8.691
42644W        W43508   5.984  21.130   9.785
42645W        W43509   6.789  20.038   8.088
42646W        W43510   5.926  18.727   8.115
42647W        W43511   4.279  21.401   8.172
42648W        W43512   3.650  18.807   8.533
42649W        W43513   6.453  19.557   8.943
42650W        W43514   3.998  21.247   9.122
42651W        W43515   5.106  21.446   7.645
42652W        W43516   6.320  19.588   7.271
42653W        W43517   3.843  21.362   9.596
42654W        W43518   4.704  21.038   9.985
42655W        W43519   5.286  20.244   8.456
42656W        W43520   4.773  18.564   9.496
42657W        W43521   7.152  18.400   9.166
42658W        W43522   4.607  20.593   7.307
42659W        W43523   4.005  18.893   7.557
42660W        W43524   4.177  21.213   8.645
42661W        W43525   5.121  20.773   8.640
42662W        W43526   6.632  21.471  10.303
42663W        W43527   5.675  19.349   7.989
42664W        W43528   6.905  21.662   8.962
42665W        W43529   6.480  19.594  10.413
42666W        W43530   7.297  21.049   8.624
42667W        W43531   5.881  20.452  10.119
42668W        W43532   3.218  19.943   8.602
42669W        W43533   4.683  20.672   9.592
42670W        W43534   6.013  19.641   8.274
42671W        W43535   6.051  20.644   8.199
42672W        W43536   4.083  19.298   9.718
42673W        W43537   4.137  19.287  10.224
42674W        W43538   4.008  18.253   8.926
42675W        W43539   5.738  18.844   9.120
42676W        W43540   5.580  18.701  10.174
42677W        W43541   5.787  18.996   7.637
42678W        W43542   7.080  21.416  10.549
42679W        W43543   5.971  18.392  10.391
42680W        W43544   6.910  20.801  10.679
42681W        W43545   6.510  18.905  10.160
42682W        W43546   6.319  18.843   8.500
42683W        W43547   6.581  20.032  10.849
42684W        W43548   4.240  21.675   8.906
42685W        W43549   5.280  19.074   7.728
42686W        W43550   4.458  18.509  10.418
42687W        W43551   6.624  19.104   8.132
42688W        W43552   6.968  19.512   8.087
42689W        W43553   4.787  21.736  10.628
42690W        W43554   4.429  18.085   7.893
42691W        W43555   7.046  18.801   8.868
42692W        W43556   7.126  21.235   7.412
42693W        W43557   3.791  20.374   9.233
42694W        W43558   5.925  18.815   7.136
42695W        W43559   7.138  21.173   9.109
42696W        W43560   7.114  18.360   9.729
42697W        W43561   5.669  19.717  10.511
42698W        W43562   5.640  20.910   7.995
42699W        W43563   6.106  20.260  10.989
42700W        W43564   5.792  18.329   9.050
42701W        W43565   4.135  19.144   9.210
42702W        W43566   3.908  20.779   9.959
42703W        W43567   6.005  21.654   8.725
42704W        W43568   6.763  19.094   9.698
42705W        W43569   5.705  21.553  10.244
42706W        W43570   6.847  20.270   7.485
42707W        W43571   5.787  20.072   8.470
42708W        W43572   7.238  18.368  10.234
42709W        W43573   5.421  20.509   9.897
42710W        W43574   5.920  19.308   9.365
42711W        W43575   6.469  19.637   8.082
42712W        W43576   6.612  19.364   7.676
42713W        W43577   6.630  21.309   8.190
42714W        W43578   6.466  20.795   8.980
42715W        W43579   6.123  20.103   8.061
42716W        W43580   5.723  20.291   8.920
42717W        W43581   6.684  19.957   9.133
42718W        W43582   3.899  18.832   9.572
42719W        W43583   6.718  20.027  10.213
42720W        W43584   7.154  21.578   9.427
42721W        W43585   5.061  21.254   8.856
42722W        W43586   6.285  21.734  10.006
42723W        W43587   6.116  18.866   9.514
42724W        W43588   5.378  21.830   9.920
42725W        W43589   6.847  18.736   8.406
42726W        W43590   6.665  20.023   9.631
42727W        W43591   3.535  19.170   9.751
42728W        W43592   6.600  19.049   8.857
42729W        W43593   6.865  19.228  10.382
42730W        W43594   5.917  20.973   8.766
42731W        W43595   5.194  21.557   8.463
42732W        W43596   4.099  18.485   7.874
42733W        W43597   5.318  18.524   9.330
42734W        W43598   4.169  21.797   7.531
42735W        W43599   5.203  20.148   7.927
42736W        W43600   5.473  20.591  10.406
42737W        W43601   5.431  18.698   8.309
42738W        W43602   6.648  18.490   8.806
42739W        W43603   6.404  21.785   9.082
42740W        W43604   5.876  21.659   9.221
42741W        W43605   5.177  20.503   9.445
42742W        W43606   6.972  21.197   9.704
42743W        W43607   4.586  18.481   8.192
42744W        W43608   5.276  21.175   9.321
42745W        W43609   4.574  18.863   7.199
42746W        W43610   5.452  19.537   9.554
42747W        W43611   6.165  18.368   9.460
42748W        W43612   3.668  20.398   9.727
42749W        W43613   5.352  19.916   7.474
42750W        W43614   4.660  18.360   7.193
42751W        W43615   5.580  19.525   8.493
42752W        W43616   6.127  18.595   9.953
42753W        W43617   4.916  20.540  10.036
42754W        W43618   5.794  20.214  10.578
42755W        W43619   6.289  20.199  10.444
42756W        W43620   5.523  18.418  10.634
42757W        W43621   4.640  18.936   9.120
42758W        W43622   4.121  18.850   8.756
42759W        W43623   3.906  21.703   8.515
42760W        W43624   5.475  21.221  10.592
42761W        W43625   4.846  20.726   7.765
42762W        W43626   6.188  20.113   9.075
42763W        W43627   6.296  19.690   9.416
42764W        W43628   5.663  20.363   9.408
42765W        W43629   6.213  20.818   7.293
42766W        W43630   5.853  18.678   8.642
42767W        W43631   7.108  18.996   8.044
42768W        W43632   3.905  21.666  10.331
42769W        W43633   4.272  21.018   9.704
42770W        W43634   3.489  21.660   8.034
42771W        W43635   5.463  19.023   9.491
42772W        W43636   4.646  21.274   7.829
42773W        W43637   7.033  21.573   7.941
42774W        W43638   5.809  20.107   7.634
42775W        W43639   5.253  19.199   8.250
42776W        W43640   5.452  18.996   7.247
42777W        W43641   6.057  20.661  10.557
42778W        W43642   6.451  18.588   8.086
42779W        W43643   3.677  18.316   7.633
42780W        W43644   5.122  20.918   9.731
42781W        W43645   4.936  20.827   9.135
42782W        W43646   4.807  21.083   7.384
42783W        W43647   3.771  21.268   8.274
42784W        W43648   4.370  19.727   9.860
42785W        W43649   4.941  18.589  10.648
42786W        W43650   5.698  18.577   9.666
42787W        W43651   5.029  18.367   8.491
42788W        W43652   6.145  18.638   7.657
42789W        W43653   3.852  18.337   9.426
42790W        W43654   3.698  19.199   8.911
42791W        W43655   6.708  18.242   9.364
42792W        W43656   3.851  18.889   8.069
42793W        W43657   6.597  18.574   9.741
42794W        W43658   6.863  19.548   7.260
42795W        W43659   4.228  18.633   9.215
42796W        W43660   5.798  19.100   9.874
42797W        W43661   3.480  18.793   7.710
42798W        W43662   4.397  20.614  10.039
42799W        W43663   5.778  19.841   9.275
42800W        W43664   5.507  21.808   7.588
42801W        W43665   3.697  20.668   6.924
42802W        W43666   4.706  20.817  10.454
42803W        W43667   4.082  20.192   9.949
42804W        W43668   5.082  20.118   9.771
42805W        W43669   6.680  18.384  10.210
42806W        W43670   7.236  20.056  10.216
42807W        W43671   7.062  19.815   7.673
42808W        W43672   5.953  20.604   7.691
42809W        W43673   6.579  21.813   7.405
42810W        W43674   5.679  19.933  11.000
42811W        W43675   4.251  20.839  10.730
42812W        W43676   7.356  18.612  10.688
42813W        W43677   6.811  19.562   9.463
42814W        W43678   5.255  21.651  10.798
42815W        W43679   4.946  18.244   7.678
42816W        W43680   6.712  20.801   7.509
42817W        W43681   4.573  19.018  10.369
42818W        W43682   5.174  20.979  10.236
42819W        W43683   6.992  18.776  10.021
42820W        W43684   6.543  21.776   7.955
42821W        W43685   6.455  20.447   9.393
42822W        W43686   4.693  18.705   9.985
42823W        W43687   5.222  19.906  10.667
42824W        W43688   4.724  20.815   8.273
42825W        W43689   6.501  20.426   8.300
42826W        W43690   4.171  18.803  10.032
42827W        W43691   5.466  21.109   8.457
42828W        W43692   6.995  19.593   8.946
42829W        W43693   5.171  18.384  10.245
42830W        W43694   6.345  20.968   9.445
42831W        W43695   6.688  21.333   9.286
42832W        W43696   5.649  21.308   7.518
42833W        W43697   3.794  20.981  10.503
42834W        W43698   4.418  18.921   9.595
42835W        W43699   4.465  18.459   8.752
42836W        W43700   6.439  19.203   9.311
42837W        W43701   4.997  20.297   7.464
42838W        W43702   6.957  20.363   9.287
42839W        W43703   4.448  21.322  10.738
42840W        W43704   6.908  21.922   8.315
42841W        W43705   5.007  18.877   8.604
42842W        W43706   4.749  20.342   9.200
42843W        W43707   4.998  21.969   9.596
42844W        W43708   6.820  21.872  10.568
42845W        W43709   6.077  20.106   9.610
42846W        W43710   4.048  19.354   7.287
42847W        W43711   7.037  21.454   8.459
42848W        W43712   6.666  18.848   7.675
42849W        W43713   4.801  18.201   9.912
42850W        W43714   6.743  21.186   8.779
42851W        W43715   6.732  19.742   8.527
42852W        W43716   5.127  19.417   8.736
42853W        W43717   5.458  19.639  10.059
42854W        W43718   6.254  20.814  10.100
42855W        W43719   5.264  19.196   9.913
42856W        W43720   4.774  21.712   8.805
42857W        W43721   4.283  21.805  10.669
42858W        W43722   4.325  21.296   7.388
42859W        W43723   6.859  20.877   8.377
42860W        W43724   4.616  19.253   9.933
42861W        W43725   7.114  19.284   7.618
42862W        W43726   5.217  20.654   8.131
42863W        W43727   5.925  19.955  10.143
42864W        W43728   5.905  19.620   9.758
42865W        W43729   4.571  20.202   9.765
42866W        W43730   6.702  21.672   9.670
42867W        W43731   6.391  18.604  10.604
42868W        W43732   3.952  18.442  10.348
42869W        W43733   4.538  19.407   9.452
42870W        W43734   5.143  19.416   7.298
42871W        W43735   3.707  21.237  10.067
42872W        W43736   5.275  19.979   9.315
42873W        W43737   5.041  18.688   7.410
42874W        W43738   4.934  19.903   8.918
42875W        W43739   3.852  21.844   9.840
42876W        W43740   6.554  19.875   7.640
42877W        W43741   6.888  18.733  10.521
42878W        W43742   6.365  20.939   8.496
42879W        W43743   4.049  19.796  10.288
42880W        W43744   6.944  18.510   7.945
42881W        W43745   6.489  20.853   7.983
42882W        W43746   5.615  19.854   8.036
42883W        W43747   6.432  18.662   7.247
42884W        W43748   6.292  19.271   9.811
42885W        W43749   3.768  19.875   9.014
42886W        W43750   4.590  20.856   8.762
42887W        W43751   6.375  19.354   8.494
42888W        W43752   5.164  18.991   9.083
42889W        W43753   7.223  20.761   9.765
42890W        W43754   7.162  18.812   9.518
42891W        W43755   3.682  21.631   8.976
42892W        W43756   4.185  20.706   8.485
42893W        W43757   4.092  18.492  10.877
42894W        W43758   5.255  21.216  11.066
42895W        W43759   7.123  20.109   8.855
42896W        W43760   6.426  20.387   7.755
42897W        W43761   5.838  21.637   9.749
42898W        W43762   6.498  20.534  10.795
42899W        W43763   5.299  18.231   8.070
42900W        W43764   6.080  19.164   8.890
42901W        W43765   3.834  20.853   9.439
42902W        W43766   5.024  18.672   7.976
42903W        W43767   5.011  20.360  10.504
42904W        W43768   5.911  19.147   8.402
42905W        W43769   6.045  20.620   9.671
42906W        W43770   4.189  21.465   9.951
42907W        W43771   4.945  21.254  10.636
42908W        W43772   4.551  18.569   7.649
42909W        W43773   6.167  19.189   7.949
42910W        W43774   6.150  21.305  10.245
42911W        W43775   5.439  19.878   8.828
42912W        W43776   4.606  21.689   9.764
42913W        W43777   7.089  21.745   7.433
42914W        W43778   3.994  20.497  10.376
42915W        W43779   6.010  20.651   9.164
42916W        W43780   4.783  20.380   8.672
42917W        W43781   5.040  21.444   9.775
42918W        W43782   5.382  18.587   8.826
42919W        W43783   3.656  20.751   8.453
42920W        W43784   5.636  19.468   7.471
42921W        W43785   4.287  20.418   8.974
42922W        W43786   5.188  18.694   9.809
42923W        W43787   6.902  18.478   7.302
42924W        W43788   6.980  20.264  10.615
42925W        W43789   5.769  21.639  10.740
42926W        W43790   7.200  20.585  10.265
42927W        W43791   6.645  21.358  10.827
42928W        W43792   4.525  21.896   9.273
42929W        W43793   6.990  20.387   8.457
42930W        W43794   5.957  19.681   8.813
42931W        W43795   5.581  18.229   8.524
42932W        W43796   4.700  21.313   8.475
42933W        W43797   4.925  19.065   9.550
42934W        W43798   4.912  18.500   9.005
42935W        W43799   3.781  21.439   7.652
42936W        W43800   5.628  20.617   8.524
42937W        W43801   4.616  21.458  10.247
42938W        W43802   3.506  20.221   8.268
42939W        W43803   3.735  18.702   9.061
42940W        W43804   5.500  20.790   9.037
42941W        W43805   3.583  18.449   8.130
42942W        W43806   6.355  19.775   9.943
42943W        W43807   6.244  19.107   7.433
42944W        W43808   6.838  20.845   9.349
42945W        W43809   5.575  21.349   8.910
42946W        W43810   4.857  21.672   8.094
42947W        W43811   5.970  18.318   7.243
42948W        W43812   3.986  21.840   9.334
42949W        W43813   5.905  19.302  10.701
42950W        W43814   4.100  18.879  10.535
42951W        W43815   3.571  19.573   8.536
42952W        W43816   5.230  19.574   7.834
42953W        W43817   6.125  19.785  10.739
42954W        W43818   4.753  19.876   9.414
42955W        W43819   6.230  18.339   8.542
42956W        W43820   5.285  21.769   8.945
42957W        W43821   6.496  21.229   9.875
42958W        W43822   6.274  21.287   8.983
42959W        W43823   6.134  20.486   8.682
42960W        W43824   5.475  18.591   7.718
42961W        W43825   7.206  18.350   8.632
42962W        W43826   4.859  19.844   7.219
42963W        W43827   6.945  19.242   8.529
42964W        W43828   5.457  20.488   7.587
42965W        W43829   6.671  20.552  10.299
42966W        W43830   6.660  21.344   7.648
42967W        W43831   5.087  18.904  10.281
42968W        W43832   4.975  19.599   9.786
42969W        W43833   6.897  21.029  10.202
42970W        W43834   6.019  18.934  10.334
42971W        W43835   3.629  19.447  10.194
42972W        W43836   5.583  20.018   9.752
42973W        W43837   3.932  20.779   8.927
42974W        W43838   4.092  19.995   9.458
42975W        W43839   6.381  20.325   9.945
42976W        W43840   6.266  21.686  10.594
42977W        W43841   6.021  19.448  10.224
42978W        W43842   6.536  21.643   8.592
42979W        W43843   5.493  21.257   9.876
42980W        W43844   4.928  21.576   9.272
42981W        W43845   6.670  20.746   9.810
42982W        W43846   5.656  20.803  10.836
42983W        W43847   4.360  20.872   9.224
42984W        W43848   6.617  20.334   8.811
42985W        W43849   6.253  21.473   9.497
42986W        W43850   4.321  21.458   9.431
42987W        W43851   5.560  19.213  10.330
42988W        W43852   5.481  21.444   8.010
42989W        W43853   5.157  20.808  10.740
42990W        W43854   5.070  21.159   8.107
42991W        W43855   4.561  19.386   7.151
42992W        W43856   3.618  21.880  14.313
42993W        W43857   4.079  20.803  13.845
42994W        W43858   6.877  20.602  11.599
42995W        W43859   7.153  21.811  13.636
42996W        W43860   4.810  21.497  11.117
42997W        W43861   5.069  19.805  12.451
42998W        W43862   4.728  19.488  12.739
42999W        W43863   5.557  20.405  11.757
43000W        W43864   5.113  21.557  14.094
43001W        W43865   3.675  18.854  13.989
43002W        W43866   4.314  18.133  13.803
43003W        W43867   6.333  18.769  12.673
43004W        W43868   5.829  19.582  11.354
43005W        W43869   6.276  19.109  14.252
43006W        W43870   3.811  18.576  13.571
43007W        W43871   3.785  21.411  14.436
43008W        W43872   5.281  20.738  11.255
43009W        W43873   3.836  19.271  13.051
43010W        W43874   4.772  19.502  14.188
43011W        W43875   7.126  19.131  12.715
43012W        W43876   7.000  20.437  13.436
43013W        W43877   5.554  19.769  12.610
43014W        W43878   5.918  21.069  13.000
43015W        W43879   4.298  20.426  13.228
43016W        W43880   3.598  19.713  12.981
43017W        W43881   4.830  20.070  13.838
43018W        W43882   6.977  19.897  14.253
43019W        W43883   4.577  21.050  12.623
43020W        W43884   5.590  21.001  13.605
43021W        W43885   5.228  19.475  12.861
43022W        W43886   5.298  20.229  12.649
43023W        W43887   5.833  21.250  14.451
43024W        W43888   5.191  20.423  14.372
43025W        W43889   5.329  20.190  13.905
43026W        W43890   3.647  19.274  14.427
43027W        W43891   6.411  21.245  13.971
43028W        W43892   3.872  18.452  12.005
43029W        W43893   4.669  20.773  13.052
43030W        W43894   7.033  20.779  12.589
43031W        W43895   6.696  18.996  12.939
43032W        W43896   6.855  19.068  10.906
43033W        W43897   7.382  19.788  13.440
43034W        W43898   5.176  21.605  12.873
43035W        W43899   7.014  21.104  11.542
43036W        W43900   4.309  21.878  11.587
43037W        W43901   4.438  21.752  12.066
43038W        W43902   4.232  18.339  13.322
43039W        W43903   6.911  19.649  13.613
43040W        W43904   6.424  20.030  12.212
43041W        W43905   6.275  19.809  11.237
43042W        W43906   5.458  20.826  13.098
43043W        W43907   5.603  19.229  12.568
43044W        W43908   5.934  21.357  13.411
43045W        W43909   6.830  20.140  11.879
43046W        W43910   6.014  18.802  11.892
43047W        W43911   4.168  21.380  11.786
43048W        W43912   3.619  18.800  12.340
43049W        W43913   6.396  19.692  12.629
43050W        W43914   3.932  21.200  12.730
43051W        W43915   5.165  21.534  11.530
43052W        W43916   6.624  19.531  10.927
43053W        W43917   3.705  21.235  13.232
43054W        W43918   4.495  20.858  13.532
43055W        W43919   4.864  20.309  12.364
43056W        W43920   4.602  18.687  13.195
43057W        W43921   7.179  18.600  12.755
43058W        W43922   4.482  20.145  10.275
43059W        W43923   4.020  18.970  11.045
43060W        W43924   4.161  21.151  12.264
43061W        W43925   5.286  20.559  12.200
43062W        W43926   6.727  21.632  13.844
43063W        W43927   5.703  19.186  11.665
43064W        W43928   6.831  21.655  12.762
43065W        W43929   6.543  19.777  14.000
43066W        W43930   7.278  21.173  12.330
43067W        W43931   5.854  20.454  13.799
43068W        W43932   3.259  20.085  12.308
43069W        W43933   4.758  20.396  13.437
43070W        W43934   6.025  19.711  11.816
43071W        W43935   5.955  20.182  12.024
43072W        W43936   4.126  19.430  13.450
43073W        W43937   4.254  19.433  13.963
43074W        W43938   3.871  18.364  12.518
43075W        W43939   5.887  18.901  12.924
43076W        W43940   5.422  18.793  14.123
43077W        W43941   5.679  19.135  11.125
43078W        W43942   7.188  21.537  14.157
43079W        W43943   5.775  18.378  14.146
43080W        W43944   6.830  20.910  14.294
43081W        W43945   6.403  19.016  13.763
43082W        W43946   6.386  19.002  12.194
43083W        W43947   6.522  20.032  14.465
43084W        W43948   4.316  21.531  12.565
43085W        W43949   5.178  19.114  11.177
43086W        W43950   4.487  18.593  14.208
43087W        W43951   6.704  19.222  11.853
43088W        W43952   7.040  19.718  11.608
43089W        W43953   4.608  21.606  14.175
43090W        W43954   4.286  18.201  11.529
43091W        W43955   6.810  18.787  12.465
43092W        W43956   7.133  21.116  11.014
43093W        W43957   4.044  20.216  12.820
43094W        W43958   5.921  18.792  10.821
43095W        W43959   7.134  21.219  12.860
43096W        W43960   6.986  18.425  13.418
43097W        W43961   5.653  19.794  13.993
43098W        W43962   5.529  20.930  11.699
43099W        W43963   6.023  20.107  14.675
43100W        W43964   5.813  18.401  12.742
43101W        W43965   4.362  19.195  12.994
43102W        W43966   3.965  20.335  13.597
43103W        W43967   5.794  21.500  12.398
43104W        W43968   6.769  19.214  13.389
43105W        W43969   5.480  21.547  13.696
43106W        W43970   6.906  20.447  11.098
43107W        W43971   5.484  20.075  12.195
43108W        W43972   7.057  18.442  13.998
43109W        W43973   5.408  20.506  13.505
43110W        W43974   5.760  19.399  13.024
43111W        W43975   6.533  19.662  11.666
43112W        W43976   6.642  19.234  11.353
43113W        W43977   6.712  21.343  11.899
43114W        W43978   6.509  20.798  12.700
43115W        W43979   6.340  20.128  11.698
43116W        W43980   5.829  20.227  12.543
43117W        W43981   6.809  19.974  12.717
43118W        W43982   4.099  18.846  13.251
43119W        W43983   6.676  20.284  14.014
43120W        W43984   7.230  21.671  13.136
43121W        W43985   5.064  21.262  12.459
43122W        W43986   6.258  21.673  13.669
43123W        W43987   6.000  19.153  13.437
43124W        W43988   5.311  21.978  13.399
43125W        W43989   6.878  18.750  11.951
43126W        W43990   6.953  19.978  13.219
43127W        W43991   3.676  19.072  13.489
43128W        W43992   6.670  19.291  12.519
43129W        W43993   6.775  19.299  13.969
43130W        W43994   5.957  20.979  12.489
43131W        W43995   4.974  21.669  12.016
43132W        W43996   3.903  18.565  11.471
43133W        W43997   5.544  18.545  13.160
43134W        W43998   4.287  21.629  11.146
43135W        W43999   5.097  20.186  11.875
43136W        W44000   5.437  20.684  13.993
43137W        W44001   5.503  18.984  12.125
43138W        W44002   6.461  18.503  12.223
43139W        W44003   6.331  21.862  12.692
43140W        W44004   5.796  21.593  12.919
43141W        W44005   5.114  20.429  13.081
43142W        W44006   6.995  21.272  13.366
43143W        W44007   4.380  18.511  11.930
43144W        W44008   5.052  21.108  12.957
43145W        W44009   4.503  18.808  10.827
43146W        W44010   5.559  19.532  13.522
43147W        W44011   6.173  18.497  13.101
43148W        W44012   3.659  20.326  13.163
43149W        W44013   5.342  20.204  11.347
43150W        W44014   4.581  18.309  10.918
43151W        W44015   5.513  19.549  12.144
43152W        W44016   6.119  18.620  13.602
43153W        W44017   4.948  20.584  13.882
43154W        W44018   5.689  20.295  14.257
43155W        W44019   6.187  20.299  14.178
43156W        W44020   5.458  18.500  14.549
43157W        W44021   4.880  19.132  13.093
43158W        W44022   4.154  18.765  12.381
43159W        W44023   3.948  21.621  12.216
43160W        W44024   5.475  21.178  14.081
43161W        W44025   4.647  20.663  11.423
43162W        W44026   6.338  20.190  12.723
43163W        W44027   6.462  19.846  13.116
43164W        W44028   5.629  20.322  13.035
43165W        W44029   6.150  20.821  11.053
43166W        W44030   5.911  18.820  12.403
43167W        W44031   7.206  19.225  11.706
43168W        W44032   3.799  21.580  13.930
43169W        W44033   3.980  20.811  13.347
43170W        W44034   3.832  21.775  11.747
43171W        W44035   5.494  19.013  13.521
43172W        W44036   4.926  21.086  11.437
43173W        W44037   6.665  21.433  11.351
43174W        W44038   5.895  20.102  11.458
43175W        W44039   4.964  18.494  12.452
43176W        W44040   5.398  18.907  10.700
43177W        W44041   5.916  20.859  14.117
43178W        W44042   6.478  18.797  11.633
43179W        W44043   3.592  18.238  11.229
43180W        W44044   5.034  20.845  13.406
43181W        W44045   5.046  20.704  12.657
43182W        W44046   4.727  20.947  10.982
43183W        W44047   3.659  21.269  11.809
43184W        W44048   4.410  19.905  14.076
43185W        W44049   4.978  18.547  14.398
43186W        W44050   5.599  18.547  13.693
43187W        W44051   4.776  18.179  12.052
43188W        W44052   6.027  18.848  11.363
43189W        W44053   3.759  18.397  13.090
43190W        W44054   3.758  19.383  12.539
43191W        W44055   6.698  18.473  12.944
43192W        W44056   3.623  18.873  11.829
43193W        W44057   6.562  18.735  13.360
43194W        W44058   7.078  19.921  11.026
43195W        W44059   4.226  18.528  12.851
43196W        W44060   5.492  19.278  13.959
43197W        W44061   3.432  18.726  11.245
43198W        W44062   4.428  20.424  13.844
43199W        W44063   5.976  19.850  12.873
43200W        W44064   5.576  21.621  11.210
43201W        W44065   3.602  20.561  10.758
43202W        W44066   4.589  20.924  14.058
43203W        W44067   3.988  19.828  13.771
43204W        W44068   5.153  20.045  13.441
43205W        W44069   6.595  18.445  13.789
43206W        W44070   7.112  20.090  13.789
43207W        W44071   7.181  20.209  11.487
43208W        W44072   6.056  20.578  11.687
43209W        W44073   6.550  21.831  11.012
43210W        W44074   5.608  19.848  14.506
43211W        W44075   4.244  20.612  14.300
43212W        W44076   7.233  18.888  14.506
43213W        W44077   6.859  19.515  12.973
43214W        W44078   5.016  21.776  14.561
43215W        W44079   5.090  18.239  11.001
43216W        W44080   6.666  20.922  11.135
43217W        W44081   4.576  19.051  14.003
43218W        W44082   5.039  21.123  13.822
43219W        W44083   6.925  18.857  13.710
43220W        W44084   6.306  21.944  11.477
43221W        W44085   6.588  20.376  13.130
43222W        W44086   4.464  18.619  13.691
43223W        W44087   5.075  19.939  14.272
43224W        W44088   4.511  20.972  11.826
43225W        W44089   6.510  20.539  11.949
43226W        W44090   4.112  18.983  13.745
43227W        W44091   5.477  21.052  12.227
43228W        W44092   7.126  19.611  12.524
43229W        W44093   5.269  18.311  14.016
43230W        W44094   6.353  20.843  13.197
43231W        W44095   6.625  21.247  12.987
43232W        W44096   5.745  21.118  11.225
43233W        W44097   3.756  20.942  14.223
43234W        W44098   4.544  19.119  13.487
43235W        W44099   4.439  18.319  12.418
43236W        W44100   6.327  19.351  13.070
43237W        W44101   4.917  20.448  11.026
43238W        W44102   7.071  20.371  12.903
43239W        W44103   4.178  21.264  14.066
43240W        W44104   6.728  21.917  11.938
43241W        W44105   4.609  18.837  12.688
43242W        W44106   4.358  20.676  12.317
43243W        W44107   4.852  21.869  13.190
43244W        W44108   6.870  21.927  14.233
43245W        W44109   6.100  20.199  13.230
43246W        W44110   3.795  19.265  10.636
43247W        W44111   7.005  21.600  12.248
43248W        W44112   6.972  18.849  11.451
43249W        W44113   4.838  18.229  13.642
43250W        W44114   6.768  21.206  12.485
43251W        W44115   6.869  19.668  12.094
43252W        W44116   5.073  19.071  12.589
43253W        W44117   5.167  19.671  13.844
43254W        W44118   6.130  20.950  13.659
43255W        W44119   5.021  19.172  13.737
43256W        W44120   4.800  21.704  12.496
43257W        W44121   4.130  21.758  14.281
43258W        W44122   4.408  21.161  11.330
43259W        W44123   6.901  20.887  12.067
43260W        W44124   4.668  19.582  13.696
43261W        W44125   7.103  19.415  11.198
43262W        W44126   5.075  20.686  11.739
43263W        W44127   6.119  19.980  13.776
43264W        W44128   6.007  19.700  13.356
43265W        W44129   4.411  20.009  13.543
43266W        W44130   6.742  21.742  13.318
43267W        W44131   6.232  18.598  14.115
43268W        W44132   4.016  18.478  14.040
43269W        W44133   4.549  19.638  13.199
43270W        W44134   4.916  19.113  10.736
43271W        W44135   3.653  21.092  13.738
43272W        W44136   5.488  19.837  13.109
43273W        W44137   4.896  18.694  11.142
43274W        W44138   3.715  19.907  12.525
43275W        W44139   3.856  21.786  13.462
43276W        W44140   6.712  20.047  11.361
43277W        W44141   6.713  18.798  14.180
43278W        W44142   6.398  20.996  12.194
43279W        W44143   3.890  19.721  14.263
43280W        W44144   6.773  18.371  11.462
43281W        W44145   6.492  20.949  11.629
43282W        W44146   5.532  19.870  11.725
43283W        W44147   6.473  18.779  11.098
43284W        W44148   6.419  19.524  13.573
43285W        W44149   4.124  19.655  12.845
43286W        W44150   4.845  20.835  12.211
43287W        W44151   6.384  19.513  12.140
43288W        W44152   5.394  19.025  13.021
43289W        W44153   7.282  20.863  13.521
43290W        W44154   7.143  18.890  13.201
43291W        W44155   3.618  21.632  12.611
43292W        W44156   3.940  20.830  11.942
43293W        W44157   4.107  18.559  14.548
43294W        W44158   5.317  21.340  14.532
43295W        W44159   7.198  20.168  12.434
43296W        W44160   6.434  20.487  11.334
43297W        W44161   5.828  21.858  13.372
43298W        W44162   6.524  20.544  14.504
43299W        W44163   5.115  17.979  11.660
43300W        W44164   6.128  19.258  12.600
43301W        W44165   3.684  20.797  12.930
43302W        W44166   4.773  18.273  11.419
43303W        W44167   4.694  20.320  14.274
43304W        W44168   5.939  19.269  12.122
43305W        W44169   5.882  20.657  13.332
43306W        W44170   4.088  21.305  13.565
43307W        W44171   4.814  21.291  14.540
43308W        W44172   4.392  18.643  11.294
43309W        W44173   6.215  19.249  11.667
43310W        W44174   5.911  21.355  13.916
43311W        W44175   4.977  19.920  12.965
43312W        W44176   4.406  21.640  13.330
43313W        W44177   7.039  21.635  11.023
43314W        W44178   3.934  20.230  14.099
43315W        W44179   6.044  20.591  12.850
43316W        W44180   4.638  20.466  11.916
43317W        W44181   4.961  21.393  13.378
43318W        W44182   5.441  18.710  12.600
43319W        W44183   3.257  20.708  11.169
43320W        W44184   5.372  19.412  10.789
43321W        W44185   3.972  20.307  12.301
43322W        W44186   4.928  18.682  13.912
43323W        W44187   6.967  18.579  11.018
43324W        W44188   7.013  20.403  14.384
43325W        W44189   5.594  21.664  14.240
43326W        W44190   7.058  20.629  13.919
43327W        W44191   6.717  21.427  14.336
43328W        W44192   4.440  21.904  12.890
43329W        W44193   7.220  20.486  12.000
43330W        W44194   5.975  19.760  12.335
43331W        W44195   5.479  18.194  12.358
43332W        W44196   4.638  21.310  12.183
43333W        W44197   5.104  18.659  13.434
43334W        W44198   5.040  18.673  12.928
43335W        W44199   3.812  21.456  11.331
43336W        W44200   5.784  20.652  12.135
43337W        W44201   4.576  21.343  13.729
43338W        W44202   3.519  20.757  11.640
43339W        W44203   3.810  18.826  12.809
43340W        W44204   5.569  20.674  12.622
43341W        W44205   3.434  18.420  11.685
43342W        W44206   6.593  20.051  13.564
43343W        W44207   6.194  19.281  11.121
43344W        W44208   6.884  20.819  13.100
43345W        W44209   5.507  21.198  12.719
43346W        W44210   4.659  21.460  11.668
43347W        W44211   6.061  18.310  10.904
43348W        W44212   3.998  21.623  12.992
43349W        W44213   5.803  19.345  14.361
43350W        W44214   4.099  19.002  14.252
43351W        W44215   3.485  19.668  12.097
43352W        W44216   4.625  19.144  11.180
43353W        W44217   6.094  19.776  14.285
43354W        W44218   4.637  20.307  12.844
43355W        W44219   5.982  18.323  12.256
43356W        W44220   5.329  21.767  12.405
43357W        W44221   6.491  21.278  13.470
43358W        W44222   6.233  21.356  12.685
43359W        W44223   6.217  20.522  12.360
43360W        W44224   5.456  18.637  11.122
43361W        W44225   7.203  18.481  12.237
43362W        W44226   4.556  19.579  10.334
43363W        W44227   7.053  19.175  12.209
43364W        W44228   5.752  20.547  11.266
43365W        W44229   6.425  20.734  14.026
43366W        W44230   6.176  21.464  11.082
43367W        W44231   5.009  19.048  14.284
43368W        W44232   5.061  19.544  13.346
43369W        W44233   6.925  21.169  13.868
43370W        W44234   5.883  18.944  13.919
43371W        W44235   3.757  19.349  13.913
43372W        W44236   5.673  20.060  13.525
43373W        W44237   3.845  20.775  12.447
43374W        W44238   3.993  19.929  13.259
43375W        W44239   6.323  20.473  13.597
43376W        W44240   6.166  21.607  14.268
43377W        W44241   6.017  19.445  13.879
43378W        W44242   6.489  21.590  12.292
43379W        W44243   5.455  21.333  13.221
43380W        W44244   4.680  21.451  12.931
43381W        W44245   6.697  20.822  13.586
43382W        W44246   5.533  20.825  14.488
43383W        W44247   4.196  20.732  12.823
43384W        W44248   6.733  20.404  12.404
43385W        W44249   6.271  21.638  13.144
43386W        W44250   4.292  21.162  13.108
43387W        W44251   5.278  19.484  14.364
43388W        W44252   5.474  21.517  11.962
43389W        W44253   5.072  20.921  14.290
43390W        W44254   5.076  21.178  11.916
43391W        W44255   4.334  19.295  10.734
43392W        W44256   3.752  21.883  17.944
43393W        W44257   4.054  20.789  17.507
43394W        W44258   6.969  20.274  15.504
43395W        W44259   7.062  21.544  17.400
43396W        W44260   4.576  21.496  14.953
43397W        W44261   4.768  19.766  15.840
43398W        W44262   4.398  19.553  16.199
43399W        W44263   5.299  20.289  15.203
43400W        W44264   5.196  21.515  17.658
43401W        W44265   3.642  19.029  17.517
43402W        W44266   4.348  18.105  17.498
43403W        W44267   6.104  18.917  16.247
43404W        W44268   5.892  19.548  14.827
43405W        W44269   6.241  19.158  17.978
43406W        W44270   3.767  18.615  17.246
43407W        W44271   3.903  21.398  18.069
43408W        W44272   5.147  20.661  14.825
43409W        W44273   3.619  19.496  16.726
43410W        W44274   4.776  19.582  17.823
43411W        W44275   6.936  19.150  16.372
43412W        W44276   6.950  20.216  17.278
43413W        W44277   5.310  19.669  16.226
43414W        W44278   5.858  21.043  16.622
43415W        W44279   4.228  20.339  16.793
43416W        W44280   3.407  19.961  16.657
43417W        W44281   4.690  20.015  17.494
43418W        W44282   6.976  19.680  17.867
43419W        W44283   4.455  21.038  16.340
43420W        W44284   5.734  20.865  17.277
43421W        W44285   4.964  19.454  16.628
43422W        W44286   5.210  20.196  16.307
43423W        W44287   6.026  21.182  18.014
43424W        W44288   5.456  20.332  18.037
43425W        W44289   5.402  20.177  17.552
43426W        W44290   3.674  19.276  17.985
43427W        W44291   6.423  20.924  17.766
43428W        W44292   4.082  18.431  15.786
43429W        W44293   4.466  20.803  16.875
43430W        W44294   7.088  20.654  16.301
43431W        W44295   6.542  18.815  16.503
43432W        W44296   6.738  19.081  14.606
43433W        W44297   7.279  19.769  17.052
43434W        W44298   5.140  21.350  16.817
43435W        W44299   7.209  20.735  15.470
43436W        W44300   3.862  21.711  15.313
43437W        W44301   4.354  21.768  15.751
43438W        W44302   4.280  18.499  17.173
43439W        W44303   6.924  19.613  17.362
43440W        W44304   6.134  19.916  15.775
43441W        W44305   6.354  19.761  14.875
43442W        W44306   5.412  20.907  16.846
43443W        W44307   5.290  19.079  16.052
43444W        W44308   5.769  21.332  17.106
43445W        W44309   6.665  19.973  15.774
43446W        W44310   5.791  18.734  15.413
43447W        W44311   4.270  21.378  15.387
43448W        W44312   3.777  18.821  15.937
43449W        W44313   6.076  19.649  16.211
43450W        W44314   3.886  21.160  16.357
43451W        W44315   5.109  21.518  14.982
43452W        W44316   6.531  19.514  14.438
43453W        W44317   3.686  21.211  16.826
43454W        W44318   4.559  20.877  17.418
43455W        W44319   4.744  20.252  16.048
43456W        W44320   4.769  18.647  16.860
43457W        W44321   7.198  18.384  16.449
43458W        W44322   4.264  20.122  14.511
43459W        W44323   4.017  19.052  14.754
43460W        W44324   4.124  20.961  15.946
43461W        W44325   5.063  20.680  16.221
43462W        W44326   6.590  21.443  17.589
43463W        W44327   5.649  19.160  15.091
43464W        W44328   6.928  21.569  16.239
43465W        W44329   6.570  19.404  17.666
43466W        W44330   7.288  20.954  15.940
43467W        W44331   5.876  20.344  17.379
43468W        W44332   3.351  19.917  15.759
43469W        W44333   4.586  20.411  17.177
43470W        W44334   5.830  19.587  15.348
43471W        W44335   5.679  20.113  15.558
43472W        W44336   4.029  19.496  17.097
43473W        W44337   4.018  19.380  17.603
43474W        W44338   3.951  18.398  16.281
43475W        W44339   5.618  18.822  16.439
43476W        W44340   5.440  18.842  17.791
43477W        W44341   5.955  18.779  14.927
43478W        W44342   7.073  21.393  17.887
43479W        W44343   6.217  18.488  17.772
43480W        W44344   6.907  20.879  17.989
43481W        W44345   6.412  18.980  17.397
43482W        W44346   6.179  18.854  15.725
43483W        W44347   6.580  20.018  18.132
43484W        W44348   4.228  21.506  16.221
43485W        W44349   5.149  19.149  15.205
43486W        W44350   4.433  18.617  17.688
43487W        W44351   6.548  19.167  15.535
43488W        W44352   6.864  19.596  15.498
43489W        W44353   4.829  21.853  17.805
43490W        W44354   4.531  18.336  15.206
43491W        W44355   6.910  18.678  16.160
43492W        W44356   7.138  21.217  14.594
43493W        W44357   3.863  20.248  16.413
43494W        W44358   5.863  18.827  14.422
43495W        W44359   7.208  21.138  16.443
43496W        W44360   7.032  18.398  17.043
43497W        W44361   5.649  19.650  17.519
43498W        W44362   5.284  20.784  15.350
43499W        W44363   6.083  20.159  18.248
43500W        W44364   5.914  18.426  16.251
43501W        W44365   4.112  19.325  16.609
43502W        W44366   4.033  20.342  17.269
43503W        W44367   5.865  21.413  16.249
43504W        W44368   6.778  19.492  16.740
43505W        W44369   5.729  21.647  17.508
43506W        W44370   6.813  20.242  14.833
43507W        W44371   5.238  20.012  15.829
43508W        W44372   7.247  18.344  17.505
43509W        W44373   5.448  20.472  17.120
43510W        W44374   5.431  19.296  16.548
43511W        W44375   6.347  19.611  15.414
43512W        W44376   6.655  19.390  15.063
43513W        W44377   6.849  21.060  15.636
43514W        W44378   6.574  20.659  16.366
43515W        W44379   6.104  20.025  15.259
43516W        W44380   5.679  20.048  16.158
43517W        W44381   6.566  19.857  16.388
43518W        W44382   4.211  18.872  16.821
43519W        W44383   6.613  19.946  17.613
43520W        W44384   7.198  21.564  16.720
43521W        W44385   4.914  21.194  16.164
43522W        W44386   6.202  21.671  17.296
43523W        W44387   5.950  19.039  17.125
43524W        W44388   5.348  21.676  17.164
43525W        W44389   6.802  18.744  15.644
43526W        W44390   6.657  19.954  16.924
43527W        W44391   3.757  19.067  16.984
43528W        W44392   6.549  19.010  16.024
43529W        W44393   7.012  19.163  17.741
43530W        W44394   5.794  20.918  16.076
43531W        W44395   5.111  21.566  15.847
43532W        W44396   4.092  18.621  15.054
43533W        W44397   5.323  18.493  16.775
43534W        W44398   4.070  21.716  14.822
43535W        W44399   4.891  20.085  15.446
43536W        W44400   5.404  20.689  17.622
43537W        W44401   5.323  18.741  15.611
43538W        W44402   6.429  18.506  16.036
43539W        W44403   6.319  21.638  16.382
43540W        W44404   5.592  21.502  16.669
43541W        W44405   5.114  20.472  16.722
43542W        W44406   6.992  21.212  17.038
43543W        W44407   4.567  18.634  15.645
43544W        W44408   4.903  20.943  16.631
43545W        W44409   4.540  18.985  14.543
43546W        W44410   5.328  19.481  17.039
43547W        W44411   6.056  18.726  16.731
43548W        W44412   3.695  20.369  16.877
43549W        W44413   5.196  20.015  14.765
43550W        W44414   4.582  18.491  14.720
43551W        W44415   5.186  19.477  15.747
43552W        W44416   6.135  18.560  17.253
43553W        W44417   4.917  20.498  17.593
43554W        W44418   5.824  20.042  17.820
43555W        W44419   6.254  20.303  17.760
43556W        W44420   5.457  18.422  18.170
43557W        W44421   4.610  19.086  16.545
43558W        W44422   4.224  18.852  16.278
43559W        W44423   3.943  21.467  15.787
43560W        W44424   5.601  21.171  17.698
43561W        W44425   4.827  20.569  15.230
43562W        W44426   6.084  20.095  16.459
43563W        W44427   6.239  19.661  16.727
43564W        W44428   5.602  20.213  16.675
43565W        W44429   6.008  20.612  14.567
43566W        W44430   5.717  18.782  15.931
43567W        W44431   7.020  19.117  15.353
43568W        W44432   3.996  21.605  17.554
43569W        W44433   3.965  20.802  16.991
43570W        W44434   3.356  21.641  15.270
43571W        W44435   5.479  18.965  16.925
43572W        W44436   4.890  21.061  15.033
43573W        W44437   7.148  21.185  15.160
43574W        W44438   5.657  19.959  15.021
43575W        W44439   4.911  19.040  15.664
43576W        W44440   5.428  19.047  14.620
43577W        W44441   5.938  20.729  17.730
43578W        W44442   6.299  18.611  15.293
43579W        W44443   3.694  18.318  14.945
43580W        W44444   4.993  20.761  17.143
43581W        W44445   4.605  20.538  16.453
43582W        W44446   4.681  20.771  14.579
43583W        W44447   3.637  21.241  15.441
43584W        W44448   4.341  19.882  17.857
43585W        W44449   5.176  18.416  17.730
43586W        W44450   5.627  18.644  17.296
43587W        W44451   4.993  18.348  15.717
43588W        W44452   5.903  18.296  15.158
43589W        W44453   3.895  18.446  16.797
43590W        W44454   3.788  19.267  16.219
43591W        W44455   6.727  18.350  16.621
43592W        W44456   4.125  18.870  15.509
43593W        W44457   6.595  18.692  16.998
43594W        W44458   6.871  19.736  14.751
43595W        W44459   4.372  18.438  16.618
43596W        W44460   5.526  19.164  17.403
43597W        W44461   3.574  18.833  14.974
43598W        W44462   4.401  20.429  17.664
43599W        W44463   5.716  19.723  16.597
43600W        W44464   5.513  21.783  14.747
43601W        W44465   3.750  20.110  14.585
43602W        W44466   4.618  20.871  17.935
43603W        W44467   4.029  19.874  17.454
43604W        W44468   5.049  20.164  17.162
43605W        W44469   6.600  18.397  17.410
43606W        W44470   7.284  19.940  17.554
43607W        W44471   7.135  19.908  15.172
43608W        W44472   5.823  20.445  15.172
43609W        W44473   6.508  21.841  14.580
43610W        W44474   5.850  19.679  18.261
43611W        W44475   4.118  20.769  18.013
43612W        W44476   7.143  18.712  17.992
43613W        W44477   6.427  19.323  16.397
43614W        W44478   5.132  21.733  18.198
43615W        W44479   5.064  18.327  14.891
43616W        W44480   6.941  20.755  14.775
43617W        W44481   4.483  19.149  17.705
43618W        W44482   5.002  21.033  17.649
43619W        W44483   6.823  19.164  17.139
43620W        W44484   6.375  20.379  16.764
43621W        W44485   4.638  18.868  17.297
43622W        W44486   5.419  19.774  17.946
43623W        W44487   4.632  20.769  15.957
43624W        W44488   6.394  20.359  15.565
43625W        W44489   4.142  18.979  17.326
43626W        W44490   5.282  20.979  15.856
43627W        W44491   6.972  19.629  16.168
43628W        W44492   5.717  18.393  17.734
43629W        W44493   6.338  20.888  16.778
43630W        W44494   6.674  21.323  16.630
43631W        W44495   5.420  21.083  14.954
43632W        W44496   3.667  20.974  17.824
43633W        W44497   4.491  19.267  17.016
43634W        W44498   4.481  18.414  16.119
43635W        W44499   5.937  19.238  16.630
43636W        W44500   4.774  20.296  14.785
43637W        W44501   6.870  20.354  16.664
43638W        W44502   4.275  21.206  17.748
43639W        W44503   6.862  21.830  15.732
43640W        W44504   4.791  18.817  16.114
43641W        W44505   4.363  20.059  16.382
43642W        W44506   4.892  21.808  16.841
43643W        W44507   6.770  21.808  17.925
43644W        W44508   6.014  20.059  16.963
43645W        W44509   3.860  19.591  14.770
43646W        W44510   7.175  21.427  15.819
43647W        W44511   6.649  18.886  15.064
43648W        W44512   4.780  18.376  17.348
43649W        W44513   6.794  21.066  16.152
43650W        W44514   6.522  19.521  15.930
43651W        W44515   4.867  19.341  16.142
43652W        W44516   5.147  19.740  17.480
43653W        W44517   6.228  20.733  17.303
43654W        W44518   4.905  19.287  17.418
43655W        W44519   4.707  21.692  16.137
43656W        W44520   4.339  21.703  17.928
43657W        W44521   4.304  21.347  14.547
43658W        W44522   6.786  20.589  15.873
43659W        W44523   4.453  19.569  17.421
43660W        W44524   7.133  19.288  14.878
43661W        W44525   5.018  20.519  15.709
43662W        W44526   6.111  19.873  17.429
43663W        W44527   5.869  19.544  17.065
43664W        W44528   4.368  19.946  17.088
43665W        W44529   6.655  21.632  17.071
43666W        W44530   6.641  18.765  17.808
43667W        W44531   3.969  18.418  17.669
43668W        W44532   4.497  19.656  16.687
43669W        W44533   4.902  19.348  14.694
43670W        W44534   3.717  21.128  17.334
43671W        W44535   5.200  19.893  16.726
43672W        W44536   4.984  18.846  14.804
43673W        W44537   4.292  19.979  15.882
43674W        W44538   3.975  21.883  17.132
43675W        W44539   6.626  20.002  15.242
43676W        W44540   6.972  18.765  17.416
43677W        W44541   6.314  20.780  15.934
43678W        W44542   3.824  19.757  17.890
43679W        W44543   6.790  18.401  15.147
43680W        W44544   6.734  20.627  15.237
43681W        W44545   5.333  19.772  15.363
43682W        W44546   6.357  18.707  14.603
43683W        W44547   6.381  19.148  16.876
43684W        W44548   3.925  19.767  16.227
43685W        W44549   4.233  20.454  16.077
43686W        W44550   6.074  19.352  15.763
43687W        W44551   5.104  18.896  16.513
43688W        W44552   7.198  20.728  17.138
43689W        W44553   7.073  18.844  16.786
43690W        W44554   3.665  21.598  16.191
43691W        W44555   3.968  20.557  15.636
43692W        W44556   4.023  18.517  18.178
43693W        W44557   5.252  21.219  18.090
43694W        W44558   6.928  20.168  16.174
43695W        W44559   6.339  20.382  14.975
43696W        W44560   5.815  21.838  17.004
43697W        W44561   6.562  20.524  18.108
43698W        W44562   5.353  18.277  15.334
43699W        W44563   5.743  19.270  16.145
43700W        W44564   3.590  20.773  16.561
43701W        W44565   4.954  18.638  15.283
43702W        W44566   5.019  20.071  17.880
43703W        W44567   5.602  19.185  15.615
43704W        W44568   5.907  20.581  16.884
43705W        W44569   4.217  21.228  17.243
43706W        W44570   4.769  21.376  17.994
43707W        W44571   4.539  18.871  15.086
43708W        W44572   6.120  19.139  15.275
43709W        W44573   6.084  21.213  17.502
43710W        W44574   4.834  19.842  16.338
43711W        W44575   4.416  21.638  16.989
43712W        W44576   7.032  21.722  14.683
43713W        W44577   3.916  20.290  17.790
43714W        W44578   6.067  20.608  16.387
43715W        W44579   4.497  20.402  15.618
43716W        W44580   4.714  21.211  17.050
43717W        W44581   5.259  18.586  16.111
43718W        W44582   3.547  20.735  15.372
43719W        W44583   5.368  19.533  14.877
43720W        W44584   3.792  20.146  15.901
43721W        W44585   5.141  18.762  17.317
43722W        W44586   6.847  18.578  14.658
43723W        W44587   7.012  20.210  17.898
43724W        W44588   5.611  21.618  18.002
43725W        W44589   7.210  20.624  17.640
43726W        W44590   6.607  21.295  18.089
43727W        W44591   4.383  21.875  16.534
43728W        W44592   7.270  20.429  15.893
43729W        W44593   5.660  19.667  15.825
43730W        W44594   5.552  18.291  15.815
43731W        W44595   4.520  21.289  15.847
43732W        W44596   4.980  19.095  16.965
43733W        W44597   4.916  18.391  16.431
43734W        W44598   3.656  21.387  14.936
43735W        W44599   5.467  20.481  15.939
43736W        W44600   4.668  21.451  17.496
43737W        W44601   3.605  20.211  15.405
43738W        W44602   3.753  18.840  16.498
43739W        W44603   5.541  20.640  16.428
43740W        W44604   3.698  18.588  15.427
43741W        W44605   6.440  19.553  17.188
43742W        W44606   6.258  19.193  14.774
43743W        W44607   6.883  20.861  16.708
43744W        W44608   5.382  21.132  16.370
43745W        W44609   4.775  21.533  15.428
43746W        W44610   5.948  18.358  14.633
43747W        W44611   3.920  21.644  16.642
43748W        W44612   5.736  19.286  17.904
43749W        W44613   4.039  18.917  17.838
43750W        W44614   3.712  19.562  15.792
43751W        W44615   4.909  19.714  15.068
43752W        W44616   6.219  19.711  17.907
43753W        W44617   4.725  20.125  16.756
43754W        W44618   6.051  18.355  15.700
43755W        W44619   5.154  21.630  16.390
43756W        W44620   6.489  21.160  17.174
43757W        W44621   6.291  21.119  16.323
43758W        W44622   5.966  20.400  15.899
43759W        W44623   5.431  18.691  15.035
43760W        W44624   7.234  18.348  15.929
43761W        W44625   4.688  19.824  14.583
43762W        W44626   6.957  19.228  15.851
43763W        W44627   5.565  20.372  14.738
43764W        W44628   6.699  20.517  17.611
43765W        W44629   6.320  21.038  14.431
43766W        W44630   4.903  18.859  17.767
43767W        W44631   4.834  19.689  17.074
43768W        W44632   6.868  21.005  17.493
43769W        W44633   5.940  18.892  17.612
43770W        W44634   3.565  19.532  17.424
43771W        W44635   5.537  19.950  17.117
43772W        W44636   3.733  20.625  16.092
43773W        W44637   4.020  19.853  16.715
43774W        W44638   6.402  20.253  17.261
43775W        W44639   6.191  21.660  17.836
43776W        W44640   6.077  19.369  17.516
43777W        W44641   6.519  21.458  15.942
43778W        W44642   5.304  21.168  17.272
43779W        W44643   4.674  21.429  16.575
43780W        W44644   6.691  20.651  17.113
43781W        W44645   5.608  20.833  18.099
43782W        W44646   4.094  20.718  16.491
43783W        W44647   6.411  20.265  16.099
43784W        W44648   6.186  21.421  16.823
43785W        W44649   4.212  21.229  16.739
43786W        W44650   5.230  19.318  17.808
43787W        W44651   5.249  21.300  15.421
43788W        W44652   5.105  20.715  18.050
43789W        W44653   4.846  21.006  15.554
43790W        W44654   4.306  19.457  14.473
43791W        W44655   3.786  21.868  21.811
43792W        W44656   4.120  20.729  21.288
43793W        W44657   6.864  20.426  18.897
43794W        W44658   7.142  21.637  20.856
43795W        W44659   4.699  21.514  18.494
43796W        W44660   5.007  19.783  19.722
43797W        W44661   4.664  19.478  19.994
43798W        W44662   5.808  20.304  19.290
43799W        W44663   5.092  21.661  21.334
43800W        W44664   3.620  18.877  21.313
43801W        W44665   4.232  18.028  21.042
43802W        W44666   6.273  18.756  19.927
43803W        W44667   5.867  19.177  18.404
43804W        W44668   6.412  18.899  21.566
43805W        W44669   3.783  18.535  20.869
43806W        W44670   3.839  21.341  21.808
43807W        W44671   5.346  20.892  18.528
43808W        W44672   3.759  19.250  20.322
43809W        W44673   4.873  19.414  21.458
43810W        W44674   6.944  19.377  19.965
43811W        W44675   6.878  20.372  20.744
43812W        W44676   5.402  19.756  20.056
43813W        W44677   5.876  21.107  20.266
43814W        W44678   4.097  20.357  20.557
43815W        W44679   3.380  19.779  20.336
43816W        W44680   4.758  19.937  21.204
43817W        W44681   6.942  19.682  21.345
43818W        W44682   4.470  21.325  20.057
43819W        W44683   5.725  20.965  21.091
43820W        W44684   4.995  19.366  20.390
43821W        W44685   5.274  20.293  20.049
43822W        W44686   5.959  21.049  21.541
43823W        W44687   5.454  20.319  21.712
43824W        W44688   5.221  20.182  21.259
43825W        W44689   3.333  19.160  21.696
43826W        W44690   6.493  20.924  21.540
43827W        W44691   3.950  18.341  19.420
43828W        W44692   4.814  20.983  20.262
43829W        W44693   7.024  20.697  19.791
43830W        W44694   6.588  19.069  20.201
43831W        W44695   6.773  19.036  18.206
43832W        W44696   7.515  19.856  20.604
43833W        W44697   5.303  21.704  20.546
43834W        W44698   7.028  20.961  18.923
43835W        W44699   3.952  21.763  18.986
43836W        W44700   4.375  21.732  19.413
43837W        W44701   4.269  18.385  20.662
43838W        W44702   7.084  19.595  20.819
43839W        W44703   6.421  19.941  19.539
43840W        W44704   6.316  19.763  18.515
43841W        W44705   5.516  20.920  20.632
43842W        W44706   5.525  19.023  19.709
43843W        W44707   5.891  21.327  20.743
43844W        W44708   6.866  20.058  19.283
43845W        W44709   5.931  18.602  19.101
43846W        W44710   4.261  21.348  19.093
43847W        W44711   3.583  18.714  19.586
43848W        W44712   6.406  19.520  19.921
43849W        W44713   3.973  21.205  20.091
43850W        W44714   5.188  21.386  18.586
43851W        W44715   6.616  19.511  18.171
43852W        W44716   3.746  21.169  20.571
43853W        W44717   4.504  21.017  21.008
43854W        W44718   4.943  20.296  19.658
43855W        W44719   4.721  18.516  20.446
43856W        W44720   7.282  18.394  20.128
43857W        W44721   4.695  20.392  18.097
43858W        W44722   3.960  19.003  18.344
43859W        W44723   4.209  21.264  19.613
43860W        W44724   5.108  20.754  19.838
43861W        W44725   6.689  21.576  21.076
43862W        W44726   5.597  19.021  18.821
43863W        W44727   6.910  21.708  19.848
43864W        W44728   6.543  19.600  20.974
43865W        W44729   7.232  20.963  19.406
43866W        W44730   5.863  20.357  20.942
43867W        W44731   3.363  19.747  19.433
43868W        W44732   4.608  20.659  20.626
43869W        W44733   5.990  19.471  18.828
43870W        W44734   5.935  19.925  19.624
43871W        W44735   4.117  19.365  20.695
43872W        W44736   4.092  19.287  21.201
43873W        W44737   4.013  18.309  19.926
43874W        W44738   5.768  18.783  20.102
43875W        W44739   5.553  18.777  21.463
43876W        W44740   5.927  18.681  18.582
43877W        W44741   7.125  21.485  21.366
43878W        W44742   5.932  18.295  21.359
43879W        W44743   6.987  20.751  21.578
43880W        W44744   6.496  18.870  21.065
43881W        W44745   6.272  18.885  19.405
43882W        W44746   6.569  19.894  21.637
43883W        W44747   4.177  21.704  19.891
43884W        W44748   5.077  18.931  18.686
43885W        W44749   4.412  18.451  21.295
43886W        W44750   6.685  19.073  19.145
43887W        W44751   7.010  19.594  19.074
43888W        W44752   4.667  21.871  21.550
43889W        W44753   4.485  18.138  18.785
43890W        W44754   7.064  18.864  19.857
43891W        W44755   7.120  21.184  18.382
43892W        W44756   3.749  20.185  20.192
43893W        W44757   5.860  18.772  18.084
43894W        W44758   7.119  21.203  19.999
43895W        W44759   7.000  18.349  20.607
43896W        W44760   5.725  19.556  21.163
43897W        W44761   5.595  20.702  18.965
43898W        W44762   6.075  20.037  21.784
43899W        W44763   5.882  18.277  19.960
43900W        W44764   4.273  19.196  20.216
43901W        W44765   3.936  20.311  21.038
43902W        W44766   5.954  21.516  19.794
43903W        W44767   6.897  19.163  20.589
43904W        W44768   5.689  21.774  20.963
43905W        W44769   6.941  20.302  18.399
43906W        W44770   5.440  20.046  19.605
43907W        W44771   7.186  18.326  21.118
43908W        W44772   5.360  20.491  20.884
43909W        W44773   5.559  19.273  20.244
43910W        W44774   6.485  19.489  18.942
43911W        W44775   6.864  19.346  18.627
43912W        W44776   6.647  21.206  19.159
43913W        W44777   6.482  20.736  19.910
43914W        W44778   6.235  19.928  19.044
43915W        W44779   5.773  20.129  20.061
43916W        W44780   6.785  19.888  19.945
43917W        W44781   4.036  18.836  20.507
43918W        W44782   6.668  20.065  21.125
43919W        W44783   7.131  21.629  20.331
43920W        W44784   4.988  21.260  19.881
43921W        W44785   6.204  21.769  20.862
43922W        W44786   6.031  18.893  20.733
43923W        W44787   5.220  21.973  20.957
43924W        W44788   7.040  18.704  19.249
43925W        W44789   7.026  19.958  20.475
43926W        W44790   3.737  19.060  20.853
43927W        W44791   6.608  19.092  19.701
43928W        W44792   6.877  19.213  21.096
43929W        W44793   5.929  20.932  19.780
43930W        W44794   5.216  21.443  19.462
43931W        W44795   4.101  18.531  18.682
43932W        W44796   5.392  18.369  20.294
43933W        W44797   4.182  21.692  18.436
43934W        W44798   5.460  20.203  18.902
43935W        W44799   5.332  20.727  21.343
43936W        W44800   5.440  18.702  19.271
43937W        W44801   6.679  18.592  19.631
43938W        W44802   6.403  21.785  19.956
43939W        W44803   5.682  21.574  20.255
43940W        W44804   5.114  20.599  20.442
43941W        W44805   6.916  21.241  20.640
43942W        W44806   4.392  18.493  19.142
43943W        W44807   5.271  21.237  20.324
43944W        W44808   4.473  18.873  18.150
43945W        W44809   5.389  19.459  20.718
43946W        W44810   6.125  18.525  20.368
43947W        W44811   3.641  20.094  20.680
43948W        W44812   5.440  19.968  18.419
43949W        W44813   4.498  18.379  18.294
43950W        W44814   5.605  19.519  19.600
43951W        W44815   6.205  18.448  20.882
43952W        W44816   4.903  20.673  21.083
43953W        W44817   5.746  20.039  21.373
43954W        W44818   6.235  20.264  21.339
43955W        W44819   5.569  18.387  21.844
43956W        W44820   4.753  18.969  20.140
43957W        W44821   4.096  18.778  19.660
43958W        W44822   3.857  21.629  19.492
43959W        W44823   5.439  21.245  21.468
43960W        W44824   5.059  20.718  18.915
43961W        W44825   6.294  20.038  20.039
43962W        W44826   6.210  19.660  20.410
43963W        W44827   5.635  20.433  20.462
43964W        W44828   6.092  20.684  18.231
43965W        W44829   5.870  18.673  19.608
43966W        W44830   7.203  19.127  18.980
43967W        W44831   3.822  21.628  21.335
43968W        W44832   4.100  20.833  20.748
43969W        W44833   3.462  21.810  19.158
43970W        W44834   5.546  18.840  20.566
43971W        W44835   4.804  21.249  18.956
43972W        W44836   7.002  21.480  18.907
43973W        W44837   5.872  19.973  18.690
43974W        W44838   5.322  19.213  19.258
43975W        W44839   5.421  18.905  18.309
43976W        W44840   5.801  20.553  21.407
43977W        W44841   6.515  18.585  19.086
43978W        W44842   3.633  18.192  18.570
43979W        W44843   4.995  21.037  20.733
43980W        W44844   4.723  20.505  20.089
43981W        W44845   4.855  21.026  18.391
43982W        W44846   3.626  21.319  19.158
43983W        W44847   4.252  20.020  21.348
43984W        W44848   4.915  18.411  21.324
43985W        W44849   5.699  18.535  20.966
43986W        W44850   5.114  18.303  19.466
43987W        W44851   6.390  18.398  18.622
43988W        W44852   3.809  18.351  20.396
43989W        W44853   3.700  19.201  19.763
43990W        W44854   6.776  18.568  20.159
43991W        W44855   3.954  18.773  19.139
43992W        W44856   6.558  18.718  20.590
43993W        W44857   6.989  19.798  18.380
43994W        W44858   4.328  18.666  20.124
43995W        W44859   5.625  19.067  21.035
43996W        W44860   3.589  18.692  18.548
43997W        W44861   4.461  20.421  21.075
43998W        W44862   5.714  19.804  20.464
43999W        W44863   5.546  21.766  18.540
44000W        W44864   3.604  20.055  18.232
44001W        W44865   4.605  20.859  21.467
44002W        W44866   3.934  19.769  21.035
44003W        W44867   4.884  20.248  20.803
44004W        W44868   6.676  18.344  21.038
44005W        W44869   7.246  20.081  20.991
44006W        W44870   7.226  20.069  18.762
44007W        W44871   6.050  20.434  18.860
44008W        W44872   6.452  21.721  18.324
44009W        W44873   5.783  19.612  21.676
44010W        W44874   4.201  20.931  21.801
44011W        W44875   7.292  18.735  21.754
44012W        W44876   6.706  19.571  20.369
44013W        W44877   5.106  21.945  21.807
44014W        W44878   4.963  18.238  18.614
44015W        W44879   6.799  20.778  18.495
44016W        W44880   4.562  19.049  21.251
44017W        W44881   4.965  21.170  21.239
44018W        W44882   6.978  18.755  20.900
44019W        W44883   6.555  21.723  18.834
44020W        W44884   6.507  20.456  20.353
44021W        W44885   4.715  18.687  20.934
44022W        W44886   5.318  19.816  21.628
44023W        W44887   4.478  20.908  19.289
44024W        W44888   6.428  20.363  19.226
44025W        W44889   4.199  18.816  20.984
44026W        W44890   5.497  20.939  19.477
44027W        W44891   7.112  19.691  19.585
44028W        W44892   5.408  18.313  21.334
44029W        W44893   6.357  20.980  20.343
44030W        W44894   6.680  21.399  20.217
44031W        W44895   5.672  21.277  18.390
44032W        W44896   3.716  20.849  21.607
44033W        W44897   4.558  19.092  20.648
44034W        W44898   4.451  18.384  19.658
44035W        W44899   6.082  19.160  20.263
44036W        W44900   5.160  20.409  18.471
44037W        W44901   6.982  20.347  20.154
44038W        W44902   4.147  21.223  21.394
44039W        W44903   6.836  21.857  19.262
44040W        W44904   5.053  18.817  19.634
44041W        W44905   4.206  20.375  20.057
44042W        W44906   4.872  21.988  20.566
44043W        W44907   6.825  21.908  21.465
44044W        W44908   6.075  20.182  20.481
44045W        W44909   3.809  19.591  18.378
44046W        W44910   7.081  21.447  19.429
44047W        W44911   6.666  18.854  18.679
44048W        W44912   4.737  18.172  20.897
44049W        W44913   6.761  21.105  19.653
44050W        W44914   6.652  19.518  19.435
44051W        W44915   5.153  19.314  19.897
44052W        W44916   5.213  19.654  21.160
44053W        W44917   6.201  20.768  21.149
44054W        W44918   4.984  19.219  20.969
44055W        W44919   4.723  21.707  19.831
44056W        W44920   4.230  21.649  21.678
44057W        W44921   4.352  21.211  18.258
44058W        W44922   6.798  20.702  19.327
44059W        W44923   4.536  19.500  20.997
44060W        W44924   7.349  19.562  18.675
44061W        W44925   5.298  20.486  19.336
44062W        W44926   6.071  19.862  20.882
44063W        W44927   5.889  19.381  20.695
44064W        W44928   4.368  19.967  20.842
44065W        W44929   6.674  21.769  20.592
44066W        W44930   6.416  18.390  21.505
44067W        W44931   3.907  18.439  21.351
44068W        W44932   4.515  19.611  20.473
44069W        W44933   4.947  19.143  18.203
44070W        W44934   3.736  21.006  21.093
44071W        W44935   5.272  20.081  20.511
44072W        W44936   4.970  18.602  18.227
44073W        W44937   4.564  20.025  19.904
44074W        W44938   3.908  21.847  20.849
44075W        W44939   6.720  19.931  18.799
44076W        W44940   6.869  18.681  21.406
44077W        W44941   6.323  20.859  19.434
44078W        W44942   3.651  19.834  21.532
44079W        W44943   6.991  18.429  18.795
44080W        W44944   6.481  20.776  18.906
44081W        W44945   5.733  19.800  19.168
44082W        W44946   6.345  18.733  18.246
44083W        W44947   6.402  19.231  20.663
44084W        W44948   3.742  19.678  19.998
44085W        W44949   4.604  20.920  19.788
44086W        W44950   6.139  19.508  19.361
44087W        W44951   5.254  18.854  20.123
44088W        W44952   7.158  20.791  20.651
44089W        W44953   7.197  18.813  20.395
44090W        W44954   3.679  21.661  19.995
44091W        W44955   3.959  20.938  19.289
44092W        W44956   4.176  18.490  21.830
44093W        W44957   5.062  21.449  21.799
44094W        W44958   7.183  20.184  19.686
44095W        W44959   6.456  20.314  18.577
44096W        W44960   5.773  22.040  20.532
44097W        W44961   6.610  20.400  21.683
44098W        W44962   5.322  18.152  19.010
44099W        W44963   6.022  19.177  19.753
44100W        W44964   3.786  20.724  20.252
44101W        W44965   4.980  18.543  19.037
44102W        W44966   4.931  20.471  21.580
44103W        W44967   5.823  19.102  19.277
44104W        W44968   6.017  20.763  20.659
44105W        W44969   4.085  21.361  20.911
44106W        W44970   4.594  21.297  21.713
44107W        W44971   4.625  18.662  18.684
44108W        W44972   6.201  19.001  18.912
44109W        W44973   6.267  21.284  21.203
44110W        W44974   4.925  19.859  20.228
44111W        W44975   4.427  21.710  20.744
44112W        W44976   6.967  21.679  18.420
44113W        W44977   3.867  20.338  21.543
44114W        W44978   6.027  20.592  20.156
44115W        W44979   4.450  20.469  19.613
44116W        W44980   4.908  21.537  20.849
44117W        W44981   5.436  18.504  19.801
44118W        W44982   3.507  20.717  19.134
44119W        W44983   5.411  19.405  18.297
44120W        W44984   3.775  20.383  19.706
44121W        W44985   5.235  18.709  21.002
44122W        W44986   6.817  18.517  18.321
44123W        W44987   7.036  20.227  21.445
44124W        W44988   5.848  21.567  21.406
44125W        W44989   7.200  20.630  21.122
44126W        W44990   6.663  21.411  21.582
44127W        W44991   4.472  21.900  20.254
44128W        W44992   7.241  20.444  19.254
44129W        W44993   5.899  19.605  20.018
44130W        W44994   5.650  18.248  19.407
44131W        W44995   4.692  21.340  19.471
44132W        W44996   5.035  18.894  20.576
44133W        W44997   4.937  18.421  19.977
44134W        W44998   3.774  21.414  18.619
44135W        W44999   5.639  20.505  19.737
44136W        W45000   4.550  21.493  21.219
44137W        W45001   3.556  20.188  19.253
44138W        W45002   3.780  18.783  20.070
44139W        W45003   5.509  20.796  20.130
44140W        W45004   3.567  18.460  19.033
44141W        W45005   6.539  19.987  20.616
44142W        W45006   6.362  19.228  18.493
44143W        W45007   6.843  20.860  20.260
44144W        W45008   5.512  21.261  19.873
44145W        W45009   4.853  21.726  19.178
44146W        W45010   5.956  18.285  18.210
44147W        W45011   4.055  21.582  20.411
44148W        W45012   5.937  19.140  21.612
44149W        W45013   4.135  18.865  21.495
44150W        W45014   3.586  19.123  19.245
44151W        W45015   5.494  19.567  18.773
44152W        W45016   6.177  19.732  21.362
44153W        W45017   4.548  20.154  20.412
44154W        W45018   6.244  18.344  19.484
44155W        W45019   5.232  21.697  20.011
44156W        W45020   6.422  21.310  20.723
44157W        W45021   6.335  21.224  19.898
44158W        W45022   6.153  20.401  19.681
44159W        W45023   5.415  18.540  18.687
44160W        W45024   7.298  18.417  19.611
44161W        W45025   5.006  19.711  18.262
44162W        W45026   7.049  19.203  19.468
44163W        W45027   5.685  20.449  18.486
44164W        W45028   6.686  20.571  21.202
44165W        W45029   6.648  21.258  18.613
44166W        W45030   5.032  18.917  21.399
44167W        W45031   4.933  19.740  20.743
44168W        W45032   6.828  21.080  21.168
44169W        W45033   6.029  18.784  21.249
44170W        W45034   3.582  19.398  21.215
44171W        W45035   5.541  19.963  20.913
44172W        W45036   4.073  20.800  19.786
44173W        W45037   4.023  19.821  20.463
44174W        W45038   6.360  20.392  20.849
44175W        W45039   6.330  21.759  21.392
44176W        W45040   6.150  19.263  21.125
44177W        W45041   6.528  21.546  19.526
44178W        W45042   5.383  21.345  20.942
44179W        W45043   4.844  21.528  20.332
44180W        W45044   6.622  20.826  20.754
44181W        W45045   5.568  20.826  21.799
44182W        W45046   4.311  20.841  20.246
44183W        W45047   6.686  20.332  19.695
44184W        W45048   6.183  21.527  20.333
44185W        W45049   4.459  21.231  20.557
44186W        W45050   5.406  19.279  21.480
44187W        W45051   5.321  21.158  19.028
44188W        W45052   5.061  20.963  21.698
44189W        W45053   4.992  20.944  19.381
44190W        W45054   4.202  19.387  18.074
44191W        W45055   3.773  21.933  25.375
44192W        W45056   4.134  20.756  24.833
44193W        W45057   6.568  20.162  22.576
44194W        W45058   7.163  21.541  24.672
44195W        W45059   4.676  21.731  22.054
44196W        W45060   5.033  19.770  23.348
44197W        W45061   4.672  19.593  23.697
44198W        W45062   5.687  19.992  22.641
44199W        W45063   5.145  21.547  25.056
44200W        W45064   3.724  18.951  24.927
44201W        W45065   4.310  18.199  24.802
44202W        W45066   6.237  18.724  23.598
44203W        W45067   5.861  19.310  22.126
44204W        W45068   6.374  19.118  25.291
44205W        W45069   3.862  18.598  24.544
44206W        W45070   3.840  21.399  25.404
44207W        W45071   5.283  21.139  22.153
44208W        W45072   3.920  19.357  24.035
44209W        W45073   4.912  19.506  25.257
44210W        W45074   7.023  19.224  23.705
44211W        W45075   6.806  20.248  24.512
44212W        W45076   5.458  19.690  23.647
44213W        W45077   5.846  21.246  24.021
44214W        W45078   4.491  20.548  24.170
44215W        W45079   3.592  19.689  23.829
44216W        W45080   4.886  20.017  25.151
44217W        W45081   6.966  19.724  25.151
44218W        W45082   4.381  21.379  23.841
44219W        W45083   5.731  20.905  24.810
44220W        W45084   5.154  19.496  24.026
44221W        W45085   5.434  20.241  23.860
44222W        W45086   6.128  21.517  25.486
44223W        W45087   5.158  20.316  25.522
44224W        W45088   5.418  20.167  25.077
44225W        W45089   3.696  19.315  25.311
44226W        W45090   6.483  20.947  25.248
44227W        W45091   4.132  18.369  23.096
44228W        W45092   4.634  21.049  24.183
44229W        W45093   7.065  20.654  23.652
44230W        W45094   6.703  18.810  23.815
44231W        W45095   6.768  18.927  21.921
44232W        W45096   7.298  19.757  24.383
44233W        W45097   5.374  21.456  24.178
44234W        W45098   6.925  21.026  22.435
44235W        W45099   4.064  22.147  22.601
44236W        W45100   4.520  21.813  23.048
44237W        W45101   4.480  18.505  24.406
44238W        W45102   6.887  19.540  24.643
44239W        W45103   6.291  19.888  23.349
44240W        W45104   6.256  19.539  21.867
44241W        W45105   5.543  20.955  24.338
44242W        W45106   5.635  19.217  23.517
44243W        W45107   5.977  21.233  24.513
44244W        W45108   6.782  19.958  23.130
44245W        W45109   5.857  18.624  22.795
44246W        W45110   4.263  21.672  22.585
44247W        W45111   3.813  18.755  23.233
44248W        W45112   6.031  19.561  23.711
44249W        W45113   3.733  21.104  23.972
44250W        W45114   5.173  21.660  22.253
44251W        W45115   6.537  19.374  21.448
44252W        W45116   3.671  21.478  24.329
44253W        W45117   4.478  21.100  24.655
44254W        W45118   5.149  20.274  23.431
44255W        W45119   4.894  18.695  24.139
44256W        W45120   7.098  18.417  23.822
44257W        W45121   4.387  20.437  21.629
44258W        W45122   4.083  18.946  22.030
44259W        W45123   3.952  21.275  23.506
44260W        W45124   5.157  20.795  23.534
44261W        W45125   6.675  21.522  24.908
44262W        W45126   5.597  18.973  22.482
44263W        W45127   6.913  21.562  23.638
44264W        W45128   6.501  19.577  24.992
44265W        W45129   7.342  21.101  23.356
44266W        W45130   5.837  20.397  24.844
44267W        W45131   3.468  20.335  23.117
44268W        W45132   4.785  20.606  24.592
44269W        W45133   5.847  19.496  22.602
44270W        W45134   5.899  20.235  23.083
44271W        W45135   4.111  19.455  24.945
44272W        W45136   4.094  18.353  23.600
44273W        W45137   5.767  18.851  23.849
44274W        W45138   5.520  18.838  25.246
44275W        W45139   5.938  18.627  22.249
44276W        W45140   7.113  21.477  25.182
44277W        W45141   5.990  18.362  25.087
44278W        W45142   6.958  21.005  25.449
44279W        W45143   6.464  18.891  24.840
44280W        W45144   6.280  18.839  23.008
44281W        W45145   6.595  20.003  25.545
44282W        W45146   4.218  21.747  23.526
44283W        W45147   5.079  18.739  22.254
44284W        W45148   4.528  18.612  25.112
44285W        W45149   6.675  19.182  22.840
44286W        W45150   6.597  19.682  22.731
44287W        W45151   4.726  21.797  25.306
44288W        W45152   4.576  17.976  22.378
44289W        W45153   7.095  18.761  23.462
44290W        W45154   7.071  21.198  21.824
44291W        W45155   4.007  20.407  24.042
44292W        W45156   6.000  18.646  21.744
44293W        W45157   7.183  21.126  23.848
44294W        W45158   7.001  18.478  24.500
44295W        W45159   5.691  19.667  25.105
44296W        W45160   5.189  20.646  23.048
44297W        W45161   6.104  19.994  25.772
44298W        W45162   5.813  18.378  23.671
44299W        W45163   4.311  19.198  23.726
44300W        W45164   4.175  20.343  24.531
44301W        W45165   5.386  21.680  23.279
44302W        W45166   6.805  19.291  24.177
44303W        W45167   5.808  21.700  24.864
44304W        W45168   6.859  20.294  22.141
44305W        W45169   5.485  19.962  23.186
44306W        W45170   7.310  18.451  24.943
44307W        W45171   5.333  20.620  24.692
44308W        W45172   5.669  19.341  24.029
44309W        W45173   6.333  19.424  22.376
44310W        W45174   6.849  19.392  22.390
44311W        W45175   7.009  21.010  22.964
44312W        W45176   6.538  20.724  23.723
44313W        W45177   6.151  19.874  22.833
44314W        W45178   5.834  20.031  23.565
44315W        W45179   6.695  19.769  23.703
44316W        W45180   4.267  18.992  24.214
44317W        W45181   6.618  20.070  25.013
44318W        W45182   7.160  21.576  24.101
44319W        W45183   4.987  21.291  23.544
44320W        W45184   6.263  21.662  24.613
44321W        W45185   6.018  19.014  24.532
44322W        W45186   5.381  21.847  24.561
44323W        W45187   6.814  18.704  22.938
44324W        W45188   6.814  19.820  24.207
44325W        W45189   3.820  19.097  24.454
44326W        W45190   6.632  18.983  23.340
44327W        W45191   6.843  19.227  25.072
44328W        W45192   6.019  20.861  23.715
44329W        W45193   4.929  21.522  23.088
44330W        W45194   4.123  18.498  22.362
44331W        W45195   5.408  18.516  24.061
44332W        W45196   4.190  21.910  22.135
44333W        W45197   4.720  20.558  23.324
44334W        W45198   5.482  20.663  25.188
44335W        W45199   5.354  18.678  22.880
44336W        W45200   6.624  18.467  23.376
44337W        W45201   6.652  21.855  23.965
44338W        W45202   5.748  21.748  23.801
44339W        W45203   5.156  20.571  24.211
44340W        W45204   6.994  21.144  24.417
44341W        W45205   4.498  18.361  22.732
44342W        W45206   5.120  21.035  23.986
44343W        W45207   4.623  18.727  21.682
44344W        W45208   5.430  19.481  24.476
44345W        W45209   6.137  18.564  24.070
44346W        W45210   3.686  20.264  24.410
44347W        W45211   5.626  19.897  22.067
44348W        W45212   4.627  18.200  21.834
44349W        W45213   5.390  19.449  23.130
44350W        W45214   6.195  18.525  24.576
44351W        W45215   5.008  20.506  25.059
44352W        W45216   5.869  20.115  25.318
44353W        W45217   6.270  20.428  25.191
44354W        W45218   5.514  18.459  25.581
44355W        W45219   4.747  19.160  23.980
44356W        W45220   4.302  18.816  23.358
44357W        W45221   4.076  21.579  23.063
44358W        W45222   5.652  21.271  25.152
44359W        W45223   4.951  20.849  22.473
44360W        W45224   6.265  20.030  23.860
44361W        W45225   6.357  19.596  24.114
44362W        W45226   5.600  20.353  24.348
44363W        W45227   6.149  20.606  21.763
44364W        W45228   5.814  18.760  23.312
44365W        W45229   7.122  19.033  22.641
44366W        W45230   3.729  21.619  24.967
44367W        W45231   3.901  20.784  24.370
44368W        W45232   3.710  21.795  22.777
44369W        W45233   5.548  18.941  24.350
44370W        W45234   4.788  21.280  22.240
44371W        W45235   6.936  21.512  22.656
44372W        W45236   6.089  19.877  22.301
44373W        W45237   4.719  18.819  22.636
44374W        W45238   5.539  18.900  21.965
44375W        W45239   5.962  20.853  25.272
44376W        W45240   6.331  18.502  22.593
44377W        W45241   3.698  18.166  22.298
44378W        W45242   5.058  21.023  24.499
44379W        W45243   4.856  20.450  23.816
44380W        W45244   4.674  20.827  21.991
44381W        W45245   4.088  21.090  22.967
44382W        W45246   4.219  19.953  25.134
44383W        W45247   5.029  18.500  25.258
44384W        W45248   5.708  18.594  24.699
44385W        W45249   5.083  18.277  23.147
44386W        W45250   5.883  18.181  22.541
44387W        W45251   4.080  18.470  24.110
44388W        W45252   3.914  19.242  23.406
44389W        W45253   6.643  18.356  24.049
44390W        W45254   4.174  18.783  22.804
44391W        W45255   6.541  18.826  24.313
44392W        W45256   6.771  19.443  21.889
44393W        W45257   4.455  18.704  23.842
44394W        W45258   5.578  19.176  24.863
44395W        W45259   3.650  18.710  22.303
44396W        W45260   4.523  20.308  24.915
44397W        W45261   5.754  19.856  24.045
44398W        W45262   5.568  22.000  22.418
44399W        W45263   3.429  20.411  21.818
44400W        W45264   4.614  20.822  25.067
44401W        W45265   3.936  19.882  24.664
44402W        W45266   5.093  20.162  24.683
44403W        W45267   6.607  18.384  24.844
44404W        W45268   7.192  20.064  24.819
44405W        W45269   7.004  19.903  22.479
44406W        W45270   6.084  20.331  22.588
44407W        W45271   6.503  21.822  21.868
44408W        W45272   5.728  19.680  25.613
44409W        W45273   4.177  20.499  25.277
44410W        W45274   7.301  18.740  25.405
44411W        W45275   6.509  19.293  23.726
44412W        W45276   5.181  21.792  25.531
44413W        W45277   5.085  18.194  22.158
44414W        W45278   6.678  20.800  22.014
44415W        W45279   4.582  19.156  25.023
44416W        W45280   5.144  21.025  25.014
44417W        W45281   6.921  18.980  24.629
44418W        W45282   6.438  21.677  22.728
44419W        W45283   6.421  20.436  24.155
44420W        W45284   4.765  18.820  24.678
44421W        W45285   5.279  19.827  25.442
44422W        W45286   4.557  21.297  22.793
44423W        W45287   6.407  20.302  23.042
44424W        W45288   4.247  18.894  24.726
44425W        W45289   5.315  21.168  23.159
44426W        W45290   7.093  19.646  23.402
44427W        W45291   5.461  18.341  25.071
44428W        W45292   6.315  20.974  24.131
44429W        W45293   6.719  21.276  24.017
44430W        W45294   5.540  21.649  21.847
44431W        W45295   3.782  20.901  25.187
44432W        W45296   4.593  19.272  24.517
44433W        W45297   4.587  18.392  23.424
44434W        W45298   6.165  19.110  24.050
44435W        W45299   5.165  20.608  22.049
44436W        W45300   6.893  20.271  23.966
44437W        W45301   4.241  21.200  25.119
44438W        W45302   6.842  21.932  22.954
44439W        W45303   4.886  18.814  23.598
44440W        W45304   4.437  20.041  23.962
44441W        W45305   4.995  21.913  24.219
44442W        W45306   6.801  21.895  25.242
44443W        W45307   6.054  20.099  24.363
44444W        W45308   3.836  19.247  21.655
44445W        W45309   7.091  21.501  23.155
44446W        W45310   6.614  18.902  22.419
44447W        W45311   4.833  18.311  24.784
44448W        W45312   6.820  21.088  23.459
44449W        W45313   6.616  19.488  23.250
44450W        W45314   5.096  19.302  23.549
44451W        W45315   5.229  19.720  24.903
44452W        W45316   6.233  20.832  24.825
44453W        W45317   5.049  19.261  24.830
44454W        W45318   4.735  21.722  23.537
44455W        W45319   4.220  21.753  25.186
44456W        W45320   4.284  21.381  22.122
44457W        W45321   6.767  20.616  23.228
44458W        W45322   4.596  19.661  24.890
44459W        W45323   7.205  19.154  22.080
44460W        W45324   4.823  21.015  23.139
44461W        W45325   6.099  19.924  24.902
44462W        W45326   5.960  19.565  24.448
44463W        W45327   4.430  19.905  24.476
44464W        W45328   6.733  21.628  24.406
44465W        W45329   6.430  18.568  25.302
44466W        W45330   4.014  18.537  25.033
44467W        W45331   4.395  19.534  24.121
44468W        W45332   5.024  19.084  21.870
44469W        W45333   3.790  21.147  24.723
44470W        W45334   5.298  19.942  24.261
44471W        W45335   5.105  18.566  21.774
44472W        W45336   4.643  20.077  23.492
44473W        W45337   3.838  21.913  24.562
44474W        W45338   6.589  19.834  22.167
44475W        W45339   6.892  18.724  25.100
44476W        W45340   6.335  20.884  23.278
44477W        W45341   3.723  19.817  25.114
44478W        W45342   6.768  18.276  22.336
44479W        W45343   6.633  20.668  22.722
44480W        W45344   6.417  18.543  22.053
44481W        W45345   6.435  19.311  24.541
44482W        W45346   4.123  19.698  23.689
44483W        W45347   4.669  20.926  23.689
44484W        W45348   6.225  19.373  22.917
44485W        W45349   5.275  18.993  23.905
44486W        W45350   7.137  20.666  24.566
44487W        W45351   7.089  18.859  24.151
44488W        W45352   3.669  21.604  23.814
44489W        W45353   4.254  20.869  23.391
44490W        W45354   4.171  18.564  25.513
44491W        W45355   5.259  21.262  25.491
44492W        W45356   7.119  20.172  23.473
44493W        W45357   6.348  20.304  22.130
44494W        W45358   5.819  21.702  24.327
44495W        W45359   6.688  20.538  25.514
44496W        W45360   5.396  18.065  22.728
44497W        W45361   6.137  19.179  23.380
44498W        W45362   3.515  20.630  24.069
44499W        W45363   5.000  18.377  22.630
44500W        W45364   4.660  20.408  25.420
44501W        W45365   5.780  19.125  22.965
44502W        W45366   5.998  20.670  24.400
44503W        W45367   4.145  21.518  24.710
44504W        W45368   4.759  21.268  25.341
44505W        W45369   4.633  18.474  22.247
44506W        W45370   6.111  19.008  22.551
44507W        W45371   6.173  21.316  25.000
44508W        W45372   5.012  19.952  23.832
44509W        W45373   4.511  21.585  24.366
44510W        W45374   7.029  21.707  21.893
44511W        W45375   3.823  20.305  24.942
44512W        W45376   5.923  20.400  23.948
44513W        W45377   4.348  20.461  23.673
44514W        W45378   4.988  21.518  24.544
44515W        W45379   5.367  18.615  23.531
44516W        W45380   3.163  20.657  22.215
44517W        W45381   5.391  19.427  21.977
44518W        W45382   3.785  20.144  23.670
44519W        W45383   5.242  18.758  24.816
44520W        W45384   6.894  18.436  21.860
44521W        W45385   7.044  20.215  25.306
44522W        W45386   5.668  21.725  25.385
44523W        W45387   7.223  20.676  25.071
44524W        W45388   6.639  21.419  25.409
44525W        W45389   4.521  21.903  23.957
44526W        W45390   7.264  20.589  23.192
44527W        W45391   5.872  19.614  23.214
44528W        W45392   5.614  18.306  23.149
44529W        W45393   4.467  21.338  23.319
44530W        W45394   5.073  19.115  24.363
44531W        W45395   4.994  18.335  23.783
44532W        W45396   3.825  21.571  22.286
44533W        W45397   5.626  20.499  23.445
44534W        W45398   4.622  21.520  24.901
44535W        W45399   4.005  20.409  23.276
44536W        W45400   3.944  18.828  23.753
44537W        W45401   5.541  20.752  23.883
44538W        W45402   3.728  18.480  22.770
44539W        W45403   6.457  19.845  24.558
44540W        W45404   6.266  19.028  22.039
44541W        W45405   6.881  20.769  24.100
44542W        W45406   5.477  21.261  23.669
44543W        W45407   4.780  21.710  22.586
44544W        W45408   6.031  18.164  21.953
44545W        W45409   4.063  21.750  24.112
44546W        W45410   5.882  19.235  25.397
44547W        W45411   4.138  19.013  25.221
44548W        W45412   3.537  19.144  23.033
44549W        W45413   4.600  18.971  22.145
44550W        W45414   6.182  19.667  25.374
44551W        W45415   4.826  20.168  24.262
44552W        W45416   6.143  18.372  23.196
44553W        W45417   5.218  21.721  23.765
44554W        W45418   6.487  21.210  24.555
44555W        W45419   6.358  21.260  23.660
44556W        W45420   6.158  20.423  23.488
44557W        W45421   5.477  18.462  22.394
44558W        W45422   7.083  18.325  23.201
44559W        W45423   7.075  19.166  23.170
44560W        W45424   5.823  20.374  22.099
44561W        W45425   6.735  20.559  24.986
44562W        W45426   6.695  21.397  22.138
44563W        W45427   5.013  18.995  25.257
44564W        W45428   4.919  19.667  24.472
44565W        W45429   6.882  21.053  24.916
44566W        W45430   5.990  18.871  25.023
44567W        W45431   3.624  19.453  24.769
44568W        W45432   5.638  19.936  24.655
44569W        W45433   3.824  20.705  23.654
44570W        W45434   3.980  19.894  24.148
44571W        W45435   6.335  20.352  24.687
44572W        W45436   6.296  21.824  25.112
44573W        W45437   6.059  19.366  24.918
44574W        W45438   6.577  21.551  23.244
44575W        W45439   5.464  21.340  24.678
44576W        W45440   4.856  21.473  24.009
44577W        W45441   6.629  20.737  24.523
44578W        W45442   5.536  20.692  25.686
44579W        W45443   4.205  20.896  23.921
44580W        W45444   6.621  20.244  23.538
44581W        W45445   6.274  21.520  24.120
44582W        W45446   4.131  21.242  24.284
44583W        W45447   5.384  19.331  25.370
44584W        W45448   5.577  21.489  22.519
44585W        W45449   4.990  20.812  25.485
44586W        W45450   5.106  21.307  22.660
44587W        W45451   4.431  19.224  21.714
44588W        W45452   3.811  21.861  28.894
44589W        W45453   4.091  20.746  28.614
44590W        W45454   6.943  20.379  26.333
44591W        W45455   7.051  21.525  28.256
44592W        W45456   4.712  21.661  25.797
44593W        W45457   4.883  19.632  26.666
44594W        W45458   4.357  19.490  26.873
44595W        W45459   5.452  20.186  26.353
44596W        W45460   5.116  21.490  28.268
44597W        W45461   3.906  19.039  28.536
44598W        W45462   4.355  18.364  28.240
44599W        W45463   6.313  18.695  27.285
44600W        W45464   5.921  19.332  25.946
44601W        W45465   6.494  18.981  28.813
44602W        W45466   3.971  18.698  28.142
44603W        W45467   3.984  21.337   0.004
44604W        W45468   5.204  20.461  26.016
44605W        W45469   3.839  19.372  27.564
44606W        W45470   4.810  19.562  28.758
44607W        W45471   7.075  19.158  27.360
44608W        W45472   6.900  20.281  27.958
44609W        W45473   5.283  19.558  27.031
44610W        W45474   5.888  21.106  27.647
44611W        W45475   4.279  20.336  27.756
44612W        W45476   3.612  19.873  27.463
44613W        W45477   4.808  19.983  28.418
44614W        W45478   7.076  19.718  28.746
44615W        W45479   4.535  21.089  27.187
44616W        W45480   5.758  20.860  28.179
44617W        W45481   5.071  19.295  27.489
44618W        W45482   5.138  20.271  27.238
44619W        W45483   5.798  21.228   0.097
44620W        W45484   5.264  20.342  28.962
44621W        W45485   5.330  20.124  28.491
44622W        W45486   3.749  19.283  28.976
44623W        W45487   6.389  20.980  28.812
44624W        W45488   4.109  18.471  26.696
44625W        W45489   4.596  20.765  27.758
44626W        W45490   7.299  20.767  27.120
44627W        W45491   6.468  19.075  27.616
44628W        W45492   6.839  19.020  25.552
44629W        W45493   7.412  19.734  28.005
44630W        W45494   5.137  21.549  27.749
44631W        W45495   7.237  21.153  26.292
44632W        W45496   4.064  21.908  26.234
44633W        W45497   4.447  21.798  26.610
44634W        W45498   4.532  18.564  27.793
44635W        W45499   7.111  19.440  28.309
44636W        W45500   6.249  19.857  26.839
44637W        W45501   6.375  19.586  25.894
44638W        W45502   5.535  20.738  27.682
44639W        W45503   5.292  19.043  27.073
44640W        W45504   5.954  21.335  28.095
44641W        W45505   6.939  20.048  26.768
44642W        W45506   5.853  18.638  26.495
44643W        W45507   4.372  21.496  26.167
44644W        W45508   3.801  18.878  26.772
44645W        W45509   6.348  19.536  27.288
44646W        W45510   4.007  21.176  27.270
44647W        W45511   5.170  21.487  25.952
44648W        W45512   6.670  19.494  25.491
44649W        W45513   3.828  21.228  27.795
44650W        W45514   4.492  20.828  28.254
44651W        W45515   4.825  20.353  26.823
44652W        W45516   5.054  18.586  27.806
44653W        W45517   7.191  18.380  27.378
44654W        W45518   4.306  20.102  25.631
44655W        W45519   4.048  19.045  25.723
44656W        W45520   4.198  21.158  26.792
44657W        W45521   4.882  20.874  26.829
44658W        W45522   6.588  21.429  28.609
44659W        W45523   5.621  19.079  26.287
44660W        W45524   6.886  21.791  27.190
44661W        W45525   6.652  19.586  28.470
44662W        W45526   7.457  21.112  26.759
44663W        W45527   5.835  20.346  28.266
44664W        W45528   3.532  20.021  26.574
44665W        W45529   4.725  20.374  28.050
44666W        W45530   5.877  19.492  26.474
44667W        W45531   5.755  19.948  26.686
44668W        W45532   4.269  19.459  27.867
44669W        W45533   4.232  19.382  28.731
44670W        W45534   3.986  18.378  27.173
44671W        W45535   5.928  18.829  27.605
44672W        W45536   5.515  18.797  28.713
44673W        W45537   5.958  18.795  26.007
44674W        W45538   7.081  21.286  28.739
44675W        W45539   6.009  18.421  28.695
44676W        W45540   6.885  20.808  28.825
44677W        W45541   6.644  19.082  28.318
44678W        W45542   6.201  18.842  26.806
44679W        W45543   6.657  19.954  28.991
44680W        W45544   4.314  21.569  27.081
44681W        W45545   5.136  19.048  26.135
44682W        W45546   4.635  18.449  28.709
44683W        W45547   6.653  19.019  26.599
44684W        W45548   7.033  19.614  26.483
44685W        W45549   4.779  21.665  28.863
44686W        W45550   4.587  18.312  26.110
44687W        W45551   7.010  18.765  27.019
44688W        W45552   7.366  21.071  25.796
44689W        W45553   3.910  20.308  27.344
44690W        W45554   5.984  18.745  25.510
44691W        W45555   7.181  21.160  27.458
44692W        W45556   7.153  18.395  27.914
44693W        W45557   5.731  19.398  28.674
44694W        W45558   5.279  20.656  26.551
44695W        W45559   6.152  20.122   0.092
44696W        W45560   5.960  18.344  27.448
44697W        W45561   4.306  19.252  27.338
44698W        W45562   4.002  20.419  28.220
44699W        W45563   5.722  21.449  27.089
44700W        W45564   6.928  19.208  27.887
44701W        W45565   5.608  21.559  28.373
44702W        W45566   6.973  20.246  25.832
44703W        W45567   5.231  20.023  26.795
44704W        W45568   7.268  18.381  28.406
44705W        W45569   5.347  20.436  28.082
44706W        W45570   5.591  19.299  27.415
44707W        W45571   6.538  19.480  26.388
44708W        W45572   6.851  19.369  25.970
44709W        W45573   6.810  21.352  26.502
44710W        W45574   6.254  20.781  27.359
44711W        W45575   6.201  19.865  26.292
44712W        W45576   5.574  19.985  27.182
44713W        W45577   6.721  19.995  27.257
44714W        W45578   4.136  18.963  27.737
44715W        W45579   6.699  20.097  28.444
44716W        W45580   7.150  21.633  27.643
44717W        W45581   5.015  21.270  27.138
44718W        W45582   6.140  21.681  28.455
44719W        W45583   6.172  18.999  28.052
44720W        W45584   5.345  21.926  28.084
44721W        W45585   6.982  18.636  26.502
44722W        W45586   6.862  19.776  28.015
44723W        W45587   3.830  19.219  28.065
44724W        W45588   6.603  19.098  27.111
44725W        W45589   6.981  19.149  28.692
44726W        W45590   5.753  20.907  27.183
44727W        W45591   5.173  21.596  26.752
44728W        W45592   4.185  18.633  26.019
44729W        W45593   5.450  18.336  27.516
44730W        W45594   4.223  21.885  25.731
44731W        W45595   4.932  20.093  26.374
44732W        W45596   5.465  20.621  28.535
44733W        W45597   5.366  18.726  26.623
44734W        W45598   6.595  18.517  26.870
44735W        W45599   6.393  21.802  27.320
44736W        W45600   5.648  21.573  27.733
44737W        W45601   5.059  20.534  27.675
44738W        W45602   6.880  21.220  27.871
44739W        W45603   4.527  18.655  26.482
44740W        W45604   4.983  21.045  27.599
44741W        W45605   4.560  18.963  25.513
44742W        W45606   5.361  19.508  27.877
44743W        W45607   6.313  18.542  27.793
44744W        W45608   3.759  20.208  27.829
44745W        W45609   5.200  19.935  25.953
44746W        W45610   4.661  18.462  25.624
44747W        W45611   5.201  19.222  26.610
44748W        W45612   6.367  18.629  28.373
44749W        W45613   4.963  20.493  28.481
44750W        W45614   5.749  20.285  28.817
44751W        W45615   6.216  20.221  28.587
44752W        W45616   5.646  18.444   0.064
44753W        W45617   4.875  18.823  27.350
44754W        W45618   4.344  18.954  26.880
44755W        W45619   3.951  21.686  26.696
44756W        W45620   5.428  21.130  28.610
44757W        W45621   4.398  20.667  26.042
44758W        W45622   6.086  19.971  27.324
44759W        W45623   6.431  19.889  27.719
44760W        W45624   5.467  20.209  27.638
44761W        W45625   6.036  20.489  25.655
44762W        W45626   5.734  18.703  27.123
44763W        W45627   7.122  19.110  26.356
44764W        W45628   3.895  21.515  28.502
44765W        W45629   4.092  20.805  27.905
44766W        W45630   3.569  21.983  26.375
44767W        W45631   5.638  19.075  27.920
44768W        W45632   4.709  21.159  25.927
44769W        W45633   7.064  21.670  26.169
44770W        W45634   5.725  19.818  26.104
44771W        W45635   4.685  19.162  26.482
44772W        W45636   5.553  18.995  25.743
44773W        W45637   5.999  20.696  28.616
44774W        W45638   6.433  18.590  26.367
44775W        W45639   3.762  18.348  25.860
44776W        W45640   5.017  20.840  28.093
44777W        W45641   4.745  20.617  27.278
44778W        W45642   4.456  20.881  25.551
44779W        W45643   3.911  21.282  26.375
44780W        W45644   4.396  19.897  28.753
44781W        W45645   5.156  18.344  28.881
44782W        W45646   5.798  18.693  28.259
44783W        W45647   4.975  18.317  26.712
44784W        W45648   6.036  18.302  26.131
44785W        W45649   4.029  18.442  27.699
44786W        W45650   3.866  19.325  27.048
44787W        W45651   6.799  18.707  27.477
44788W        W45652   4.130  18.987  26.393
44789W        W45653   6.753  18.715  27.988
44790W        W45654   7.084  19.765  25.684
44791W        W45655   4.361  18.735  27.347
44792W        W45656   5.411  19.171  28.356
44793W        W45657   3.596  18.835  25.909
44794W        W45658   4.432  20.341  28.487
44795W        W45659   5.720  19.751  27.612
44796W        W45660   5.571  21.836  25.909
44797W        W45661   3.796  20.182  25.470
44798W        W45662   4.598  20.753  28.747
44799W        W45663   4.130  19.922  28.281
44800W        W45664   5.069  19.997  27.959
44801W        W45665   6.758  18.260  28.251
44802W        W45666   7.207  20.051  28.346
44803W        W45667   7.255  19.986  26.190
44804W        W45668   5.932  20.297  26.152
44805W        W45669   6.514  21.844  25.681
44806W        W45670   5.798  19.761   0.043
44807W        W45671   4.287  20.448   0.009
44808W        W45672   7.305  18.769  28.850
44809W        W45673   6.798  19.557  27.533
44810W        W45674   5.275  21.584  28.812
44811W        W45675   5.094  18.273  25.898
44812W        W45676   7.253  20.602  25.585
44813W        W45677   4.523  18.960  28.669
44814W        W45678   4.868  21.119  28.507
44815W        W45679   7.156  18.892  28.265
44816W        W45680   6.533  21.727  26.197
44817W        W45681   6.533  20.387  27.578
44818W        W45682   4.754  18.715  28.237
44819W        W45683   5.317  19.757  28.848
44820W        W45684   4.510  21.030  26.406
44821W        W45685   6.504  20.197  26.534
44822W        W45686   4.348  19.066  28.201
44823W        W45687   5.383  21.106  26.826
44824W        W45688   7.148  19.668  27.140
44825W        W45689   5.529  18.311  28.518
44826W        W45690   6.388  21.103  27.740
44827W        W45691   6.697  21.362  27.404
44828W        W45692   5.185  20.970  25.950
44829W        W45693   3.764  20.560   0.008
44830W        W45694   4.636  19.091  27.733
44831W        W45695   4.556  18.462  26.973
44832W        W45696   6.038  19.357  27.688
44833W        W45697   4.737  20.279  25.920
44834W        W45698   7.131  20.475  27.527
44835W        W45699   4.359  21.207  28.661
44836W        W45700   6.807  21.876  26.621
44837W        W45701   4.891  18.825  26.814
44838W        W45702   4.399  20.224  27.184
44839W        W45703   4.824  21.876  28.013
44840W        W45704   6.929  21.783  28.715
44841W        W45705   5.978  20.149  27.808
44842W        W45706   3.975  19.691  25.547
44843W        W45707   7.244  21.607  26.649
44844W        W45708   6.780  18.857  26.058
44845W        W45709   5.006  18.263  28.397
44846W        W45710   7.020  21.294  26.990
44847W        W45711   6.692  19.597  26.896
44848W        W45712   4.799  19.279  27.052
44849W        W45713   5.196  19.638  28.354
44850W        W45714   6.275  20.972  28.255
44851W        W45715   4.886  19.206  28.387
44852W        W45716   4.807  21.761  27.064
44853W        W45717   4.284  21.720  28.762
44854W        W45718   4.323  21.392  25.605
44855W        W45719   7.001  20.858  26.677
44856W        W45720   4.500  19.558  28.335
44857W        W45721   7.346  19.482  26.079
44858W        W45722   4.825  20.629  26.336
44859W        W45723   5.801  19.877  28.522
44860W        W45724   5.818  19.498  28.151
44861W        W45725   4.525  19.910  27.953
44862W        W45726   6.674  21.732  27.766
44863W        W45727   6.474  18.480  28.904
44864W        W45728   4.140  18.595  28.645
44865W        W45729   4.637  19.618  27.508
44866W        W45730   4.959  19.268  25.704
44867W        W45731   3.785  21.036  28.289
44868W        W45732   5.169  19.804  27.486
44869W        W45733   5.089  18.754  25.714
44870W        W45734   4.166  19.872  26.573
44871W        W45735   3.909  21.710  28.021
44872W        W45736   6.744  19.880  26.123
44873W        W45737   6.850  18.648  28.596
44874W        W45738   6.604  20.993  27.028
44875W        W45739   3.950  19.750  28.977
44876W        W45740   6.858  18.347  26.065
44877W        W45741   6.938  20.756  25.956
44878W        W45742   5.362  19.673  26.431
44879W        W45743   6.399  18.562  25.837
44880W        W45744   6.465  19.439  27.986
44881W        W45745   3.976  19.840  27.073
44882W        W45746   4.409  20.673  26.881
44883W        W45747   6.253  19.344  26.797
44884W        W45748   5.390  18.844  27.528
44885W        W45749   7.177  20.787  27.942
44886W        W45750   7.257  18.849  27.737
44887W        W45751   3.720  21.609  27.140
44888W        W45752   4.080  20.742  26.490
44889W        W45753   4.265  18.407   0.107
44890W        W45754   5.282  21.179   0.154
44891W        W45755   7.278  20.177  27.138
44892W        W45756   6.469  20.299  25.981
44893W        W45757   5.877  21.890  28.058
44894W        W45758   6.539  20.442  28.947
44895W        W45759   5.335  18.199  26.362
44896W        W45760   6.048  19.127  27.215
44897W        W45761   3.740  20.775  27.507
44898W        W45762   4.994  18.588  26.287
44899W        W45763   4.766  20.245  28.893
44900W        W45764   5.734  19.105  26.791
44901W        W45765   6.103  20.661  27.843
44902W        W45766   4.221  21.273  28.161
44903W        W45767   4.758  21.178   0.016
44904W        W45768   4.656  18.859  26.010
44905W        W45769   6.191  19.089  26.344
44906W        W45770   5.954  21.216  28.602
44907W        W45771   4.815  19.885  27.102
44908W        W45772   4.400  21.656  27.875
44909W        W45773   7.037  21.661  25.657
44910W        W45774   3.951  20.195  28.696
44911W        W45775   5.860  20.435  27.383
44912W        W45776   4.425  20.332  26.473
44913W        W45777   4.728  21.259  27.988
44914W        W45778   5.231  18.540  27.099
44915W        W45779   3.413  20.396  26.184
44916W        W45780   5.399  19.449  25.935
44917W        W45781   4.025  20.292  26.824
44918W        W45782   5.277  18.686  28.259
44919W        W45783   6.875  18.523  25.596
44920W        W45784   7.032  20.257  28.803
44921W        W45785   5.783  21.678  28.848
44922W        W45786   7.038  20.557  28.383
44923W        W45787   6.719  21.261   0.098
44924W        W45788   4.445  21.915  27.437
44925W        W45789   7.311  20.436  26.696
44926W        W45790   5.845  19.569  27.041
44927W        W45791   5.574  18.277  26.824
44928W        W45792   4.686  21.363  26.754
44929W        W45793   5.111  19.063  27.946
44930W        W45794   4.916  18.296  27.416
44931W        W45795   3.899  21.527  25.906
44932W        W45796   5.540  20.444  26.948
44933W        W45797   4.612  21.564  28.382
44934W        W45798   3.919  20.259  26.304
44935W        W45799   3.870  18.871  27.290
44936W        W45800   5.238  20.782  27.223
44937W        W45801   3.750  18.606  26.334
44938W        W45802   6.231  19.831  28.228
44939W        W45803   6.368  19.079  25.811
44940W        W45804   6.777  20.846  27.490
44941W        W45805   5.429  21.214  27.443
44942W        W45806   4.860  21.629  26.328
44943W        W45807   6.021  18.246  25.607
44944W        W45808   4.035  21.620  27.526
44945W        W45809   6.134  19.311  28.993
44946W        W45810   4.175  18.952   0.042
44947W        W45811   3.765  19.535  26.590
44948W        W45812   4.933  19.533  26.161
44949W        W45813   6.250  19.743  28.760
44950W        W45814   4.747  20.145  27.559
44951W        W45815   6.084  18.351  26.925
44952W        W45816   5.290  21.682  27.260
44953W        W45817   6.470  21.429  28.121
44954W        W45818   6.198  21.298  27.268
44955W        W45819   6.354  20.337  27.074
44956W        W45820   5.475  18.612  26.087
44957W        W45821   7.276  18.366  26.837
44958W        W45822   4.785  19.844  25.633
44959W        W45823   7.058  19.247  26.848
44960W        W45824   5.602  20.179  25.753
44961W        W45825   6.540  20.604  28.472
44962W        W45826   6.864  21.263  25.920
44963W        W45827   5.007  18.800  28.690
44964W        W45828   4.855  19.514  27.961
44965W        W45829   6.811  21.042  28.355
44966W        W45830   6.001  18.933  28.664
44967W        W45831   3.814  19.556  28.480
44968W        W45832   5.568  19.944  28.070
44969W        W45833   3.915  20.748  27.009
44970W        W45834   4.134  19.869  27.576
44971W        W45835   6.385  20.298  28.083
44972W        W45836   6.242  21.486  28.968
44973W        W45837   6.209  19.339  28.449
44974W        W45838   6.539  21.522  26.915
44975W        W45839   5.414  21.173  27.974
44976W        W45840   4.706  21.483  27.488
44977W        W45841   6.652  20.731  27.976
44978W        W45842   5.606  20.765  28.994
44979W        W45843   4.244  20.712  27.394
44980W        W45844   6.855  20.495  27.074
44981W        W45845   6.168  21.574  27.709
44982W        W45846   4.329  21.189  27.658
44983W        W45847   5.233  19.248  28.831
44984W        W45848   5.464  21.421  26.370
44985W        W45849   5.096  20.809  28.864
44986W        W45850   5.024  21.142  26.412
44987W        W45851   4.414  19.484  25.381
44988W        W45852   3.810  25.561   3.425
44989W        W45853   4.058  24.392   2.941
44990W        W45854   6.874  24.046   0.776
44991W        W45855   7.046  25.226   2.736
44992W        W45856   5.035  25.205   0.356
44993W        W45857   4.921  23.382   1.194
44994W        W45858   4.505  23.197   1.537
44995W        W45859   5.526  23.983   0.871
44996W        W45860   5.236  25.169   3.097
44997W        W45861   3.760  22.644   2.972
44998W        W45862   4.394  21.896   2.814
44999W        W45863   6.213  22.225   1.800
45000W        W45864   5.941  22.947   0.501
45001W        W45865   6.463  22.740   3.196
45002W        W45866   3.838  22.248   2.570
45003W        W45867   3.969  25.048   3.524
45004W        W45868   5.241  24.426   0.478
45005W        W45869   3.721  23.039   2.041
45006W        W45870   4.720  23.171   3.253
45007W        W45871   7.051  22.915   1.679
45008W        W45872   6.844  23.991   2.427
45009W        W45873   5.368  23.476   1.643
45010W        W45874   5.857  24.720   2.013
45011W        W45875   4.259  23.980   2.168
45012W        W45876   3.540  23.534   1.984
45013W        W45877   4.633  23.589   2.890
45014W        W45878   6.957  23.355   3.026
45015W        W45879   4.342  24.909   1.632
45016W        W45880   5.682  24.525   2.785
45017W        W45881   5.072  23.175   2.013
45018W        W45882   5.230  23.971   1.750
45019W        W45883   6.151  24.824   3.536
45020W        W45884   5.340  23.889   3.513
45021W        W45885   5.394  23.745   3.010
45022W        W45886   3.586  22.962   3.389
45023W        W45887   6.469  24.541   3.226
45024W        W45888   4.176  22.202   1.057
45025W        W45889   4.609  24.412   2.232
45026W        W45890   7.006  24.337   1.604
45027W        W45891   6.676  22.447   1.854
45028W        W45892   6.815  22.631  28.971
45029W        W45893   7.275  23.381   2.343
45030W        W45894   5.113  25.134   2.297
45031W        W45895   6.868  24.761   0.557
45032W        W45896   4.171  25.585   0.657
45033W        W45897   4.508  25.455   1.047
45034W        W45898   4.325  22.180   2.373
45035W        W45899   6.790  23.272   2.550
45036W        W45900   6.259  23.562   1.264
45037W        W45901   6.321  23.310   0.366
45038W        W45902   5.465  24.568   2.310
45039W        W45903   5.498  22.991   1.725
45040W        W45904   5.919  24.886   2.531
45041W        W45905   6.768  23.631   1.131
45042W        W45906   5.777  22.406   1.043
45043W        W45907   4.373  25.093   0.682
45044W        W45908   3.763  22.428   1.282
45045W        W45909   6.523  22.950   1.807
45046W        W45910   3.875  24.683   1.722
45047W        W45911   5.311  24.905   0.690
45048W        W45912   6.663  23.117   0.027
45049W        W45913   3.788  24.791   2.242
45050W        W45914   4.529  24.524   2.749
45051W        W45915   4.692  23.895   1.326
45052W        W45916   4.758  22.415   2.185
45053W        W45917   7.109  22.007   1.792
45054W        W45918   4.332  23.829   0.169
45055W        W45919   4.238  22.904   0.420
45056W        W45920   4.059  24.765   1.221
45057W        W45921   5.054  24.329   1.422
45058W        W45922   6.628  25.098   2.992
45059W        W45923   5.560  22.857   0.853
45060W        W45924   6.888  25.299   1.637
45061W        W45925   6.459  23.205   2.956
45062W        W45926   7.201  24.685   1.269
45063W        W45927   5.848  24.029   2.811
45064W        W45928   3.713  23.426   1.173
45065W        W45929   4.609  24.025   2.568
45066W        W45930   5.908  23.251   0.967
45067W        W45931   5.704  23.657   1.233
45068W        W45932   4.055  23.095   2.461
45069W        W45933   4.114  23.129   3.251
45070W        W45934   4.024  22.075   1.553
45071W        W45935   5.803  22.291   2.191
45072W        W45936   5.616  22.522   3.178
45073W        W45937   6.110  22.383   0.609
45074W        W45938   7.152  25.097   3.217
45075W        W45939   5.916  21.918   2.978
45076W        W45940   6.949  24.392   3.373
45077W        W45941   6.486  22.543   2.705
45078W        W45942   6.149  22.539   1.414
45079W        W45943   6.551  23.575   3.307
45080W        W45944   4.197  25.396   1.503
45081W        W45945   5.065  23.041   0.792
45082W        W45946   4.532  22.212   3.217
45083W        W45947   6.689  22.771   0.881
45084W        W45948   6.975  23.204   0.842
45085W        W45949   4.826  25.355   3.375
45086W        W45950   4.846  22.039   0.759
45087W        W45951   7.069  22.429   1.531
45088W        W45952   7.240  24.782   0.210
45089W        W45953   3.885  23.870   1.789
45090W        W45954   5.996  22.459   0.123
45091W        W45955   7.132  24.807   1.794
45092W        W45956   7.074  21.984   2.319
45093W        W45957   5.590  23.263   2.998
45094W        W45958   5.445  24.480   0.968
45095W        W45959   6.164  23.686   3.614
45096W        W45960   5.746  21.996   1.742
45097W        W45961   4.184  22.922   1.856
45098W        W45962   4.092  23.959   2.672
45099W        W45963   5.746  25.084   1.657
45100W        W45964   6.735  22.751   2.281
45101W        W45965   5.757  25.255   2.902
45102W        W45966   6.891  24.299   0.325
45103W        W45967   5.199  23.808   1.260
45104W        W45968   7.203  22.058   2.908
45105W        W45969   5.374  24.144   2.625
45106W        W45970   5.582  22.824   2.211
45107W        W45971   6.439  23.223   0.890
45108W        W45972   6.935  22.887   0.429
45109W        W45973   6.589  24.865   0.982
45110W        W45974   6.475  24.437   1.701
45111W        W45975   6.193  23.650   0.737
45112W        W45976   5.740  23.808   1.744
45113W        W45977   6.732  23.513   1.671
45114W        W45978   4.000  22.620   2.243
45115W        W45979   6.636  23.692   2.815
45116W        W45980   7.109  25.220   2.118
45117W        W45981   4.861  24.808   1.547
45118W        W45982   6.233  25.339   2.723
45119W        W45983   5.937  22.657   2.572
45120W        W45984   5.355  25.477   2.661
45121W        W45985   6.944  22.344   1.040
45122W        W45986   6.579  23.609   2.198
45123W        W45987   3.592  22.843   2.509
45124W        W45988   6.643  22.657   1.378
45125W        W45989   6.870  22.859   2.849
45126W        W45990   5.859  24.578   1.504
45127W        W45991   5.155  25.255   1.293
45128W        W45992   4.208  22.395   0.539
45129W        W45993   5.372  21.976   2.124
45130W        W45994   4.510  25.120   0.187
45131W        W45995   4.792  23.715   0.817
45132W        W45996   5.452  24.239   3.128
45133W        W45997   5.326  22.646   1.302
45134W        W45998   6.653  22.115   1.439
45135W        W45999   6.400  25.406   1.806
45136W        W46000   5.615  25.140   2.181
45137W        W46001   5.052  24.144   2.224
45138W        W46002   6.941  24.839   2.419
45139W        W46003   4.657  22.395   1.066
45140W        W46004   5.016  24.658   2.037
45141W        W46005   4.588  22.526   0.157
45142W        W46006   5.326  23.238   2.472
45143W        W46007   6.191  21.909   2.189
45144W        W46008   3.721  23.875   2.328
45145W        W46009   5.445  23.643   0.127
45146W        W46010   4.718  22.022   0.265
45147W        W46011   5.409  23.196   1.218
45148W        W46012   6.142  22.191   2.589
45149W        W46013   4.954  24.177   2.938
45150W        W46014   5.812  23.932   3.325
45151W        W46015   6.269  24.009   3.100
45152W        W46016   5.525  22.149   3.549
45153W        W46017   4.689  22.824   1.879
45154W        W46018   4.344  22.624   1.436
45155W        W46019   4.029  25.258   1.045
45156W        W46020   5.626  24.836   3.190
45157W        W46021   4.161  24.188   0.522
45158W        W46022   6.256  23.711   1.769
45159W        W46023   6.183  23.293   2.086
45160W        W46024   5.560  24.066   2.149
45161W        W46025   6.061  24.293   0.167
45162W        W46026   5.697  22.507   1.698
45163W        W46027   7.275  22.636   0.752
45164W        W46028   3.900  25.227   3.040
45165W        W46029   4.137  24.421   2.438
45166W        W46030   3.682  25.397   0.695
45167W        W46031   5.177  22.312   2.473
45168W        W46032   4.794  24.755   0.508
45169W        W46033   6.735  25.240   0.639
45170W        W46034   5.720  23.588   0.567
45171W        W46035   4.683  22.919   1.131
45172W        W46036   5.641  22.821   0.097
45173W        W46037   5.947  24.428   3.220
45174W        W46038   6.425  22.332   1.021
45175W        W46039   3.722  22.149   0.305
45176W        W46040   5.011  24.557   2.557
45177W        W46041   4.731  24.108   1.804
45178W        W46042   4.781  24.231   0.280
45179W        W46043   3.873  24.882   0.738
45180W        W46044   4.383  23.590   3.343
45181W        W46045   5.024  22.156   3.417
45182W        W46046   5.629  22.266   2.715
45183W        W46047   4.997  22.009   1.253
45184W        W46048   5.735  22.005   0.617
45185W        W46049   3.907  22.117   2.064
45186W        W46050   3.909  22.924   1.398
45187W        W46051   6.624  21.891   1.896
45188W        W46052   4.245  22.713   0.938
45189W        W46053   6.600  22.216   2.302
45190W        W46054   7.073  23.352   0.302
45191W        W46055   4.324  22.403   1.895
45192W        W46056   5.457  22.795   2.734
45193W        W46057   3.770  22.647   0.433
45194W        W46058   4.455  24.062   3.058
45195W        W46059   5.669  23.360   2.072
45196W        W46060   5.608  25.395   0.367
45197W        W46061   3.823  23.839   0.295
45198W        W46062   4.674  24.533   3.230
45199W        W46063   4.093  23.509   2.909
45200W        W46064   5.049  23.742   2.605
45201W        W46065   6.725  21.986   2.734
45202W        W46066   7.155  23.721   2.715
45203W        W46067   7.134  23.844   0.386
45204W        W46068   6.020  24.151   0.703
45205W        W46069   6.610  25.469   0.194
45206W        W46070   5.706  23.467   3.542
45207W        W46071   4.246  24.519   3.510
45208W        W46072   7.300  22.409   3.302
45209W        W46073   6.890  23.199   2.063
45210W        W46074   5.298  25.318   3.587
45211W        W46075   5.235  22.095   0.438
45212W        W46076   6.460  24.605   0.266
45213W        W46077   4.390  22.712   3.170
45214W        W46078   5.157  24.653   3.041
45215W        W46079   6.992  22.422   2.594
45216W        W46080   6.346  25.582   0.637
45217W        W46081   6.454  24.098   2.083
45218W        W46082   4.682  22.382   2.708
45219W        W46083   5.217  23.376   3.420
45220W        W46084   4.365  24.591   0.823
45221W        W46085   6.423  24.007   1.017
45222W        W46086   4.205  22.599   2.710
45223W        W46087   5.368  24.774   1.388
45224W        W46088   7.219  23.352   1.328
45225W        W46089   5.404  21.965   3.081
45226W        W46090   6.326  24.602   2.164
45227W        W46091   6.665  24.952   1.984
45228W        W46092   5.743  24.582   0.513
45229W        W46093   3.780  24.594   3.318
45230W        W46094   4.510  22.841   2.368
45231W        W46095   4.527  22.123   1.488
45232W        W46096   6.255  22.582   2.175
45233W        W46097   5.164  23.913   0.496
45234W        W46098   6.927  23.934   1.924
45235W        W46099   4.234  24.842   3.089
45236W        W46100   6.737  25.591   1.013
45237W        W46101   4.868  22.501   1.523
45238W        W46102   4.382  23.697   1.746
45239W        W46103   4.749  25.485   2.376
45240W        W46104   6.819  25.500   3.280
45241W        W46105   6.009  23.806   2.210
45242W        W46106   4.099  23.400   0.370
45243W        W46107   6.992  25.148   1.142
45244W        W46108   6.824  22.398   0.541
45245W        W46109   4.902  21.970   2.924
45246W        W46110   6.732  24.815   1.474
45247W        W46111   6.744  23.152   1.311
45248W        W46112   5.020  23.011   1.529
45249W        W46113   5.081  23.330   2.920
45250W        W46114   6.206  24.466   2.784
45251W        W46115   4.853  22.850   2.856
45252W        W46116   4.702  25.303   1.510
45253W        W46117   4.316  25.415   3.292
45254W        W46118   4.150  24.708   0.350
45255W        W46119   6.791  24.384   1.153
45256W        W46120   4.419  23.115   2.819
45257W        W46121   7.517  22.964   0.428
45258W        W46122   5.018  24.173   0.924
45259W        W46123   6.041  23.535   3.072
45260W        W46124   5.833  23.166   2.539
45261W        W46125   4.363  23.550   2.474
45262W        W46126   6.654  25.312   2.355
45263W        W46127   6.407  22.012   3.117
45264W        W46128   4.027  22.187   3.047
45265W        W46129   4.511  23.279   2.051
45266W        W46130   4.883  22.972   0.265
45267W        W46131   3.703  24.777   2.825
45268W        W46132   5.247  23.645   2.139
45269W        W46133   5.165  22.551   0.213
45270W        W46134   4.429  23.485   1.109
45271W        W46135   3.915  25.439   2.585
45272W        W46136   6.712  23.581   0.618
45273W        W46137   6.810  22.358   3.088
45274W        W46138   6.293  24.489   1.222
45275W        W46139   3.755  23.487   3.327
45276W        W46140   6.974  21.909   0.554
45277W        W46141   6.499  24.425   0.733
45278W        W46142   5.289  23.517   0.836
45279W        W46143   6.479  22.283   0.183
45280W        W46144   6.332  22.997   2.499
45281W        W46145   3.984  23.370   1.631
45282W        W46146   4.521  24.461   1.342
45283W        W46147   6.258  23.050   1.369
45284W        W46148   5.184  22.626   1.918
45285W        W46149   7.206  24.374   2.475
45286W        W46150   7.148  22.458   2.084
45287W        W46151   3.754  25.124   1.463
45288W        W46152   3.872  24.388   0.910
45289W        W46153   4.098  22.189   3.557
45290W        W46154   5.036  24.877   3.500
45291W        W46155   7.113  23.851   1.452
45292W        W46156   6.457  24.004   0.455
45293W        W46157   5.850  25.523   2.444
45294W        W46158   6.586  24.057   3.488
45295W        W46159   5.293  21.774   0.817
45296W        W46160   6.007  22.884   1.822
45297W        W46161   3.845  24.295   2.050
45298W        W46162   5.150  22.498   0.792
45299W        W46163   4.907  23.776   3.269
45300W        W46164   5.788  22.874   1.319
45301W        W46165   5.937  24.326   2.376
45302W        W46166   4.139  24.921   2.603
45303W        W46167   4.514  24.971   3.476
45304W        W46168   4.675  22.690   0.644
45305W        W46169   6.155  22.778   0.941
45306W        W46170   6.127  24.911   3.023
45307W        W46171   4.873  23.555   1.694
45308W        W46172   4.292  25.284   2.281
45309W        W46173   7.094  25.302   0.261
45310W        W46174   3.956  23.941   3.188
45311W        W46175   6.000  24.237   1.874
45312W        W46176   4.329  24.104   1.013
45313W        W46177   4.654  24.950   2.478
45314W        W46178   5.291  22.211   1.623
45315W        W46179   3.656  24.311   0.434
45316W        W46180   5.436  23.161   0.431
45317W        W46181   4.076  23.775   1.324
45318W        W46182   5.152  22.427   2.976
45319W        W46183   6.965  22.138   0.070
45320W        W46184   7.002  23.829   3.225
45321W        W46185   5.801  25.272   3.448
45322W        W46186   7.243  24.213   2.962
45323W        W46187   6.695  24.962   3.480
45324W        W46188   4.468  25.563   1.906
45325W        W46189   7.272  24.163   1.066
45326W        W46190   5.887  23.333   1.590
45327W        W46191   5.532  21.890   1.278
45328W        W46192   4.527  24.957   1.161
45329W        W46193   5.044  22.808   2.382
45330W        W46194   4.881  22.030   1.868
45331W        W46195   4.006  25.215   0.325
45332W        W46196   5.560  24.161   1.381
45333W        W46197   4.744  24.991   2.996
45334W        W46198   4.047  23.725   0.793
45335W        W46199   3.801  22.557   1.772
45336W        W46200   5.442  24.451   1.802
45337W        W46201   3.714  22.275   0.799
45338W        W46202   6.220  23.504   2.578
45339W        W46203   6.431  22.758   0.424
45340W        W46204   6.857  24.450   2.074
45341W        W46205   5.237  25.065   1.799
45342W        W46206   4.879  25.157   0.852
45343W        W46207   6.097  21.941   0.198
45344W        W46208   3.960  25.161   1.919
45345W        W46209   5.697  22.973   3.424
45346W        W46210   4.002  22.704   3.524
45347W        W46211   4.083  23.199   0.867
45348W        W46212   4.583  23.222   0.669
45349W        W46213   6.197  23.177   3.411
45350W        W46214   4.737  23.728   2.165
45351W        W46215   6.091  22.024   1.325
45352W        W46216   5.455  25.511   1.657
45353W        W46217   6.437  24.894   2.569
45354W        W46218   6.242  24.906   1.691
45355W        W46219   6.071  24.041   1.398
45356W        W46220   5.608  22.489   0.492
45357W        W46221   7.205  21.981   1.287
45358W        W46222   5.001  23.443   0.412
45359W        W46223   7.117  22.836   1.183
45360W        W46224   5.632  24.074   0.371
45361W        W46225   6.727  24.174   2.952
45362W        W46226   6.296  25.100   0.366
45363W        W46227   4.850  22.628   3.348
45364W        W46228   4.807  23.276   2.480
45365W        W46229   6.914  24.671   2.929
45366W        W46230   6.093  22.415   3.033
45367W        W46231   3.714  23.154   2.908
45368W        W46232   5.610  23.665   2.527
45369W        W46233   3.996  24.279   1.403
45370W        W46234   4.025  23.487   2.118
45371W        W46235   6.327  24.017   2.573
45372W        W46236   6.311  25.298   3.335
45373W        W46237   6.002  22.933   2.997
45374W        W46238   6.474  25.253   1.318
45375W        W46239   5.408  24.942   2.669
45376W        W46240   4.700  25.088   1.980
45377W        W46241   6.647  24.437   2.533
45378W        W46242   5.595  24.348   3.609
45379W        W46243   4.295  24.380   1.812
45380W        W46244   6.608  23.989   1.496
45381W        W46245   6.175  25.143   2.179
45382W        W46246   4.286  24.796   2.121
45383W        W46247   5.240  22.917   3.191
45384W        W46248   5.637  25.187   1.149
45385W        W46249   5.074  24.328   3.460
45386W        W46250   4.954  24.679   1.036
45387W        W46251   4.566  23.372   0.140
45388W        W46252   3.773  25.547   7.027
45389W        W46253   4.136  24.458   6.593
45390W        W46254   6.803  23.938   4.555
45391W        W46255   7.094  25.326   6.502
45392W        W46256   4.739  25.198   3.868
45393W        W46257   4.937  23.285   4.754
45394W        W46258   4.281  23.038   4.900
45395W        W46259   5.360  23.725   4.515
45396W        W46260   5.213  25.197   6.745
45397W        W46261   3.710  22.651   6.682
45398W        W46262   4.381  22.001   6.541
45399W        W46263   6.184  22.328   5.317
45400W        W46264   5.984  23.116   3.878
45401W        W46265   6.246  22.894   7.023
45402W        W46266   3.897  22.379   6.281
45403W        W46267   3.950  25.109   7.272
45404W        W46268   5.185  24.545   3.920
45405W        W46269   3.820  23.077   5.686
45406W        W46270   4.886  23.306   6.842
45407W        W46271   6.852  22.911   5.426
45408W        W46272   6.927  24.039   6.263
45409W        W46273   5.241  23.131   5.154
45410W        W46274   5.913  24.752   5.648
45411W        W46275   4.443  23.986   5.760
45412W        W46276   3.516  23.518   5.650
45413W        W46277   4.844  23.674   6.478
45414W        W46278   7.057  23.426   6.935
45415W        W46279   4.505  24.821   5.342
45416W        W46280   5.724  24.549   6.395
45417W        W46281   5.017  23.127   5.619
45418W        W46282   5.064  23.937   5.338
45419W        W46283   5.967  24.817   7.096
45420W        W46284   5.420  23.949   7.157
45421W        W46285   5.315  23.807   6.612
45422W        W46286   3.603  22.988   7.062
45423W        W46287   6.417  24.737   6.803
45424W        W46288   4.097  22.138   4.781
45425W        W46289   4.593  24.487   5.944
45426W        W46290   7.036  24.357   5.324
45427W        W46291   6.486  22.612   5.639
45428W        W46292   6.890  22.629   3.512
45429W        W46293   7.411  23.322   6.009
45430W        W46294   5.193  25.198   5.948
45431W        W46295   6.934  24.740   4.138
45432W        W46296   4.089  25.487   4.303
45433W        W46297   4.435  25.420   4.684
45434W        W46298   4.370  22.269   6.083
45435W        W46299   6.997  23.511   6.230
45436W        W46300   6.226  23.443   5.005
45437W        W46301   6.509  23.349   3.794
45438W        W46302   5.486  24.616   5.909
45439W        W46303   5.391  22.656   5.131
45440W        W46304   5.830  24.963   6.117
45441W        W46305   6.697  23.668   4.997
45442W        W46306   5.793  22.469   4.389
45443W        W46307   4.269  24.998   4.433
45444W        W46308   3.796  22.542   4.908
45445W        W46309   6.310  23.062   5.360
45446W        W46310   3.992  24.830   5.404
45447W        W46311   5.187  25.051   4.048
45448W        W46312   6.745  23.111   3.410
45449W        W46313   3.794  24.920   5.960
45450W        W46314   4.611  24.542   6.443
45451W        W46315   4.910  23.796   4.842
45452W        W46316   4.872  22.365   5.985
45453W        W46317   7.222  22.042   5.469
45454W        W46318   4.605  24.100   3.551
45455W        W46319   4.119  22.792   4.030
45456W        W46320   4.129  24.811   4.906
45457W        W46321   4.846  24.301   4.972
45458W        W46322   6.594  25.273   6.637
45459W        W46323   5.636  22.968   4.300
45460W        W46324   6.917  25.370   5.399
45461W        W46325   6.583  23.242   6.791
45462W        W46326   7.367  24.775   5.244
45463W        W46327   5.903  24.051   6.428
45464W        W46328   3.791  23.483   4.857
45465W        W46329   4.821  24.047   6.113
45466W        W46330   5.953  23.302   4.567
45467W        W46331   5.805  23.708   4.842
45468W        W46332   4.152  23.131   6.119
45469W        W46333   4.151  23.172   6.797
45470W        W46334   3.959  22.112   5.282
45471W        W46335   5.700  22.434   5.528
45472W        W46336   5.505  22.505   6.815
45473W        W46337   5.729  22.668   3.899
45474W        W46338   7.184  25.101   6.975
45475W        W46339   5.954  22.086   6.825
45476W        W46340   6.860  24.549   7.075
45477W        W46341   6.520  22.620   6.655
45478W        W46342   6.197  22.458   4.768
45479W        W46343   6.623  23.653   7.106
45480W        W46344   4.239  25.248   5.145
45481W        W46345   5.191  22.752   4.132
45482W        W46346   4.511  22.343   6.961
45483W        W46347   6.621  22.768   4.619
45484W        W46348   6.968  23.179   4.563
45485W        W46349   4.793  25.413   7.085
45486W        W46350   4.568  22.007   4.223
45487W        W46351   6.982  22.427   5.249
45488W        W46352   7.150  24.783   3.668
45489W        W46353   3.953  23.982   5.591
45490W        W46354   6.043  22.616   3.496
45491W        W46355   7.201  24.970   5.681
45492W        W46356   7.072  22.089   5.996
45493W        W46357   5.737  23.236   6.672
45494W        W46358   5.330  24.103   4.896
45495W        W46359   5.956  24.048   7.247
45496W        W46360   5.785  21.956   5.370
45497W        W46361   4.262  22.916   5.427
45498W        W46362   4.328  24.083   6.267
45499W        W46363   5.936  25.156   5.279
45500W        W46364   6.861  23.123   5.906
45501W        W46365   5.652  25.315   6.457
45502W        W46366   6.884  24.187   4.079
45503W        W46367   5.476  23.266   4.712
45504W        W46368   7.165  22.010   6.537
45505W        W46369   5.429  24.154   6.232
45506W        W46370   5.520  22.948   5.560
45507W        W46371   6.459  23.273   4.550
45508W        W46372   6.653  23.005   4.160
45509W        W46373   6.765  24.973   4.584
45510W        W46374   6.538  24.423   5.432
45511W        W46375   6.193  23.502   4.158
45512W        W46376   5.768  23.782   5.351
45513W        W46377   6.653  23.923   5.448
45514W        W46378   4.134  22.682   5.881
45515W        W46379   6.722  23.715   6.616
45516W        W46380   7.168  25.419   5.906
45517W        W46381   4.988  24.856   5.185
45518W        W46382   6.174  25.373   6.340
45519W        W46383   5.957  22.675   6.209
45520W        W46384   5.308  25.626   6.237
45521W        W46385   6.966  22.367   4.726
45522W        W46386   6.626  23.676   5.903
45523W        W46387   3.719  22.848   6.152
45524W        W46388   6.537  22.653   5.113
45525W        W46389   6.861  22.999   6.429
45526W        W46390   6.071  24.466   5.238
45527W        W46391   5.197  25.259   4.918
45528W        W46392   4.152  22.276   4.054
45529W        W46393   5.382  22.075   5.721
45530W        W46394   4.249  25.407   3.808
45531W        W46395   4.883  23.676   4.311
45532W        W46396   5.495  24.260   6.742
45533W        W46397   5.362  22.347   4.701
45534W        W46398   6.583  22.142   5.020
45535W        W46399   6.420  25.432   5.463
45536W        W46400   5.648  25.223   5.702
45537W        W46401   5.187  24.188   5.775
45538W        W46402   6.996  24.956   6.154
45539W        W46403   4.569  22.315   4.658
45540W        W46404   5.018  24.739   5.701
45541W        W46405   4.455  22.547   3.679
45542W        W46406   5.420  23.234   5.990
45543W        W46407   6.087  22.131   5.800
45544W        W46408   3.821  23.968   6.132
45545W        W46409   5.243  23.589   3.910
45546W        W46410   4.575  22.053   3.709
45547W        W46411   5.201  22.835   4.660
45548W        W46412   6.199  22.261   6.380
45549W        W46413   4.995  24.196   6.578
45550W        W46414   5.772  23.755   6.826
45551W        W46415   6.261  23.905   6.825
45552W        W46416   5.582  22.161   7.207
45553W        W46417   4.701  22.710   5.622
45554W        W46418   4.298  22.549   5.061
45555W        W46419   3.910  25.258   4.734
45556W        W46420   5.537  24.788   6.807
45557W        W46421   4.586  24.283   4.163
45558W        W46422   6.235  23.596   5.492
45559W        W46423   6.341  23.222   5.836
45560W        W46424   5.644  23.875   5.845
45561W        W46425   6.126  24.215   3.650
45562W        W46426   5.765  22.337   5.013
45563W        W46427   7.055  22.695   4.335
45564W        W46428   3.961  25.325   6.584
45565W        W46429   4.071  24.494   6.082
45566W        W46430   3.527  25.286   4.385
45567W        W46431   5.515  22.505   5.997
45568W        W46432   4.740  24.795   4.218
45569W        W46433   6.857  25.254   4.157
45570W        W46434   5.670  23.451   4.152
45571W        W46435   4.683  22.814   4.649
45572W        W46436   5.321  22.623   3.601
45573W        W46437   6.009  24.375   6.831
45574W        W46438   6.549  22.286   4.424
45575W        W46439   3.723  21.991   3.938
45576W        W46440   5.057  24.516   6.176
45577W        W46441   4.743  24.346   5.479
45578W        W46442   4.703  24.575   3.751
45579W        W46443   3.725  24.808   4.533
45580W        W46444   4.430  23.613   6.790
45581W        W46445   5.060  22.216   7.231
45582W        W46446   5.680  22.229   6.407
45583W        W46447   4.967  22.014   4.791
45584W        W46448   6.205  22.470   3.999
45585W        W46449   3.922  22.211   5.802
45586W        W46450   3.833  23.008   5.154
45587W        W46451   6.709  22.102   5.553
45588W        W46452   4.174  22.622   4.542
45589W        W46453   6.568  22.251   6.023
45590W        W46454   6.871  23.710   3.733
45591W        W46455   4.350  22.341   5.549
45592W        W46456   5.499  22.857   6.393
45593W        W46457   3.677  22.511   3.901
45594W        W46458   4.518  24.124   6.751
45595W        W46459   5.823  23.357   5.671
45596W        W46460   5.603  25.369   4.015
45597W        W46461   3.592  23.882   3.749
45598W        W46462   4.608  24.616   6.949
45599W        W46463   4.061  23.531   6.413
45600W        W46464   5.205  23.705   6.087
45601W        W46465   6.652  22.075   6.519
45602W        W46466   7.248  23.782   6.595
45603W        W46467   7.271  23.901   4.359
45604W        W46468   5.875  23.868   4.358
45605W        W46469   6.567  25.435   3.754
45606W        W46470   5.751  23.574   7.311
45607W        W46471   4.178  24.613   7.252
45608W        W46472   7.293  22.554   7.154
45609W        W46473   6.691  23.397   5.462
45610W        W46474   5.290  25.414   7.203
45611W        W46475   5.026  21.939   3.946
45612W        W46476   6.599  24.511   3.746
45613W        W46477   4.569  22.853   6.841
45614W        W46478   5.043  24.703   6.678
45615W        W46479   6.919  22.491   6.322
45616W        W46480   6.392  25.486   4.239
45617W        W46481   6.566  24.187   5.895
45618W        W46482   4.650  22.468   6.476
45619W        W46483   5.369  23.459   6.984
45620W        W46484   4.500  24.539   4.615
45621W        W46485   6.318  23.762   4.610
45622W        W46486   4.196  22.751   6.480
45623W        W46487   5.223  24.418   5.308
45624W        W46488   7.122  23.307   5.206
45625W        W46489   5.295  22.043   6.763
45626W        W46490   6.358  24.650   5.873
45627W        W46491   6.685  25.064   5.757
45628W        W46492   5.541  24.875   3.695
45629W        W46493   3.761  24.570   6.915
45630W        W46494   4.588  22.830   6.111
45631W        W46495   4.508  22.091   5.126
45632W        W46496   6.005  22.840   5.733
45633W        W46497   4.993  24.049   3.905
45634W        W46498   7.054  24.081   5.758
45635W        W46499   4.154  24.919   6.830
45636W        W46500   6.743  25.502   4.645
45637W        W46501   4.899  22.478   5.039
45638W        W46502   4.559  23.918   5.246
45639W        W46503   4.812  25.504   6.116
45640W        W46504   6.883  25.535   6.959
45641W        W46505   6.103  23.679   5.991
45642W        W46506   3.902  23.181   3.733
45643W        W46507   7.088  25.142   4.948
45644W        W46508   6.729  22.509   3.981
45645W        W46509   4.870  22.007   6.380
45646W        W46510   6.856  24.848   5.316
45647W        W46511   6.662  23.156   5.000
45648W        W46512   4.737  22.964   5.162
45649W        W46513   5.258  23.322   6.475
45650W        W46514   6.235  24.476   6.372
45651W        W46515   4.949  22.905   6.489
45652W        W46516   4.749  25.342   5.185
45653W        W46517   4.276  25.428   6.976
45654W        W46518   4.307  24.880   3.928
45655W        W46519   7.028  24.622   4.879
45656W        W46520   4.532  23.218   6.462
45657W        W46521   7.056  22.984   3.828
45658W        W46522   4.977  24.174   4.484
45659W        W46523   6.120  23.548   6.496
45660W        W46524   5.917  23.189   6.148
45661W        W46525   4.491  23.607   6.120
45662W        W46526   6.702  25.393   6.136
45663W        W46527   6.443  22.185   6.997
45664W        W46528   4.034  22.270   6.782
45665W        W46529   4.515  23.229   5.750
45666W        W46530   4.960  22.987   3.691
45667W        W46531   3.777  24.816   6.453
45668W        W46532   5.336  23.534   5.567
45669W        W46533   4.920  22.430   3.843
45670W        W46534   4.454  23.529   4.917
45671W        W46535   3.851  25.477   6.116
45672W        W46536   6.740  23.547   4.222
45673W        W46537   6.940  22.375   6.833
45674W        W46538   6.513  24.678   4.964
45675W        W46539   3.810  23.542   6.927
45676W        W46540   7.019  22.170   4.231
45677W        W46541   6.708  24.447   4.516
45678W        W46542   5.191  23.246   4.291
45679W        W46543   6.481  22.332   3.531
45680W        W46544   6.477  22.790   6.137
45681W        W46545   3.974  23.469   5.348
45682W        W46546   4.360  24.380   5.093
45683W        W46547   6.201  22.958   4.859
45684W        W46548   5.190  22.550   5.585
45685W        W46549   7.229  24.486   6.157
45686W        W46550   7.019  22.553   5.777
45687W        W46551   3.723  25.232   5.204
45688W        W46552   3.998  24.360   4.712
45689W        W46553   4.107  22.267   7.297
45690W        W46554   4.995  24.932   7.151
45691W        W46555   7.136  23.843   5.275
45692W        W46556   6.445  23.919   3.983
45693W        W46557   5.797  25.583   6.030
45694W        W46558   6.489  24.184   7.183
45695W        W46559   5.327  21.900   4.402
45696W        W46560   5.911  22.778   5.234
45697W        W46561   3.727  24.463   5.682
45698W        W46562   4.987  22.302   4.349
45699W        W46563   4.931  23.838   6.974
45700W        W46564   5.720  22.810   4.769
45701W        W46565   5.924  24.327   5.983
45702W        W46566   4.269  24.938   6.330
45703W        W46567   4.477  25.038   7.212
45704W        W46568   4.563  22.551   4.194
45705W        W46569   6.161  22.874   4.337
45706W        W46570   6.002  24.950   6.599
45707W        W46571   4.861  23.468   5.249
45708W        W46572   4.334  25.354   6.013
45709W        W46573   7.053  25.287   3.689
45710W        W46574   4.005  23.964   6.665
45711W        W46575   6.152  24.084   5.603
45712W        W46576   4.465  24.031   4.708
45713W        W46577   4.772  24.964   6.170
45714W        W46578   5.293  22.157   5.210
45715W        W46579   3.598  24.286   4.362
45716W        W46580   5.438  23.109   3.837
45717W        W46581   4.081  23.896   5.040
45718W        W46582   5.185  22.428   6.399
45719W        W46583   6.959  22.132   3.668
45720W        W46584   6.962  24.021   6.979
45721W        W46585   5.710  25.263   6.960
45722W        W46586   7.124  24.367   6.638
45723W        W46587   6.698  25.061   7.124
45724W        W46588   4.389  25.531   5.534
45725W        W46589   7.191  24.135   4.858
45726W        W46590   5.758  23.267   5.154
45727W        W46591   5.571  21.881   4.874
45728W        W46592   4.613  24.978   4.851
45729W        W46593   5.111  22.818   6.018
45730W        W46594   4.854  22.183   5.489
45731W        W46595   3.853  25.103   4.037
45732W        W46596   5.347  23.615   5.056
45733W        W46597   4.660  25.077   6.698
45734W        W46598   3.894  23.882   4.547
45735W        W46599   3.847  22.587   5.447
45736W        W46600   5.666  24.290   5.532
45737W        W46601   3.765  22.322   4.413
45738W        W46602   6.522  23.347   6.283
45739W        W46603   6.439  22.840   3.721
45740W        W46604   6.883  24.582   5.776
45741W        W46605   5.468  24.847   5.413
45742W        W46606   4.900  25.217   4.471
45743W        W46607   6.031  22.087   3.459
45744W        W46608   3.953  25.289   5.645
45745W        W46609   5.747  22.899   7.077
45746W        W46610   4.088  22.723   7.025
45747W        W46611   3.828  23.002   4.636
45748W        W46612   4.731  23.039   4.152
45749W        W46613   6.133  23.402   6.989
45750W        W46614   4.843  23.657   5.728
45751W        W46615   6.100  21.953   4.940
45752W        W46616   5.175  25.269   5.450
45753W        W46617   6.452  24.948   6.273
45754W        W46618   6.352  24.901   5.409
45755W        W46619   6.236  23.954   5.106
45756W        W46620   5.405  22.287   4.040
45757W        W46621   7.290  21.994   4.931
45758W        W46622   4.778  23.483   3.692
45759W        W46623   7.040  22.832   4.944
45760W        W46624   5.738  23.883   3.851
45761W        W46625   6.611  24.260   6.683
45762W        W46626   6.474  24.972   3.958
45763W        W46627   4.989  22.551   6.868
45764W        W46628   4.899  23.282   6.105
45765W        W46629   6.889  24.840   6.643
45766W        W46630   5.987  22.591   6.708
45767W        W46631   3.702  23.154   6.567
45768W        W46632   5.661  23.610   6.292
45769W        W46633   3.869  24.321   5.216
45770W        W46634   4.063  23.559   5.849
45771W        W46635   6.397  23.960   6.313
45772W        W46636   6.222  25.253   6.979
45773W        W46637   6.202  23.023   6.530
45774W        W46638   6.569  25.202   5.029
45775W        W46639   5.356  24.909   6.330
45776W        W46640   4.722  25.167   5.689
45777W        W46641   6.730  24.519   6.262
45778W        W46642   5.604  24.445   7.200
45779W        W46643   4.234  24.420   5.586
45780W        W46644   6.689  24.190   4.988
45781W        W46645   6.178  25.174   5.829
45782W        W46646   4.297  24.889   5.813
45783W        W46647   5.294  22.973   6.864
45784W        W46648   5.728  25.315   4.768
45785W        W46649   5.083  24.357   7.070
45786W        W46650   5.006  24.700   4.666
45787W        W46651   4.428  23.058   3.667
45788W        W46652   3.820  25.594  10.738
45789W        W46653   4.070  24.405  10.203
45790W        W46654   6.735  24.070   7.977
45791W        W46655   7.100  25.261  10.033
45792W        W46656   4.689  25.279   7.614
45793W        W46657   5.009  23.493   8.433
45794W        W46658   4.451  23.123   8.869
45795W        W46659   5.496  24.073   8.130
45796W        W46660   5.213  25.193  10.347
45797W        W46661   3.712  22.599  10.366
45798W        W46662   4.340  21.919  10.168
45799W        W46663   6.120  22.606   8.906
45800W        W46664   6.010  23.162   7.439
45801W        W46665   6.337  22.736  10.605
45802W        W46666   4.004  22.316  10.035
45803W        W46667   3.962  25.084  10.823
45804W        W46668   5.184  24.594   7.518
45805W        W46669   3.750  23.040   9.364
45806W        W46670   4.834  23.211  10.497
45807W        W46671   6.839  22.882   9.039
45808W        W46672   6.903  24.035   9.958
45809W        W46673   5.331  23.310   8.817
45810W        W46674   5.913  24.782   9.416
45811W        W46675   4.356  23.992   9.493
45812W        W46676   3.602  23.524   9.267
45813W        W46677   4.821  23.668  10.200
45814W        W46678   7.030  23.396  10.408
45815W        W46679   4.576  24.701   9.003
45816W        W46680   5.754  24.612  10.043
45817W        W46681   4.921  23.058   9.203
45818W        W46682   5.162  23.904   9.059
45819W        W46683   6.009  24.785  10.820
45820W        W46684   5.426  23.972  10.789
45821W        W46685   5.321  23.806  10.308
45822W        W46686   3.598  22.957  10.734
45823W        W46687   6.442  24.719  10.546
45824W        W46688   4.051  22.189   8.359
45825W        W46689   4.562  24.471   9.579
45826W        W46690   7.149  24.405   8.973
45827W        W46691   6.545  22.464   9.196
45828W        W46692   6.626  22.622   7.207
45829W        W46693   7.058  23.524   9.885
45830W        W46694   5.145  25.173   9.508
45831W        W46695   7.111  24.658   7.973
45832W        W46696   4.019  25.577   8.049
45833W        W46697   4.615  25.546   8.438
45834W        W46698   4.291  22.080   9.683
45835W        W46699   6.922  23.015   9.875
45836W        W46700   6.316  23.665   8.656
45837W        W46701   6.246  23.647   7.432
45838W        W46702   5.501  24.520   9.597
45839W        W46703   5.378  22.782   8.740
45840W        W46704   6.017  25.044   9.838
45841W        W46705   6.789  23.699   8.348
45842W        W46706   5.743  22.540   8.053
45843W        W46707   4.449  25.216   8.074
45844W        W46708   3.693  22.519   8.589
45845W        W46709   6.364  23.044   9.069
45846W        W46710   3.916  24.799   9.035
45847W        W46711   5.170  25.126   7.635
45848W        W46712   6.529  23.186   7.307
45849W        W46713   3.789  24.842   9.587
45850W        W46714   4.587  24.524  10.086
45851W        W46715   4.810  23.935   8.692
45852W        W46716   4.691  22.373   9.497
45853W        W46717   7.333  21.956   9.153
45854W        W46718   4.615  24.208   7.259
45855W        W46719   3.964  22.704   7.549
45856W        W46720   4.229  24.763   8.635
45857W        W46721   4.963  24.433   8.803
45858W        W46722   6.673  25.143  10.324
45859W        W46723   5.673  23.149   7.911
45860W        W46724   6.904  25.483   8.880
45861W        W46725   6.568  23.172  10.422
45862W        W46726   7.377  24.821   8.757
45863W        W46727   5.882  24.109  10.021
45864W        W46728   3.606  23.646   8.368
45865W        W46729   4.723  24.050   9.850
45866W        W46730   5.953  23.389   8.348
45867W        W46731   5.861  23.898   8.455
45868W        W46732   4.146  23.114   9.710
45869W        W46733   4.249  23.184  10.454
45870W        W46734   3.957  22.108   8.863
45871W        W46735   5.657  22.562   9.112
45872W        W46736   5.474  22.452  10.542
45873W        W46737   5.751  22.738   7.579
45874W        W46738   7.136  25.035  10.534
45875W        W46739   5.903  22.072  10.475
45876W        W46740   6.923  24.528  10.648
45877W        W46741   6.520  22.748  10.096
45878W        W46742   6.186  22.552   8.359
45879W        W46743   6.629  23.606  10.713
45880W        W46744   4.317  25.169   8.956
45881W        W46745   5.307  22.781   7.870
45882W        W46746   4.624  22.209  10.496
45883W        W46747   6.624  22.829   8.240
45884W        W46748   6.946  23.244   8.133
45885W        W46749   4.836  25.422  10.685
45886W        W46750   4.478  21.983   7.927
45887W        W46751   7.053  22.411   9.016
45888W        W46752   7.150  24.847   7.436
45889W        W46753   3.923  23.946   9.202
45890W        W46754   6.025  22.454   7.204
45891W        W46755   7.205  24.891   9.229
45892W        W46756   7.149  22.002   9.731
45893W        W46757   5.684  23.364  10.373
45894W        W46758   5.309  24.555   8.019
45895W        W46759   5.800  22.088   8.969
45896W        W46760   4.196  22.866   9.229
45897W        W46761   4.221  23.965   9.981
45898W        W46762   5.860  25.121   9.026
45899W        W46763   6.942  22.675   9.487
45900W        W46764   5.700  25.279  10.182
45901W        W46765   6.821  23.929   7.486
45902W        W46766   5.342  23.856   8.582
45903W        W46767   7.200  22.075  10.257
45904W        W46768   5.388  24.137   9.911
45905W        W46769   5.436  23.003   9.237
45906W        W46770   6.453  23.331   8.242
45907W        W46771   6.591  23.086   7.795
45908W        W46772   6.813  25.002   8.281
45909W        W46773   6.277  24.505   9.181
45910W        W46774   6.289  23.832   8.156
45911W        W46775   5.681  24.023   8.943
45912W        W46776   6.603  23.634   9.126
45913W        W46777   4.215  22.596   9.669
45914W        W46778   6.635  23.642  10.186
45915W        W46779   7.213  25.342   9.486
45916W        W46780   5.023  24.951   8.924
45917W        W46781   6.237  25.386  10.173
45918W        W46782   6.054  22.717   9.861
45919W        W46783   5.341  25.499   9.883
45920W        W46784   6.996  22.424   8.473
45921W        W46785   6.619  23.676   9.659
45922W        W46786   3.738  22.762   9.796
45923W        W46787   6.582  22.605   8.697
45924W        W46788   6.964  22.849  10.360
45925W        W46789   5.811  24.563   8.954
45926W        W46790   5.136  25.276   8.540
45927W        W46791   4.034  22.247   7.806
45928W        W46792   5.405  22.152   9.320
45929W        W46793   4.213  25.464   7.552
45930W        W46794   5.050  23.830   8.014
45931W        W46795   5.499  24.302  10.379
45932W        W46796   5.304  22.454   8.318
45933W        W46797   6.726  22.103   8.783
45934W        W46798   6.420  25.569   9.054
45935W        W46799   5.657  25.237   9.503
45936W        W46800   5.084  24.156   9.499
45937W        W46801   6.945  24.907   9.673
45938W        W46802   4.541  22.342   8.344
45939W        W46803   4.977  24.658   9.340
45940W        W46804   4.478  22.690   7.349
45941W        W46805   5.426  23.207   9.706
45942W        W46806   6.291  21.989   9.546
45943W        W46807   3.743  23.939   9.781
45944W        W46808   5.400  23.669   7.659
45945W        W46809   4.584  22.170   7.449
45946W        W46810   5.300  23.071   8.315
45947W        W46811   6.291  22.269  10.149
45948W        W46812   4.994  24.204  10.250
45949W        W46813   5.814  23.862  10.459
45950W        W46814   6.324  23.955  10.466
45951W        W46815   5.560  22.096  10.922
45952W        W46816   4.624  22.646   9.065
45953W        W46817   4.187  22.582   8.765
45954W        W46818   4.152  25.300   8.488
45955W        W46819   5.556  24.826  10.502
45956W        W46820   4.859  24.339   7.865
45957W        W46821   6.108  23.790   9.136
45958W        W46822   6.261  23.373   9.439
45959W        W46823   5.524  23.880   9.457
45960W        W46824   6.408  24.678   7.322
45961W        W46825   5.752  22.429   8.585
45962W        W46826   7.111  22.738   8.084
45963W        W46827   3.941  25.298  10.329
45964W        W46828   4.043  24.375   9.684
45965W        W46829   3.487  25.563   8.048
45966W        W46830   5.588  22.664   9.626
45967W        W46831   4.855  24.879   7.971
45968W        W46832   7.116  25.184   7.907
45969W        W46833   6.118  23.420   7.865
45970W        W46834   4.888  22.754   8.205
45971W        W46835   5.344  22.642   7.286
45972W        W46836   6.012  24.389  10.470
45973W        W46837   6.593  22.299   8.168
45974W        W46838   3.668  21.947   7.616
45975W        W46839   5.035  24.529   9.831
45976W        W46840   4.704  24.190   9.161
45977W        W46841   4.682  24.676   7.498
45978W        W46842   4.070  24.865   8.153
45979W        W46843   4.468  23.629  10.574
45980W        W46844   5.075  22.141  10.739
45981W        W46845   5.587  22.316  10.050
45982W        W46846   4.984  22.037   8.478
45983W        W46847   5.880  22.236   7.653
45984W        W46848   3.829  22.289   9.556
45985W        W46849   3.827  22.974   8.843
45986W        W46850   6.827  22.041   9.321
45987W        W46851   3.851  22.621   8.100
45988W        W46852   6.598  22.366   9.722
45989W        W46853   6.948  23.424   7.474
45990W        W46854   4.235  22.331   9.231
45991W        W46855   5.593  22.910  10.098
45992W        W46856   3.522  22.448   7.691
45993W        W46857   4.505  24.116  10.390
45994W        W46858   5.752  23.420   9.332
45995W        W46859   5.588  25.503   7.621
45996W        W46860   3.745  24.075   7.104
45997W        W46861   4.673  24.632  10.569
45998W        W46862   4.037  23.483  10.083
45999W        W46863   5.139  23.713   9.792
46000W        W46864   6.730  21.993  10.064
46001W        W46865   7.325  23.796  10.235
46002W        W46866   7.095  23.708   7.906
46003W        W46867   5.872  23.857   7.771
46004W        W46868   6.513  25.510   7.347
46005W        W46869   5.736  23.555  10.871
46006W        W46870   4.234  24.596  10.837
46007W        W46871   7.218  22.444  10.620
46008W        W46872   6.766  23.234   9.424
46009W        W46873   5.308  25.368  10.844
46010W        W46874   5.004  21.942   7.658
46011W        W46875   6.768  24.439   7.598
46012W        W46876   4.558  22.737  10.413
46013W        W46877   5.102  24.702  10.294
46014W        W46878   7.037  22.479   9.968
46015W        W46879   6.653  25.453   7.842
46016W        W46880   6.418  24.092   9.440
46017W        W46881   4.556  22.394  10.014
46018W        W46882   5.259  23.463  10.695
46019W        W46883   4.615  24.568   8.343
46020W        W46884   6.618  24.155   8.481
46021W        W46885   4.131  22.807  10.134
46022W        W46886   5.497  24.928   8.701
46023W        W46887   7.109  23.308   9.032
46024W        W46888   5.408  21.952  10.412
46025W        W46889   6.415  24.863   9.531
46026W        W46890   6.746  25.214   9.303
46027W        W46891   5.501  24.944   7.298
46028W        W46892   3.777  24.606  10.576
46029W        W46893   4.603  22.883   9.565
46030W        W46894   4.491  22.156   8.818
46031W        W46895   5.959  22.927   9.379
46032W        W46896   5.027  23.999   7.488
46033W        W46897   6.970  24.183   9.423
46034W        W46898   4.218  24.868  10.399
46035W        W46899   6.867  25.534   8.313
46036W        W46900   4.910  22.504   8.674
46037W        W46901   4.405  23.775   9.026
46038W        W46902   4.772  25.508   9.708
46039W        W46903   6.930  25.505  10.570
46040W        W46904   6.025  23.789   9.635
46041W        W46905   3.998  23.178   7.304
46042W        W46906   7.185  25.230   8.544
46043W        W46907   6.735  22.581   7.752
46044W        W46908   4.880  21.896  10.135
46045W        W46909   6.872  24.960   8.843
46046W        W46910   6.693  23.297   8.711
46047W        W46911   4.921  23.020   8.682
46048W        W46912   5.217  23.326  10.158
46049W        W46913   6.428  24.793  10.038
46050W        W46914   5.022  22.853  10.160
46051W        W46915   4.801  25.424   8.899
46052W        W46916   4.329  25.505  10.599
46053W        W46917   4.266  24.948   7.670
46054W        W46918   7.005  24.567   8.497
46055W        W46919   4.565  23.110  10.046
46056W        W46920   6.993  22.905   7.440
46057W        W46921   5.040  24.237   8.337
46058W        W46922   6.118  23.604  10.106
46059W        W46923   5.926  23.230   9.804
46060W        W46924   4.496  23.567   9.809
46061W        W46925   6.605  25.668   9.544
46062W        W46926   6.373  22.201  10.670
46063W        W46927   4.092  22.251  10.528
46064W        W46928   4.487  23.332   9.347
46065W        W46929   4.932  22.948   7.230
46066W        W46930   3.735  24.829  10.103
46067W        W46931   5.226  23.469   9.316
46068W        W46932   4.924  22.560   7.588
46069W        W46933   4.046  23.375   8.583
46070W        W46934   3.898  25.515   9.867
46071W        W46935   6.598  23.599   7.817
46072W        W46936   6.758  22.380  10.395
46073W        W46937   6.529  24.598   8.732
46074W        W46938   3.800  23.432  10.570
46075W        W46939   6.924  22.079   7.810
46076W        W46940   6.626  24.547   8.118
46077W        W46941   5.486  23.554   8.180
46078W        W46942   6.402  22.261   7.531
46079W        W46943   6.455  22.852   9.559
46080W        W46944   4.051  23.382   9.089
46081W        W46945   4.413  24.268   8.734
46082W        W46946   6.250  23.012   8.577
46083W        W46947   5.132  22.587   9.168
46084W        W46948   7.217  24.486   9.790
46085W        W46949   7.355  22.375   9.432
46086W        W46950   3.757  25.236   8.821
46087W        W46951   4.076  24.356   8.345
46088W        W46952   4.155  22.144  11.054
46089W        W46953   5.072  24.920  10.766
46090W        W46954   7.018  23.811   8.877
46091W        W46955   6.335  24.092   7.667
46092W        W46956   5.909  25.568   9.800
46093W        W46957   5.315  21.942   8.077
46094W        W46958   5.823  23.035   8.895
46095W        W46959   3.694  24.414   9.299
46096W        W46960   4.923  22.275   8.017
46097W        W46961   4.933  23.890  10.656
46098W        W46962   5.773  22.910   8.401
46099W        W46963   6.158  24.460   9.743
46100W        W46964   4.218  24.823   9.894
46101W        W46965   4.487  25.064  10.792
46102W        W46966   4.475  22.507   7.848
46103W        W46967   6.140  22.940   8.031
46104W        W46968   6.032  24.928  10.336
46105W        W46969   4.843  23.488   8.946
46106W        W46970   4.313  25.275   9.658
46107W        W46971   7.021  25.363   7.436
46108W        W46972   3.937  23.911  10.409
46109W        W46973   5.885  24.233   9.370
46110W        W46974   4.554  24.064   8.256
46111W        W46975   4.726  24.950   9.785
46112W        W46976   5.334  22.265   8.813
46113W        W46977   3.664  24.527   8.044
46114W        W46978   5.436  23.149   7.425
46115W        W46979   4.031  23.880   8.663
46116W        W46980   5.077  22.347  10.227
46117W        W46981   6.916  22.230   7.330
46118W        W46982   6.902  23.987  10.485
46119W        W46983   5.785  25.256  10.699
46120W        W46984   7.277  24.316  10.269
46121W        W46985   6.732  24.992  10.850
46122W        W46986   4.459  25.580   9.274
46123W        W46987   7.427  24.048   8.681
46124W        W46988   5.792  23.538   8.816
46125W        W46989   5.576  21.915   8.527
46126W        W46990   4.654  25.045   8.554
46127W        W46991   5.097  22.795   9.641
46128W        W46992   4.930  22.126   9.085
46129W        W46993   3.808  25.179   7.785
46130W        W46994   5.455  24.381   8.604
46131W        W46995   4.700  25.081  10.300
46132W        W46996   3.465  24.003   7.951
46133W        W46997   3.771  22.552   9.114
46134W        W46998   5.361  24.369   9.125
46135W        W46999   3.595  22.157   8.119
46136W        W47000   6.451  23.240   9.907
46137W        W47001   6.274  22.753   7.559
46138W        W47002   6.765  24.635   9.240
46139W        W47003   5.444  24.859   9.217
46140W        W47004   4.943  25.409   8.061
46141W        W47005   6.067  21.918   7.296
46142W        W47006   3.943  25.263   9.302
46143W        W47007   5.877  22.999  10.742
46144W        W47008   4.106  22.739  10.666
46145W        W47009   3.699  23.085   8.348
46146W        W47010   5.144  23.280   7.866
46147W        W47011   6.150  23.457  10.587
46148W        W47012   4.794  23.737   9.407
46149W        W47013   6.228  22.138   8.677
46150W        W47014   5.370  25.332   9.045
46151W        W47015   6.584  25.244   9.820
46152W        W47016   6.366  25.002   9.034
46153W        W47017   6.173  24.173   8.794
46154W        W47018   5.371  22.307   7.690
46155W        W47019   7.270  22.036   8.664
46156W        W47020   5.010  23.466   7.352
46157W        W47021   7.039  22.933   8.571
46158W        W47022   5.487  24.184   7.627
46159W        W47023   6.608  24.345  10.255
46160W        W47024   6.709  24.957   7.674
46161W        W47025   4.988  22.631  10.651
46162W        W47026   4.907  23.277   9.691
46163W        W47027   6.934  24.727  10.160
46164W        W47028   5.925  22.588  10.340
46165W        W47029   3.676  23.091  10.211
46166W        W47030   5.628  23.643   9.931
46167W        W47031   3.882  24.328   8.827
46168W        W47032   4.049  23.590   9.556
46169W        W47033   6.378  24.027   9.944
46170W        W47034   6.298  25.222  10.660
46171W        W47035   6.095  23.063  10.257
46172W        W47036   6.520  25.282   8.616
46173W        W47037   5.390  24.950   9.905
46174W        W47038   4.694  25.121   9.301
46175W        W47039   6.680  24.456   9.743
46176W        W47040   5.606  24.452  10.857
46177W        W47041   4.216  24.382   9.197
46178W        W47042   6.663  24.167   8.999
46179W        W47043   6.182  25.321   9.430
46180W        W47044   4.271  24.850   9.390
46181W        W47045   5.371  22.977  10.563
46182W        W47046   5.352  25.083   8.118
46183W        W47047   5.108  24.397  10.718
46184W        W47048   5.084  24.764   8.434
46185W        W47049   4.503  23.239   7.181
46186W        W47050   3.784  25.472  14.361
46187W        W47051   4.026  24.389  13.796
46188W        W47052   6.708  23.983  11.568
46189W        W47053   7.076  25.311  13.652
46190W        W47054   4.653  25.271  11.236
46191W        W47055   5.117  23.601  12.004
46192W        W47056   4.666  23.242  12.652
46193W        W47057   5.494  23.889  11.744
46194W        W47058   5.206  25.196  13.923
46195W        W47059   3.630  22.570  13.939
46196W        W47060   4.304  21.820  13.796
46197W        W47061   6.354  22.404  12.619
46198W        W47062   5.976  23.235  11.204
46199W        W47063   6.345  22.775  14.250
46200W        W47064   3.770  22.301  13.515
46201W        W47065   4.009  25.020  14.438
46202W        W47066   5.539  24.155  11.287
46203W        W47067   3.831  23.038  13.039
46204W        W47068   4.968  23.307  14.139
46205W        W47069   6.996  23.026  12.714
46206W        W47070   6.904  24.093  13.573
46207W        W47071   5.538  23.282  12.627
46208W        W47072   5.899  24.727  12.984
46209W        W47073   4.376  23.927  13.106
46210W        W47074   3.491  23.429  12.943
46211W        W47075   4.880  23.675  13.803
46212W        W47076   6.920  23.455  14.196
46213W        W47077   4.535  24.737  12.570
46214W        W47078   5.676  24.600  13.742
46215W        W47079   5.103  23.217  12.952
46216W        W47080   5.235  24.016  12.596
46217W        W47081   5.936  24.894  14.533
46218W        W47082   5.403  23.970  14.554
46219W        W47083   5.378  23.794  13.947
46220W        W47084   3.595  22.883  14.388
46221W        W47085   6.403  24.645  14.284
46222W        W47086   4.062  22.124  12.072
46223W        W47087   4.553  24.413  13.218
46224W        W47088   7.068  24.399  12.617
46225W        W47089   6.548  22.849  12.937
46226W        W47090   6.782  22.651  10.841
46227W        W47091   7.214  23.513  13.433
46228W        W47092   5.144  25.190  13.104
46229W        W47093   6.846  24.578  11.393
46230W        W47094   4.130  25.569  11.611
46231W        W47095   4.507  25.465  12.035
46232W        W47096   4.423  22.187  13.341
46233W        W47097   6.815  23.285  13.687
46234W        W47098   6.421  23.672  12.207
46235W        W47099   6.234  23.652  11.055
46236W        W47100   5.513  24.526  13.252
46237W        W47101   5.570  22.785  12.437
46238W        W47102   5.977  24.924  13.482
46239W        W47103   6.668  23.451  11.788
46240W        W47104   6.069  22.285  11.812
46241W        W47105   4.379  25.118  11.689
46242W        W47106   3.699  22.567  12.191
46243W        W47107   6.319  23.304  12.559
46244W        W47108   3.965  24.777  12.692
46245W        W47109   5.127  25.109  11.258
46246W        W47110   6.416  23.177  10.921
46247W        W47111   3.810  24.849  13.196
46248W        W47112   4.568  24.462  13.716
46249W        W47113   5.215  24.127  12.099
46250W        W47114   4.932  22.372  13.219
46251W        W47115   7.146  22.063  12.803
46252W        W47116   4.621  24.238  10.890
46253W        W47117   4.103  22.647  11.175
46254W        W47118   4.168  24.824  12.215
46255W        W47119   4.911  24.402  12.427
46256W        W47120   6.657  25.163  13.954
46257W        W47121   5.750  22.834  11.461
46258W        W47122   6.895  25.334  12.607
46259W        W47123   6.343  23.189  13.939
46260W        W47124   7.345  24.766  12.338
46261W        W47125   5.863  24.110  13.806
46262W        W47126   3.501  23.612  11.994
46263W        W47127   4.800  24.024  13.435
46264W        W47128   5.976  23.287  11.722
46265W        W47129   5.947  23.770  11.996
46266W        W47130   4.177  23.062  13.457
46267W        W47131   4.151  23.025  13.975
46268W        W47132   4.025  21.983  12.589
46269W        W47133   5.790  22.476  12.794
46270W        W47134   5.558  22.480  14.077
46271W        W47135   5.970  22.374  11.329
46272W        W47136   7.141  25.189  14.169
46273W        W47137   5.878  21.898  13.895
46274W        W47138   6.916  24.549  14.361
46275W        W47139   6.466  22.615  13.787
46276W        W47140   6.379  22.562  12.103
46277W        W47141   6.498  23.717  14.333
46278W        W47142   4.318  25.219  12.511
46279W        W47143   5.230  22.825  11.434
46280W        W47144   4.418  22.205  14.170
46281W        W47145   6.708  22.898  11.846
46282W        W47146   6.954  23.170  11.449
46283W        W47147   4.799  25.375  14.193
46284W        W47148   4.815  21.938  11.587
46285W        W47149   6.918  22.506  12.619
46286W        W47150   7.175  24.809  11.035
46287W        W47151   3.898  23.953  12.917
46288W        W47152   5.929  22.458  10.829
46289W        W47153   7.149  24.853  12.839
46290W        W47154   7.061  22.196  13.299
46291W        W47155   5.762  23.366  14.001
46292W        W47156   5.579  24.433  11.870
46293W        W47157   6.146  23.883  14.664
46294W        W47158   5.851  21.997  12.590
46295W        W47159   4.277  22.895  12.796
46296W        W47160   4.303  24.013  13.600
46297W        W47161   5.450  24.611  12.366
46298W        W47162   6.873  23.200  13.178
46299W        W47163   5.714  25.257  13.800
46300W        W47164   6.747  24.050  10.998
46301W        W47165   5.522  23.682  12.293
46302W        W47166   7.166  22.240  13.980
46303W        W47167   5.390  24.181  13.601
46304W        W47168   5.539  22.903  12.960
46305W        W47169   6.419  23.187  11.443
46306W        W47170   6.682  22.754  11.341
46307W        W47171   6.766  24.926  11.849
46308W        W47172   6.330  24.906  12.649
46309W        W47173   6.273  23.694  11.583
46310W        W47174   5.818  23.841  12.699
46311W        W47175   6.714  24.128  12.330
46312W        W47176   4.102  22.613  13.202
46313W        W47177   6.676  23.753  13.866
46314W        W47178   7.196  25.292  13.084
46315W        W47179   5.024  24.891  12.502
46316W        W47180   6.225  25.367  13.748
46317W        W47181   6.036  22.666  13.508
46318W        W47182   5.372  25.490  13.491
46319W        W47183   6.900  22.412  12.086
46320W        W47184   6.758  23.702  13.242
46321W        W47185   3.733  22.825  13.508
46322W        W47186   6.589  22.859  12.437
46323W        W47187   6.829  22.916  14.052
46324W        W47188   5.966  24.562  12.498
46325W        W47189   5.199  25.153  12.096
46326W        W47190   4.522  22.340  11.403
46327W        W47191   5.428  22.059  12.883
46328W        W47192   4.207  25.473  11.095
46329W        W47193   4.996  23.838  11.568
46330W        W47194   5.472  24.267  14.104
46331W        W47195   5.577  22.429  11.883
46332W        W47196   6.743  22.051  12.440
46333W        W47197   6.393  25.444  12.709
46334W        W47198   5.654  25.179  13.095
46335W        W47199   5.174  24.147  13.095
46336W        W47200   7.001  24.895  13.366
46337W        W47201   4.548  22.244  11.918
46338W        W47202   4.919  24.629  12.935
46339W        W47203   4.529  22.499  10.903
46340W        W47204   5.477  23.273  13.303
46341W        W47205   6.131  22.172  13.057
46342W        W47206   3.797  23.901  13.472
46343W        W47207   5.323  23.666  11.192
46344W        W47208   4.663  22.002  11.046
46345W        W47209   5.419  23.172  12.116
46346W        W47210   6.222  22.173  13.570
46347W        W47211   4.978  24.184  13.908
46348W        W47212   5.797  23.841  14.262
46349W        W47213   6.231  24.130  14.179
46350W        W47214   5.355  22.139  14.411
46351W        W47215   4.785  22.788  12.925
46352W        W47216   4.230  22.548  12.367
46353W        W47217   4.014  25.299  12.045
46354W        W47218   5.548  24.880  14.169
46355W        W47219   4.677  24.324  11.418
46356W        W47220   6.358  23.796  12.783
46357W        W47221   6.385  23.345  13.058
46358W        W47222   5.663  24.019  13.191
46359W        W47223   5.955  24.491  11.240
46360W        W47224   5.919  22.419  12.291
46361W        W47225   7.181  22.761  11.743
46362W        W47226   3.949  25.244  13.912
46363W        W47227   4.045  24.343  13.283
46364W        W47228   3.626  25.488  11.697
46365W        W47229   5.475  22.456  13.215
46366W        W47230   5.212  24.594  11.189
46367W        W47231   6.778  25.117  11.357
46368W        W47232   5.810  23.706  11.365
46369W        W47233   5.173  22.634  12.127
46370W        W47234   5.475  22.677  10.997
46371W        W47235   5.904  24.508  14.185
46372W        W47236   6.587  22.354  11.670
46373W        W47237   3.719  21.981  11.287
46374W        W47238   5.021  24.506  13.443
46375W        W47239   4.739  24.130  12.816
46376W        W47240   4.725  24.720  11.084
46377W        W47241   3.908  24.868  11.776
46378W        W47242   4.428  23.566  14.055
46379W        W47243   4.902  22.043  14.146
46380W        W47244   5.707  22.292  13.628
46381W        W47245   4.980  22.142  12.202
46382W        W47246   5.766  21.954  11.551
46383W        W47247   3.986  22.132  13.076
46384W        W47248   3.854  22.977  12.498
46385W        W47249   6.666  22.131  12.958
46386W        W47250   4.022  22.299  11.568
46387W        W47251   6.556  22.482  13.306
46388W        W47252   6.917  23.171  10.863
46389W        W47253   4.431  22.406  12.852
46390W        W47254   5.540  22.843  13.629
46391W        W47255   3.577  22.489  11.344
46392W        W47256   4.497  24.083  14.071
46393W        W47257   5.873  23.432  13.019
46394W        W47258   5.611  25.398  11.265
46395W        W47259   3.723  23.799  10.924
46396W        W47260   4.689  24.556  14.192
46397W        W47261   4.053  23.491  13.710
46398W        W47262   5.237  23.728  13.428
46399W        W47263   6.728  22.131  13.698
46400W        W47264   7.192  23.765  13.879
46401W        W47265   7.107  23.663  11.584
46402W        W47266   5.940  24.139  11.627
46403W        W47267   6.618  25.471  10.984
46404W        W47268   5.749  23.562  14.726
46405W        W47269   4.244  24.540  14.462
46406W        W47270   7.183  22.540  14.407
46407W        W47271   6.770  23.488  12.737
46408W        W47272   5.220  25.439  14.463
46409W        W47273   5.161  21.944  11.217
46410W        W47274   6.460  24.553  11.036
46411W        W47275   4.568  22.700  14.012
46412W        W47276   5.167  24.657  13.909
46413W        W47277   6.960  22.584  13.641
46414W        W47278   6.391  25.481  11.448
46415W        W47279   6.512  24.161  13.175
46416W        W47280   4.722  22.300  13.735
46417W        W47281   5.403  23.471  14.355
46418W        W47282   4.382  24.607  11.797
46419W        W47283   6.359  24.100  11.923
46420W        W47284   4.175  22.552  13.716
46421W        W47285   5.081  24.647  12.015
46422W        W47286   7.239  23.402  12.433
46423W        W47287   5.362  22.005  13.914
46424W        W47288   6.379  24.668  13.131
46425W        W47289   6.689  25.073  12.993
46426W        W47290   5.556  24.936  11.027
46427W        W47291   3.779  24.613  14.181
46428W        W47292   4.611  22.740  13.444
46429W        W47293   4.496  22.111  12.421
46430W        W47294   6.049  22.930  13.052
46431W        W47295   5.052  24.100  11.131
46432W        W47296   6.844  23.991  12.821
46433W        W47297   4.242  24.815  14.017
46434W        W47298   6.765  25.496  11.878
46435W        W47299   4.772  22.553  12.465
46436W        W47300   4.300  23.891  12.585
46437W        W47301   4.787  25.493  13.319
46438W        W47302   6.796  25.565  14.266
46439W        W47303   6.126  23.832  13.242
46440W        W47304   4.030  23.160  10.951
46441W        W47305   7.103  25.177  12.153
46442W        W47306   7.052  22.391  11.415
46443W        W47307   4.853  21.791  13.701
46444W        W47308   6.821  24.814  12.438
46445W        W47309   6.764  23.296  12.266
46446W        W47310   5.099  22.982  12.506
46447W        W47311   5.318  23.322  13.775
46448W        W47312   6.227  24.551  13.799
46449W        W47313   5.008  22.894  13.789
46450W        W47314   4.822  25.344  12.426
46451W        W47315   4.291  25.425  14.250
46452W        W47316   4.268  24.913  11.240
46453W        W47317   6.775  24.404  11.885
46454W        W47318   4.588  23.173  13.769
46455W        W47319   7.177  22.813  11.136
46456W        W47320   5.156  24.325  11.614
46457W        W47321   6.153  23.687  13.933
46458W        W47322   5.957  23.185  13.532
46459W        W47323   4.507  23.574  13.464
46460W        W47324   6.516  25.517  13.264
46461W        W47325   6.390  22.010  14.061
46462W        W47326   3.934  22.142  13.991
46463W        W47327   4.550  23.188  13.142
46464W        W47328   5.036  23.017  10.963
46465W        W47329   3.731  24.810  13.704
46466W        W47330   5.385  23.661  12.943
46467W        W47331   4.999  22.440  11.145
46468W        W47332   4.785  23.909  12.334
46469W        W47333   3.871  25.420  13.436
46470W        W47334   6.708  23.571  11.234
46471W        W47335   6.730  22.420  14.174
46472W        W47336   6.414  24.561  12.220
46473W        W47337   3.910  23.440  14.214
46474W        W47338   6.833  21.928  11.432
46475W        W47339   6.361  24.513  11.588
46476W        W47340   5.480  23.374  11.620
46477W        W47341   6.476  22.322  11.158
46478W        W47342   6.452  22.991  13.436
46479W        W47343   3.913  23.492  12.658
46480W        W47344   4.359  24.334  12.290
46481W        W47345   6.318  23.117  12.066
46482W        W47346   5.218  22.548  12.775
46483W        W47347   7.264  24.476  13.500
46484W        W47348   7.014  22.685  13.110
46485W        W47349   3.756  25.201  12.477
46486W        W47350   3.876  24.371  11.980
46487W        W47351   4.068  22.175  14.564
46488W        W47352   5.039  24.928  14.329
46489W        W47353   7.241  23.917  12.499
46490W        W47354   6.309  24.109  11.272
46491W        W47355   5.905  25.524  13.366
46492W        W47356   6.569  24.199  14.562
46493W        W47357   5.300  21.993  11.780
46494W        W47358   6.076  22.856  12.514
46495W        W47359   3.671  24.418  12.946
46496W        W47360   5.004  22.411  11.674
46497W        W47361   4.969  23.841  14.294
46498W        W47362   5.867  22.851  12.004
46499W        W47363   6.004  24.376  13.377
46500W        W47364   4.224  24.787  13.515
46501W        W47365   4.523  24.995  14.405
46502W        W47366   4.705  22.824  11.314
46503W        W47367   6.235  22.754  11.645
46504W        W47368   6.065  24.975  14.036
46505W        W47369   5.086  23.522  12.531
46506W        W47370   4.335  25.245  13.305
46507W        W47371   7.108  25.317  11.013
46508W        W47372   3.990  23.913  13.999
46509W        W47373   6.088  24.241  12.896
46510W        W47374   4.745  24.260  11.936
46511W        W47375   4.735  24.921  13.353
46512W        W47376   5.441  22.274  12.399
46513W        W47377   3.292  24.416  11.355
46514W        W47378   5.483  23.179  11.121
46515W        W47379   3.883  23.843  12.253
46516W        W47380   5.210  22.437  13.668
46517W        W47381   6.956  22.164  10.968
46518W        W47382   6.959  23.962  14.308
46519W        W47383   5.730  25.332  14.342
46520W        W47384   7.210  24.286  13.974
46521W        W47385   6.713  25.068  14.463
46522W        W47386   4.422  25.577  12.918
46523W        W47387   7.197  24.290  12.144
46524W        W47388   5.896  23.319  12.260
46525W        W47389   5.735  21.963  12.087
46526W        W47390   4.672  24.960  12.099
46527W        W47391   5.139  22.838  13.298
46528W        W47392   4.916  22.132  12.746
46529W        W47393   3.853  25.188  11.352
46530W        W47394   5.698  24.157  12.292
46531W        W47395   4.731  24.958  13.876
46532W        W47396   3.505  24.033  11.644
46533W        W47397   3.849  22.485  12.700
46534W        W47398   5.592  24.329  12.782
46535W        W47399   3.572  22.208  11.815
46536W        W47400   6.378  23.503  13.530
46537W        W47401   6.203  22.775  11.127
46538W        W47402   6.913  24.459  13.098
46539W        W47403   5.400  24.813  12.842
46540W        W47404   4.883  25.286  11.705
46541W        W47405   6.053  21.974  11.013
46542W        W47406   3.983  25.266  12.931
46543W        W47407   5.733  23.079  14.465
46544W        W47408   4.051  22.587  14.229
46545W        W47409   3.666  23.091  12.019
46546W        W47410   5.016  23.301  11.401
46547W        W47411   6.100  23.415  14.381
46548W        W47412   4.855  23.666  13.047
46549W        W47413   6.272  22.053  12.217
46550W        W47414   5.331  25.294  12.629
46551W        W47415   6.503  25.027  13.481
46552W        W47416   5.808  25.061  12.595
46553W        W47417   6.196  24.103  12.408
46554W        W47418   5.452  22.341  11.389
46555W        W47419   7.244  22.037  12.311
46556W        W47420   4.813  23.486  10.957
46557W        W47421   7.064  22.879  12.237
46558W        W47422   5.922  24.048  10.933
46559W        W47423   6.679  24.285  13.996
46560W        W47424   6.302  25.056  11.149
46561W        W47425   5.047  22.539  14.173
46562W        W47426   4.951  23.301  13.433
46563W        W47427   6.969  24.753  13.881
46564W        W47428   6.062  22.393  14.006
46565W        W47429   3.658  23.106  13.920
46566W        W47430   5.739  23.660  13.568
46567W        W47431   3.858  24.285  12.492
46568W        W47432   4.063  23.507  13.174
46569W        W47433   6.354  24.074  13.647
46570W        W47434   6.304  25.373  14.287
46571W        W47435   5.907  22.880  13.994
46572W        W47436   6.546  25.204  12.252
46573W        W47437   5.380  24.954  13.502
46574W        W47438   4.696  25.140  12.877
46575W        W47439   6.659  24.531  13.536
46576W        W47440   5.563  24.505  14.570
46577W        W47441   4.253  24.355  12.808
46578W        W47442   6.543  24.423  12.711
46579W        W47443   6.171  25.169  13.075
46580W        W47444   4.325  24.825  13.026
46581W        W47445   5.379  22.961  14.133
46582W        W47446   5.354  24.864  11.641
46583W        W47447   5.096  24.367  14.415
46584W        W47448   4.830  24.792  11.585
46585W        W47449   4.526  23.014  10.861
46586W        W47450   3.796  25.531  18.003
46587W        W47451   4.031  24.357  17.419
46588W        W47452   6.810  23.934  15.494
46589W        W47453   6.969  25.329  17.318
46590W        W47454   4.840  25.188  14.756
46591W        W47455   4.940  23.473  15.672
46592W        W47456   4.389  23.325  16.116
46593W        W47457   5.393  24.003  15.453
46594W        W47458   5.221  25.136  17.596
46595W        W47459   3.730  22.626  17.603
46596W        W47460   4.426  21.906  17.422
46597W        W47461   6.178  22.283  16.359
46598W        W47462   5.927  23.248  15.109
46599W        W47463   6.397  22.645  17.812
46600W        W47464   3.790  22.364  17.164
46601W        W47465   3.946  25.038  18.084
46602W        W47466   5.238  24.615  14.977
46603W        W47467   3.834  23.125  16.663
46604W        W47468   4.837  23.307  17.812
46605W        W47469   7.035  22.705  16.413
46606W        W47470   6.956  24.017  17.074
46607W        W47471   5.251  23.163  16.314
46608W        W47472   5.915  24.759  16.577
46609W        W47473   4.248  24.025  16.838
46610W        W47474   3.432  23.473  16.562
46611W        W47475   4.786  23.679  17.460
46612W        W47476   6.965  23.353  17.832
46613W        W47477   4.504  24.752  16.245
46614W        W47478   5.790  24.575  17.359
46615W        W47479   4.742  23.155  16.490
46616W        W47480   5.101  23.965  16.309
46617W        W47481   6.158  24.827  18.107
46618W        W47482   5.473  23.881  18.107
46619W        W47483   5.276  23.837  17.543
46620W        W47484   3.588  22.908  18.040
46621W        W47485   6.540  24.682  17.766
46622W        W47486   3.936  22.069  15.683
46623W        W47487   4.535  24.471  16.859
46624W        W47488   6.945  24.136  16.340
46625W        W47489   6.684  22.335  16.509
46626W        W47490   6.703  22.739  14.623
46627W        W47491   7.279  23.345  17.022
46628W        W47492   5.133  25.196  16.797
46629W        W47493   7.047  24.441  15.546
46630W        W47494   4.118  25.560  15.235
46631W        W47495   4.526  25.539  15.639
46632W        W47496   4.406  22.185  16.955
46633W        W47497   6.798  23.037  17.219
46634W        W47498   6.186  23.467  15.959
46635W        W47499   6.336  23.446  14.860
46636W        W47500   5.595  24.484  16.871
46637W        W47501   5.248  22.693  16.077
46638W        W47502   5.994  24.939  17.058
46639W        W47503   6.634  23.523  15.758
46640W        W47504   5.542  22.487  15.287
46641W        W47505   4.434  25.162  15.294
46642W        W47506   3.625  22.475  15.852
46643W        W47507   6.537  22.870  16.460
46644W        W47508   3.948  24.826  16.348
46645W        W47509   5.313  25.088  15.179
46646W        W47510   6.560  23.202  14.426
46647W        W47511   3.753  24.967  16.874
46648W        W47512   4.511  24.554  17.369
46649W        W47513   4.995  24.027  15.800
46650W        W47514   4.987  22.327  16.941
46651W        W47515   7.214  21.963  16.410
46652W        W47516   4.635  24.184  14.563
46653W        W47517   3.914  22.620  14.768
46654W        W47518   4.127  24.802  15.870
46655W        W47519   4.829  24.516  15.903
46656W        W47520   6.577  25.199  17.665
46657W        W47521   5.522  23.006  15.317
46658W        W47522   6.951  25.513  16.227
46659W        W47523   6.545  23.341  17.546
46660W        W47524   7.079  24.587  16.078
46661W        W47525   5.868  24.070  17.298
46662W        W47526   3.649  23.545  15.749
46663W        W47527   4.681  24.071  17.133
46664W        W47528   5.846  23.224  15.641
46665W        W47529   5.793  23.731  15.750
46666W        W47530   4.288  23.061  16.969
46667W        W47531   4.123  23.013  17.596
46668W        W47532   4.015  22.007  16.192
46669W        W47533   5.809  22.305  16.758
46670W        W47534   5.482  22.496  17.825
46671W        W47535   5.748  22.796  14.911
46672W        W47536   6.951  25.012  17.971
46673W        W47537   5.873  22.074  17.754
46674W        W47538   7.012  24.496  17.905
46675W        W47539   6.468  22.607  17.299
46676W        W47540   6.081  22.449  15.853
46677W        W47541   6.559  23.661  18.022
46678W        W47542   4.308  25.232  16.164
46679W        W47543   5.182  22.739  15.012
46680W        W47544   4.482  22.222  17.811
46681W        W47545   6.546  22.651  15.551
46682W        W47546   6.859  23.067  15.502
46683W        W47547   4.843  25.271  17.930
46684W        W47548   4.357  21.868  15.241
46685W        W47549   6.999  22.286  16.097
46686W        W47550   7.157  24.880  14.682
46687W        W47551   3.829  23.989  16.437
46688W        W47552   5.910  22.600  14.453
46689W        W47553   7.093  25.029  16.402
46690W        W47554   7.074  21.928  17.053
46691W        W47555   5.727  23.240  17.575
46692W        W47556   5.467  24.518  15.488
46693W        W47557   6.007  23.874  18.098
46694W        W47558   5.847  21.889  16.472
46695W        W47559   4.295  22.916  16.451
46696W        W47560   4.050  23.864  17.288
46697W        W47561   5.712  25.033  16.151
46698W        W47562   6.775  22.679  16.873
46699W        W47563   5.708  25.175  17.433
46700W        W47564   6.741  23.747  14.772
46701W        W47565   5.327  23.648  15.947
46702W        W47566   7.122  22.015  17.566
46703W        W47567   5.359  24.217  17.227
46704W        W47568   5.619  22.894  16.571
46705W        W47569   6.343  23.120  15.556
46706W        W47570   6.514  22.975  15.093
46707W        W47571   6.711  24.794  15.729
46708W        W47572   6.304  24.443  16.355
46709W        W47573   6.186  23.567  15.430
46710W        W47574   5.612  23.828  16.317
46711W        W47575   6.545  23.391  16.348
46712W        W47576   4.049  22.632  16.793
46713W        W47577   6.718  23.821  17.543
46714W        W47578   7.149  25.351  16.813
46715W        W47579   4.984  24.963  16.169
46716W        W47580   6.304  25.313  17.249
46717W        W47581   5.927  22.676  17.099
46718W        W47582   5.340  25.478  17.192
46719W        W47583   6.968  22.325  15.578
46720W        W47584   6.795  23.533  17.121
46721W        W47585   3.783  22.888  17.117
46722W        W47586   6.544  22.540  16.061
46723W        W47587   6.867  22.834  17.675
46724W        W47588   5.821  24.522  16.136
46725W        W47589   5.209  25.303  15.850
46726W        W47590   3.953  22.171  15.082
46727W        W47591   5.380  21.976  16.743
46728W        W47592   4.343  25.372  14.762
46729W        W47593   4.924  23.848  15.309
46730W        W47594   5.592  24.224  17.714
46731W        W47595   5.324  22.292  15.718
46732W        W47596   6.577  21.995  16.134
46733W        W47597   6.333  25.592  16.293
46734W        W47598   5.664  25.198  16.743
46735W        W47599   5.047  24.214  16.777
46736W        W47600   6.870  24.955  16.950
46737W        W47601   4.412  22.276  15.547
46738W        W47602   4.911  24.714  16.624
46739W        W47603   4.466  22.611  14.521
46740W        W47604   5.368  23.147  16.959
46741W        W47605   6.258  21.955  16.778
46742W        W47606   3.731  24.097  16.955
46743W        W47607   5.322  23.705  14.995
46744W        W47608   4.514  21.891  14.602
46745W        W47609   5.354  23.152  15.811
46746W        W47610   6.154  22.196  17.237
46747W        W47611   4.937  24.236  17.555
46748W        W47612   5.751  23.733  17.680
46749W        W47613   6.231  23.914  17.644
46750W        W47614   5.522  22.110  18.159
46751W        W47615   4.756  22.654  16.317
46752W        W47616   4.140  22.495  15.949
46753W        W47617   4.085  25.285  15.675
46754W        W47618   5.701  24.742  17.840
46755W        W47619   4.579  24.391  15.063
46756W        W47620   6.091  23.665  16.417
46757W        W47621   6.369  23.488  16.832
46758W        W47622   5.495  23.956  16.798
46759W        W47623   6.082  24.391  14.645
46760W        W47624   5.664  22.304  16.162
46761W        W47625   7.270  22.682  15.342
46762W        W47626   3.934  25.260  17.577
46763W        W47627   4.019  24.530  16.944
46764W        W47628   3.583  25.416  15.239
46765W        W47629   5.428  22.589  16.960
46766W        W47630   4.824  24.860  15.164
46767W        W47631   7.072  25.088  15.453
46768W        W47632   5.806  23.791  15.193
46769W        W47633   5.146  22.766  15.553
46770W        W47634   5.409  22.628  14.560
46771W        W47635   6.074  24.372  17.857
46772W        W47636   6.234  22.549  14.943
46773W        W47637   3.584  21.893  14.864
46774W        W47638   4.983  24.570  17.144
46775W        W47639   4.697  24.276  16.395
46776W        W47640   4.797  24.664  14.694
46777W        W47641   4.012  24.860  15.360
46778W        W47642   4.316  23.528  17.615
46779W        W47643   4.971  22.357  17.862
46780W        W47644   5.644  22.234  17.293
46781W        W47645   4.822  21.976  15.681
46782W        W47646   5.747  22.286  14.824
46783W        W47647   3.939  22.148  16.705
46784W        W47648   3.880  22.980  16.155
46785W        W47649   6.752  21.847  16.623
46786W        W47650   3.917  22.536  15.438
46787W        W47651   6.640  22.180  17.005
46788W        W47652   6.866  23.244  14.826
46789W        W47653   4.317  22.391  16.449
46790W        W47654   5.514  22.825  17.398
46791W        W47655   3.479  22.389  14.926
46792W        W47656   4.432  24.057  17.588
46793W        W47657   5.676  23.443  16.656
46794W        W47658   5.628  25.431  14.871
46795W        W47659   3.765  24.158  14.407
46796W        W47660   4.842  24.779  17.694
46797W        W47661   3.985  23.362  17.254
46798W        W47662   5.098  23.769  17.068
46799W        W47663   6.591  21.980  17.476
46800W        W47664   7.192  23.654  17.449
46801W        W47665   7.242  23.210  15.189
46802W        W47666   5.883  24.197  15.556
46803W        W47667   6.577  25.528  14.757
46804W        W47668   5.733  23.431  18.180
46805W        W47669   4.144  24.551  18.130
46806W        W47670   7.272  22.390  18.030
46807W        W47671   6.873  23.183  16.715
46808W        W47672   5.336  25.312  18.096
46809W        W47673   4.822  21.943  15.029
46810W        W47674   6.850  24.182  15.035
46811W        W47675   4.591  22.742  17.711
46812W        W47676   5.302  24.617  17.552
46813W        W47677   6.954  22.426  17.299
46814W        W47678   6.570  25.349  15.417
46815W        W47679   6.385  24.037  16.656
46816W        W47680   4.678  22.388  17.353
46817W        W47681   5.339  23.446  17.852
46818W        W47682   4.490  24.659  15.507
46819W        W47683   6.336  23.967  15.690
46820W        W47684   4.224  22.613  17.293
46821W        W47685   5.348  24.655  15.993
46822W        W47686   7.051  23.171  16.205
46823W        W47687   5.348  22.002  17.681
46824W        W47688   6.411  24.817  16.725
46825W        W47689   6.652  25.244  16.545
46826W        W47690   5.417  25.003  14.667
46827W        W47691   3.727  24.522  17.817
46828W        W47692   4.593  22.661  16.830
46829W        W47693   4.510  22.148  16.059
46830W        W47694   6.090  23.146  16.509
46831W        W47695   5.037  24.150  14.897
46832W        W47696   6.803  23.734  16.643
46833W        W47697   4.154  24.794  17.669
46834W        W47698   6.947  25.529  15.706
46835W        W47699   4.837  22.472  15.839
46836W        W47700   4.331  23.883  16.347
46837W        W47701   4.822  25.578  16.986
46838W        W47702   6.891  25.533  17.914
46839W        W47703   5.973  23.801  16.891
46840W        W47704   4.075  23.028  14.495
46841W        W47705   7.269  25.160  15.936
46842W        W47706   6.824  22.538  15.101
46843W        W47707   4.950  21.951  17.328
46844W        W47708   6.643  24.813  16.239
46845W        W47709   6.602  23.051  15.977
46846W        W47710   4.864  23.040  15.977
46847W        W47711   5.161  23.310  17.394
46848W        W47712   6.297  24.373  17.409
46849W        W47713   4.974  22.836  17.186
46850W        W47714   4.780  25.447  16.096
46851W        W47715   4.311  25.433  17.903
46852W        W47716   4.353  24.856  14.886
46853W        W47717   6.701  24.277  15.909
46854W        W47718   4.597  23.153  17.378
46855W        W47719   7.170  22.835  14.843
46856W        W47720   4.984  24.384  15.390
46857W        W47721   6.108  23.536  17.322
46858W        W47722   5.880  23.178  17.039
46859W        W47723   4.435  23.586  17.088
46860W        W47724   6.646  25.579  16.939
46861W        W47725   6.375  22.151  18.013
46862W        W47726   4.016  22.176  17.603
46863W        W47727   4.320  23.433  16.610
46864W        W47728   5.015  22.952  14.522
46865W        W47729   3.735  24.787  17.362
46866W        W47730   5.183  23.559  16.616
46867W        W47731   4.867  22.288  14.603
46868W        W47732   4.536  23.784  15.888
46869W        W47733   3.897  25.440  17.092
46870W        W47734   6.670  23.476  15.249
46871W        W47735   6.810  22.337  17.800
46872W        W47736   6.241  24.484  15.837
46873W        W47737   3.831  23.455  17.809
46874W        W47738   6.995  22.022  15.142
46875W        W47739   6.535  24.370  15.419
46876W        W47740   5.447  23.498  15.447
46877W        W47741   6.342  22.320  14.488
46878W        W47742   6.296  22.492  16.809
46879W        W47743   3.882  23.495  16.277
46880W        W47744   4.368  24.294  15.995
46881W        W47745   6.093  22.952  16.005
46882W        W47746   5.269  22.400  16.493
46883W        W47747   7.123  24.528  17.103
46884W        W47748   7.147  22.346  16.777
46885W        W47749   3.793  25.226  16.091
46886W        W47750   4.059  24.358  15.588
46887W        W47751   4.135  22.138  18.183
46888W        W47752   5.221  24.827  18.038
46889W        W47753   6.955  23.663  16.135
46890W        W47754   6.400  23.925  15.134
46891W        W47755   5.860  25.537  17.075
46892W        W47756   6.572  24.183  17.916
46893W        W47757   5.214  21.864  15.370
46894W        W47758   3.674  24.457  16.557
46895W        W47759   4.951  22.342  15.332
46896W        W47760   4.956  23.837  17.937
46897W        W47761   5.653  22.731  15.756
46898W        W47762   6.110  24.427  16.943
46899W        W47763   4.178  24.973  17.189
46900W        W47764   4.470  24.944  18.034
46901W        W47765   4.441  22.288  14.938
46902W        W47766   6.007  22.781  15.370
46903W        W47767   6.120  24.928  17.594
46904W        W47768   4.873  23.533  16.187
46905W        W47769   4.368  25.364  16.914
46906W        W47770   7.081  25.387  14.672
46907W        W47771   3.863  23.994  17.757
46908W        W47772   5.895  24.190  16.551
46909W        W47773   4.547  24.149  15.531
46910W        W47774   4.695  24.983  17.041
46911W        W47775   5.090  22.072  16.114
46912W        W47776   3.590  24.568  15.525
46913W        W47777   5.405  23.189  14.835
46914W        W47778   4.001  23.897  15.945
46915W        W47779   5.187  22.421  17.406
46916W        W47780   6.855  22.230  14.659
46917W        W47781   7.072  23.984  17.857
46918W        W47782   5.834  25.243  17.944
46919W        W47783   7.322  24.180  17.429
46920W        W47784   4.472  25.631  16.490
46921W        W47785   7.167  24.045  15.854
46922W        W47786   5.723  23.336  16.146
46923W        W47787   5.538  21.796  16.065
46924W        W47788   4.624  25.051  15.795
46925W        W47789   5.076  22.830  16.681
46926W        W47790   4.786  22.178  16.504
46927W        W47791   3.919  25.159  14.934
46928W        W47792   5.502  24.153  15.930
46929W        W47793   4.529  25.141  17.525
46930W        W47794   3.906  23.882  15.431
46931W        W47795   3.804  22.494  16.339
46932W        W47796   5.422  24.332  16.413
46933W        W47797   3.513  22.140  15.388
46934W        W47798   6.356  22.987  16.947
46935W        W47799   6.179  22.989  14.694
46936W        W47800   6.930  24.584  16.600
46937W        W47801   5.395  24.829  16.510
46938W        W47802   4.923  25.324  15.413
46939W        W47803   5.886  22.074  14.375
46940W        W47804   3.993  25.310  16.564
46941W        W47805   6.012  22.951  17.968
46942W        W47806   4.140  22.589  17.907
46943W        W47807   3.695  22.997  15.681
46944W        W47808   5.065  23.238  15.217
46945W        W47809   6.137  23.429  17.840
46946W        W47810   4.723  23.791  16.680
46947W        W47811   6.062  21.923  16.011
46948W        W47812   5.345  25.319  16.343
46949W        W47813   6.482  24.823  17.251
46950W        W47814   6.206  25.078  16.288
46951W        W47815   6.019  24.056  16.075
46952W        W47816   5.255  22.208  14.930
46953W        W47817   7.332  21.937  15.896
46954W        W47818   4.992  23.465  14.665
46955W        W47819   6.997  22.750  15.885
46956W        W47820   5.555  24.202  15.003
46957W        W47821   6.805  24.327  17.465
46958W        W47822   6.805  25.114  15.002
46959W        W47823   5.094  22.865  17.697
46960W        W47824   4.860  23.312  16.960
46961W        W47825   6.950  24.839  17.480
46962W        W47826   5.940  22.562  17.592
46963W        W47827   3.607  23.111  17.513
46964W        W47828   5.585  23.594  17.187
46965W        W47829   3.863  24.377  16.070
46966W        W47830   3.899  23.631  16.812
46967W        W47831   6.415  23.933  17.150
46968W        W47832   6.171  23.007  17.455
46969W        W47833   6.582  25.265  15.963
46970W        W47834   5.413  24.899  17.116
46971W        W47835   4.693  25.180  16.537
46972W        W47836   6.623  24.401  16.976
46973W        W47837   5.698  24.346  18.213
46974W        W47838   4.191  24.388  16.474
46975W        W47839   6.497  23.881  16.175
46976W        W47840   6.181  25.323  16.738
46977W        W47841   4.299  24.896  16.698
46978W        W47842   5.501  22.979  18.000
46979W        W47843   5.572  25.011  15.642
46980W        W47844   5.176  24.317  18.025
46981W        W47845   5.072  24.861  15.608
46982W        W47846   4.544  23.108  14.316
46983W        W47847   3.696  25.519  21.655
46984W        W47848   4.250  24.488  21.178
46985W        W47849   6.946  24.109  19.172
46986W        W47850   7.044  25.241  20.988
46987W        W47851   4.715  25.190  18.416
46988W        W47852   4.997  23.482  19.594
46989W        W47853   4.625  23.119  19.956
46990W        W47854   5.630  23.802  19.040
46991W        W47855   5.201  25.290  21.297
46992W        W47856   3.651  22.593  21.171
46993W        W47857   4.246  21.912  21.230
46994W        W47858   6.299  22.310  19.940
46995W        W47859   5.982  22.823  18.485
46996W        W47860   6.324  22.791  21.545
46997W        W47861   3.666  22.337  20.714
46998W        W47862   3.844  25.033  21.773
46999W        W47863   5.316  24.565  18.491
47000W        W47864   3.675  23.101  20.285
47001W        W47865   4.841  23.243  21.381
47002W        W47866   6.979  22.997  19.990
47003W        W47867   6.909  24.008  20.731
47004W        W47868   5.376  23.356  19.952
47005W        W47869   5.948  24.652  20.106
47006W        W47870   4.206  24.081  20.523
47007W        W47871   3.488  23.595  20.282
47008W        W47872   4.796  23.758  21.201
47009W        W47873   6.976  23.442  21.391
47010W        W47874   4.525  24.962  19.938
47011W        W47875   5.745  24.581  20.946
47012W        W47876   5.053  23.074  20.255
47013W        W47877   5.241  23.861  19.895
47014W        W47878   6.044  24.904  21.645
47015W        W47879   5.415  24.064  21.737
47016W        W47880   5.308  23.903  21.224
47017W        W47881   3.602  22.819  21.624
47018W        W47882   6.454  24.680  21.394
47019W        W47883   4.023  22.102  19.402
47020W        W47884   4.710  24.810  20.456
47021W        W47885   6.850  24.323  19.665
47022W        W47886   6.723  22.615  20.213
47023W        W47887   6.885  22.707  18.176
47024W        W47888   7.450  23.433  20.585
47025W        W47889   5.375  25.075  20.408
47026W        W47890   7.183  24.887  18.856
47027W        W47891   4.044  25.370  18.926
47028W        W47892   4.390  25.305  19.321
47029W        W47893   4.428  22.214  20.680
47030W        W47894   6.945  23.469  20.737
47031W        W47895   6.294  23.511  19.617
47032W        W47896   6.193  23.279  18.342
47033W        W47897   5.582  24.564  20.449
47034W        W47898   5.518  22.660  19.739
47035W        W47899   5.968  24.885  20.609
47036W        W47900   6.730  23.689  19.414
47037W        W47901   5.921  22.222  19.115
47038W        W47902   4.194  24.898  19.041
47039W        W47903   3.710  22.502  19.468
47040W        W47904   6.385  23.106  19.946
47041W        W47905   3.945  24.833  19.999
47042W        W47906   5.194  25.056  18.538
47043W        W47907   6.549  23.098  18.025
47044W        W47908   3.828  24.891  20.602
47045W        W47909   4.689  24.692  20.951
47046W        W47910   4.757  23.949  19.753
47047W        W47911   4.797  22.490  20.438
47048W        W47912   7.251  22.053  20.071
47049W        W47913   4.625  24.396  17.948
47050W        W47914   4.023  22.594  18.411
47051W        W47915   4.209  24.821  19.555
47052W        W47916   5.132  24.341  19.775
47053W        W47917   6.589  25.163  21.237
47054W        W47918   5.643  22.679  18.853
47055W        W47919   6.959  25.439  19.827
47056W        W47920   6.503  23.268  21.340
47057W        W47921   7.404  24.732  19.613
47058W        W47922   5.900  24.080  20.943
47059W        W47923   3.528  23.667  19.365
47060W        W47924   4.834  24.339  20.609
47061W        W47925   6.023  23.025  18.976
47062W        W47926   5.914  23.427  19.292
47063W        W47927   4.089  23.137  20.589
47064W        W47928   4.031  23.133  21.486
47065W        W47929   3.928  22.152  19.908
47066W        W47930   5.760  22.428  20.148
47067W        W47931   5.483  22.532  21.475
47068W        W47932   5.896  22.304  18.583
47069W        W47933   7.043  25.040  21.469
47070W        W47934   5.981  22.096  21.278
47071W        W47935   6.979  24.516  21.514
47072W        W47936   6.490  22.604  21.095
47073W        W47937   6.269  22.485  19.419
47074W        W47938   6.559  23.699  21.632
47075W        W47939   4.139  25.284  19.787
47076W        W47940   5.124  22.611  18.727
47077W        W47941   4.534  22.371  21.338
47078W        W47942   6.597  22.814  19.180
47079W        W47943   6.920  23.224  19.104
47080W        W47944   4.749  25.485  21.566
47081W        W47945   4.465  21.787  18.863
47082W        W47946   7.064  22.476  19.836
47083W        W47947   7.255  24.814  18.336
47084W        W47948   3.815  23.983  20.151
47085W        W47949   5.953  22.451  18.099
47086W        W47950   7.214  24.837  20.089
47087W        W47951   7.090  22.097  20.573
47088W        W47952   5.648  23.430  21.276
47089W        W47953   5.377  24.290  19.042
47090W        W47954   6.136  23.962  21.789
47091W        W47955   5.913  21.961  20.026
47092W        W47956   4.172  22.922  20.131
47093W        W47957   4.046  23.934  20.996
47094W        W47958   5.774  25.202  19.660
47095W        W47959   7.057  22.997  20.545
47096W        W47960   5.802  25.390  21.163
47097W        W47961   6.729  24.007  18.389
47098W        W47962   5.486  23.617  19.501
47099W        W47963   7.147  22.099  21.091
47100W        W47964   5.421  24.206  20.804
47101W        W47965   5.593  22.936  20.204
47102W        W47966   6.413  23.341  19.113
47103W        W47967   6.454  22.998  18.697
47104W        W47968   6.774  25.042  19.145
47105W        W47969   6.393  24.484  19.880
47106W        W47970   6.172  23.800  19.040
47107W        W47971   5.732  23.756  19.928
47108W        W47972   6.713  23.529  19.929
47109W        W47973   4.106  22.624  20.592
47110W        W47974   6.652  23.720  21.097
47111W        W47975   7.173  25.291  20.317
47112W        W47976   5.005  24.834  19.777
47113W        W47977   6.263  25.402  20.907
47114W        W47978   6.118  22.838  20.814
47115W        W47979   5.351  25.555  20.865
47116W        W47980   6.932  22.378  19.256
47117W        W47981   6.586  23.709  20.450
47118W        W47982   3.644  22.867  20.729
47119W        W47983   6.603  22.698  19.722
47120W        W47984   6.862  23.039  21.034
47121W        W47985   5.937  24.446  19.631
47122W        W47986   5.263  25.129  19.443
47123W        W47987   4.148  22.171  18.715
47124W        W47988   5.307  22.233  20.457
47125W        W47989   4.209  25.367  18.410
47126W        W47990   5.179  23.547  19.084
47127W        W47991   5.459  24.381  21.316
47128W        W47992   5.462  22.278  19.340
47129W        W47993   6.689  22.153  19.653
47130W        W47994   6.441  25.515  20.013
47131W        W47995   5.823  25.157  20.172
47132W        W47996   5.211  24.147  20.331
47133W        W47997   6.984  24.890  20.577
47134W        W47998   4.511  22.179  19.209
47135W        W47999   5.129  24.643  20.232
47136W        W48000   4.577  22.487  18.235
47137W        W48001   5.374  23.214  20.636
47138W        W48002   6.267  22.041  20.392
47139W        W48003   3.657  24.017  20.634
47140W        W48004   5.413  23.561  18.597
47141W        W48005   4.632  21.969  18.274
47142W        W48006   5.551  23.112  19.517
47143W        W48007   6.127  22.308  20.826
47144W        W48008   4.993  24.298  21.102
47145W        W48009   5.789  23.910  21.418
47146W        W48010   6.280  24.041  21.299
47147W        W48011   5.541  22.178  21.920
47148W        W48012   4.698  22.617  19.931
47149W        W48013   4.162  22.576  19.722
47150W        W48014   3.864  25.169  19.364
47151W        W48015   5.617  24.885  21.371
47152W        W48016   4.917  24.455  18.807
47153W        W48017   6.208  23.604  20.112
47154W        W48018   6.142  23.129  20.388
47155W        W48019   5.695  23.984  20.404
47156W        W48020   6.242  24.259  18.337
47157W        W48021   5.858  22.292  19.651
47158W        W48022   7.172  22.750  18.999
47159W        W48023   3.877  25.214  21.265
47160W        W48024   4.294  24.558  20.659
47161W        W48025   3.532  25.311  18.957
47162W        W48026   5.734  22.593  20.611
47163W        W48027   4.697  24.941  18.865
47164W        W48028   7.015  25.371  18.810
47165W        W48029   5.903  23.458  18.731
47166W        W48030   5.290  22.759  19.232
47167W        W48031   5.516  22.578  18.360
47168W        W48032   5.974  24.442  21.393
47169W        W48033   6.479  22.173  19.079
47170W        W48034   3.712  21.945  18.528
47171W        W48035   5.190  24.666  20.754
47172W        W48036   4.768  24.298  20.118
47173W        W48037   4.822  24.695  18.343
47174W        W48038   3.664  24.815  19.051
47175W        W48039   4.382  23.496  21.342
47176W        W48040   5.044  22.210  21.386
47177W        W48041   5.589  22.312  21.005
47178W        W48042   5.094  21.947  19.564
47179W        W48043   6.044  21.844  18.768
47180W        W48044   4.004  22.092  20.415
47181W        W48045   3.747  22.901  19.813
47182W        W48046   6.750  22.097  20.173
47183W        W48047   4.112  22.524  19.122
47184W        W48048   6.615  22.324  20.624
47185W        W48049   6.679  23.412  18.468
47186W        W48050   4.328  22.404  20.190
47187W        W48051   5.577  22.885  21.011
47188W        W48052   3.532  22.465  18.562
47189W        W48053   4.527  24.138  20.941
47190W        W48054   5.734  23.438  20.325
47191W        W48055   5.632  25.405  18.515
47192W        W48056   3.375  23.586  18.220
47193W        W48057   4.677  24.556  21.443
47194W        W48058   4.009  23.409  21.011
47195W        W48059   5.034  23.876  20.772
47196W        W48060   6.567  22.091  21.067
47197W        W48061   7.218  23.775  21.068
47198W        W48062   7.131  23.500  18.735
47199W        W48063   5.898  24.238  19.145
47200W        W48064   6.645  25.517  18.423
47201W        W48065   5.698  23.664  21.907
47202W        W48066   4.196  24.494  21.694
47203W        W48067   7.289  22.482  21.695
47204W        W48068   6.663  23.229  20.343
47205W        W48069   5.217  25.560  21.791
47206W        W48070   5.021  21.866  18.704
47207W        W48071   6.653  24.577  18.265
47208W        W48072   4.467  22.900  21.341
47209W        W48073   5.115  24.794  21.241
47210W        W48074   7.005  22.564  20.852
47211W        W48075   6.519  25.435  18.931
47212W        W48076   6.482  24.185  20.302
47213W        W48077   4.528  22.665  20.893
47214W        W48078   5.243  23.552  21.589
47215W        W48079   4.495  24.492  19.154
47216W        W48080   6.448  24.149  19.342
47217W        W48081   4.062  22.881  21.035
47218W        W48082   5.451  24.630  19.464
47219W        W48083   7.142  23.357  19.662
47220W        W48084   5.504  21.980  21.431
47221W        W48085   6.388  24.721  20.342
47222W        W48086   6.727  25.075  20.148
47223W        W48087   5.658  24.919  18.317
47224W        W48088   3.824  24.703  21.359
47225W        W48089   4.580  22.958  20.462
47226W        W48090   4.454  22.141  19.752
47227W        W48091   6.213  22.589  20.366
47228W        W48092   5.282  24.064  18.564
47229W        W48093   6.958  23.999  20.216
47230W        W48094   4.293  24.944  21.465
47231W        W48095   6.917  25.527  19.297
47232W        W48096   5.057  22.452  19.608
47233W        W48097   4.322  24.024  20.027
47234W        W48098   4.905  25.595  20.541
47235W        W48099   6.856  25.515  21.514
47236W        W48100   6.079  23.698  20.601
47237W        W48101   4.082  23.061  18.108
47238W        W48102   7.249  25.133  19.325
47239W        W48103   6.721  22.539  18.757
47240W        W48104   4.722  21.982  21.056
47241W        W48105   6.911  24.924  19.681
47242W        W48106   6.674  23.188  19.545
47243W        W48107   5.092  22.966  19.742
47244W        W48108   5.179  23.435  21.051
47245W        W48109   6.260  24.503  20.958
47246W        W48110   4.962  22.976  20.938
47247W        W48111   4.811  25.304  19.683
47248W        W48112   4.225  25.444  21.604
47249W        W48113   4.307  24.872  18.522
47250W        W48114   7.028  24.618  19.276
47251W        W48115   4.489  23.184  20.926
47252W        W48116   6.960  22.995  18.604
47253W        W48117   5.097  23.972  19.372
47254W        W48118   6.114  23.609  21.107
47255W        W48119   5.856  23.276  20.797
47256W        W48120   4.433  23.662  20.797
47257W        W48121   6.732  25.351  20.595
47258W        W48122   6.416  22.259  21.558
47259W        W48123   4.091  22.356  21.032
47260W        W48124   4.414  23.439  20.318
47261W        W48125   5.059  22.741  18.201
47262W        W48126   3.511  24.842  20.982
47263W        W48127   5.274  23.646  20.379
47264W        W48128   5.072  22.245  18.360
47265W        W48129   4.408  23.570  19.804
47266W        W48130   4.020  25.371  20.706
47267W        W48131   6.683  23.735  18.891
47268W        W48132   6.878  22.431  21.389
47269W        W48133   6.525  24.678  19.428
47270W        W48134   3.876  23.642  21.454
47271W        W48135   6.943  22.067  18.803
47272W        W48136   6.893  24.467  18.758
47273W        W48137   5.546  23.195  19.013
47274W        W48138   6.401  22.167  18.567
47275W        W48139   6.586  22.837  20.649
47276W        W48140   3.953  23.450  20.042
47277W        W48141   4.595  24.494  19.685
47278W        W48142   6.198  23.016  19.463
47279W        W48143   5.185  22.593  20.108
47280W        W48144   7.200  24.421  20.499
47281W        W48145   7.242  22.545  20.341
47282W        W48146   3.590  25.182  19.806
47283W        W48147   3.996  24.459  19.273
47284W        W48148   4.214  22.163  21.688
47285W        W48149   5.296  25.041  21.736
47286W        W48150   7.101  23.865  19.743
47287W        W48151   6.289  23.757  18.521
47288W        W48152   5.801  25.393  20.631
47289W        W48153   6.563  24.256  21.655
47290W        W48154   5.365  21.807  19.104
47291W        W48155   6.026  22.747  19.857
47292W        W48156   3.875  24.447  20.357
47293W        W48157   5.019  22.224  19.101
47294W        W48158   4.922  24.098  21.574
47295W        W48159   5.814  22.700  19.327
47296W        W48160   6.045  24.353  20.522
47297W        W48161   4.218  24.962  20.957
47298W        W48162   4.789  24.993  21.721
47299W        W48163   4.673  22.257  18.707
47300W        W48164   6.219  22.570  18.883
47301W        W48165   6.082  24.957  21.130
47302W        W48166   4.874  23.542  20.086
47303W        W48167   4.548  25.263  20.691
47304W        W48168   7.147  25.350  18.319
47305W        W48169   3.859  24.181  21.398
47306W        W48170   6.053  24.127  20.042
47307W        W48171   4.330  24.098  19.491
47308W        W48172   5.024  25.143  20.804
47309W        W48173   5.406  22.172  19.905
47310W        W48174   3.592  24.305  18.992
47311W        W48175   5.547  23.074  18.512
47312W        W48176   3.930  23.827  19.685
47313W        W48177   4.980  22.425  20.922
47314W        W48178   6.846  22.177  18.294
47315W        W48179   6.961  23.979  21.457
47316W        W48180   5.711  25.358  21.674
47317W        W48181   7.212  24.316  21.038
47318W        W48182   6.600  25.015  21.754
47319W        W48183   4.444  25.459  20.196
47320W        W48184   7.344  24.240  19.469
47321W        W48185   5.897  23.260  19.860
47322W        W48186   5.598  21.820  19.588
47323W        W48187   4.696  24.907  19.379
47324W        W48188   5.245  22.725  20.598
47325W        W48189   4.908  22.140  20.057
47326W        W48190   3.812  25.037  18.599
47327W        W48191   5.551  24.121  19.526
47328W        W48192   4.701  25.119  21.212
47329W        W48193   3.928  23.952  19.182
47330W        W48194   3.799  22.561  20.196
47331W        W48195   5.578  24.303  20.004
47332W        W48196   3.697  22.236  19.000
47333W        W48197   6.420  23.312  20.810
47334W        W48198   6.411  22.614  18.326
47335W        W48199   6.826  24.531  20.153
47336W        W48200   5.497  24.836  19.935
47337W        W48201   4.882  25.342  19.163
47338W        W48202   5.981  21.914  18.251
47339W        W48203   3.865  25.287  20.222
47340W        W48204   5.821  22.937  21.638
47341W        W48205   4.066  22.606  21.487
47342W        W48206   3.666  23.147  19.354
47343W        W48207   5.102  23.126  18.770
47344W        W48208   6.083  23.462  21.608
47345W        W48209   4.679  23.885  20.403
47346W        W48210   6.217  21.965  19.504
47347W        W48211   5.321  25.345  19.901
47348W        W48212   6.481  24.942  20.787
47349W        W48213   6.264  25.014  19.909
47350W        W48214   6.021  23.924  19.540
47351W        W48215   5.433  22.208  18.778
47352W        W48216   7.236  22.043  19.558
47353W        W48217   5.118  23.251  18.263
47354W        W48218   7.030  22.850  19.480
47355W        W48219   5.794  23.944  18.561
47356W        W48220   6.700  24.272  21.139
47357W        W48221   6.793  25.015  18.502
47358W        W48222   4.937  22.709  21.388
47359W        W48223   4.861  23.403  20.615
47360W        W48224   6.860  24.751  21.071
47361W        W48225   5.955  22.601  21.236
47362W        W48226   3.617  23.111  21.189
47363W        W48227   5.565  23.696  20.815
47364W        W48228   4.006  24.362  19.795
47365W        W48229   3.974  23.630  20.527
47366W        W48230   6.394  24.044  20.790
47367W        W48231   6.227  25.368  21.530
47368W        W48232   6.046  23.107  21.228
47369W        W48233   6.542  25.281  19.553
47370W        W48234   5.522  25.043  20.899
47371W        W48235   4.918  25.191  20.196
47372W        W48236   6.699  24.471  20.666
47373W        W48237   5.640  24.545  21.780
47374W        W48238   4.335  24.535  20.152
47375W        W48239   6.497  23.970  19.824
47376W        W48240   6.274  25.238  20.404
47377W        W48241   4.255  25.004  20.373
47378W        W48242   5.324  23.048  21.424
47379W        W48243   5.188  24.851  19.018
47380W        W48244   5.134  24.550  21.685
47381W        W48245   4.978  24.485  19.322
47382W        W48246   4.610  23.001  18.158
47383W        W48247   3.786  25.643  25.275
47384W        W48248   4.138  24.482  24.793
47385W        W48249   6.756  24.232  22.517
47386W        W48250   7.244  25.312  24.570
47387W        W48251   4.675  25.412  22.086
47388W        W48252   5.425  23.209  22.878
47389W        W48253   4.696  23.042  23.530
47390W        W48254   5.611  23.730  22.785
47391W        W48255   5.080  25.134  24.881
47392W        W48256   3.804  22.776  24.916
47393W        W48257   4.401  21.966  24.721
47394W        W48258   6.290  22.303  23.558
47395W        W48259   5.942  23.233  22.054
47396W        W48260   6.393  22.766  25.242
47397W        W48261   3.722  22.422  24.540
47398W        W48262   3.857  25.139  25.350
47399W        W48263   5.226  24.736  22.155
47400W        W48264   3.619  23.222  24.001
47401W        W48265   4.615  23.118  25.228
47402W        W48266   6.847  22.731  23.828
47403W        W48267   6.881  24.064  24.469
47404W        W48268   5.462  23.406  23.616
47405W        W48269   5.855  24.691  23.893
47406W        W48270   4.195  24.086  24.086
47407W        W48271   3.284  23.648  23.955
47408W        W48272   4.801  23.451  24.854
47409W        W48273   6.945  23.392  25.093
47410W        W48274   4.403  24.925  23.568
47411W        W48275   5.589  24.564  24.673
47412W        W48276   5.078  23.065  23.908
47413W        W48277   5.279  23.897  23.638
47414W        W48278   6.111  24.847  25.374
47415W        W48279   5.288  23.863  25.425
47416W        W48280   5.261  23.740  24.923
47417W        W48281   3.621  23.030  25.359
47418W        W48282   6.530  24.786  24.984
47419W        W48283   4.061  22.099  23.148
47420W        W48284   4.487  24.668  24.227
47421W        W48285   7.025  24.469  23.566
47422W        W48286   6.367  22.619  23.961
47423W        W48287   6.663  22.663  21.909
47424W        W48288   7.267  23.321  24.344
47425W        W48289   5.154  25.188  23.990
47426W        W48290   6.944  24.744  22.494
47427W        W48291   3.959  25.563  22.585
47428W        W48292   4.353  25.517  22.907
47429W        W48293   4.179  22.227  24.337
47430W        W48294   6.787  23.327  24.571
47431W        W48295   6.293  23.525  23.365
47432W        W48296   6.306  23.580  22.085
47433W        W48297   5.455  24.491  24.159
47434W        W48298   5.562  22.591  23.382
47435W        W48299   5.883  24.876  24.384
47436W        W48300   6.688  23.736  23.143
47437W        W48301   5.889  22.270  22.750
47438W        W48302   4.337  25.226  22.467
47439W        W48303   3.549  22.286  23.249
47440W        W48304   6.459  23.097  23.705
47441W        W48305   3.893  24.923  23.597
47442W        W48306   5.154  25.244  22.201
47443W        W48307   6.482  23.162  21.862
47444W        W48308   3.669  24.988  24.126
47445W        W48309   4.607  24.697  24.723
47446W        W48310   4.777  23.984  23.512
47447W        W48311   4.696  22.324  24.219
47448W        W48312   7.147  22.015  23.817
47449W        W48313   4.393  24.037  21.427
47450W        W48314   4.020  22.858  21.937
47451W        W48315   4.143  24.790  23.150
47452W        W48316   5.069  24.404  23.598
47453W        W48317   6.757  25.231  24.798
47454W        W48318   5.767  22.901  22.403
47455W        W48319   6.861  25.385  23.603
47456W        W48320   6.470  23.224  24.991
47457W        W48321   7.353  24.805  23.337
47458W        W48322   5.841  24.105  24.744
47459W        W48323   3.287  23.712  23.004
47460W        W48324   4.609  24.176  24.402
47461W        W48325   5.912  23.277  22.756
47462W        W48326   5.813  23.544  23.211
47463W        W48327   4.136  23.159  24.259
47464W        W48328   4.077  23.165  25.125
47465W        W48329   3.911  22.108  23.677
47466W        W48330   5.807  22.369  23.801
47467W        W48331   5.513  22.500  25.139
47468W        W48332   5.885  22.389  22.249
47469W        W48333   7.249  25.175  25.061
47470W        W48334   5.885  22.136  25.142
47471W        W48335   6.940  24.599  25.276
47472W        W48336   6.480  22.530  24.779
47473W        W48337   6.205  22.522  23.080
47474W        W48338   6.605  23.683  25.353
47475W        W48339   4.152  25.322  23.361
47476W        W48340   5.240  22.950  22.318
47477W        W48341   4.541  22.244  25.143
47478W        W48342   6.576  22.898  22.825
47479W        W48343   6.882  23.317  22.754
47480W        W48344   4.801  25.390  25.252
47481W        W48345   4.572  22.139  22.421
47482W        W48346   7.034  22.418  23.469
47483W        W48347   7.055  24.833  21.956
47484W        W48348   3.767  24.069  23.758
47485W        W48349   5.953  22.442  21.727
47486W        W48350   7.131  24.940  23.814
47487W        W48351   7.077  22.001  24.362
47488W        W48352   5.593  23.472  25.260
47489W        W48353   5.488  24.239  22.769
47490W        W48354   6.171  23.849  25.581
47491W        W48355   6.261  21.786  23.624
47492W        W48356   4.289  22.887  23.842
47493W        W48357   4.075  24.024  24.572
47494W        W48358   5.760  25.024  23.477
47495W        W48359   6.736  22.763  24.329
47496W        W48360   5.642  25.255  24.697
47497W        W48361   6.568  24.015  22.093
47498W        W48362   5.294  23.628  23.184
47499W        W48363   7.165  22.007  24.882
47500W        W48364   5.363  24.111  24.522
47501W        W48365   5.576  22.937  23.786
47502W        W48366   6.391  23.395  22.868
47503W        W48367   6.298  23.156  22.416
47504W        W48368   6.644  25.063  22.789
47505W        W48369   6.439  24.483  23.634
47506W        W48370   6.120  23.825  22.893
47507W        W48371   5.811  23.790  23.659
47508W        W48372   6.738  23.546  23.651
47509W        W48373   3.910  22.620  24.094
47510W        W48374   6.679  23.756  24.839
47511W        W48375   7.043  25.369  24.087
47512W        W48376   4.928  24.919  23.533
47513W        W48377   6.139  25.408  24.629
47514W        W48378   6.093  22.542  24.400
47515W        W48379   5.211  25.442  24.464
47516W        W48380   6.710  22.426  22.978
47517W        W48381   6.620  23.696  24.233
47518W        W48382   3.680  22.944  24.434
47519W        W48383   6.573  22.712  23.388
47520W        W48384   6.849  22.890  24.821
47521W        W48385   5.965  24.517  23.421
47522W        W48386   5.127  25.319  23.104
47523W        W48387   4.229  22.423  22.143
47524W        W48388   5.469  22.088  24.088
47525W        W48389   4.105  25.502  22.092
47526W        W48390   5.142  23.577  22.639
47527W        W48391   5.404  24.224  25.021
47528W        W48392   5.436  22.235  23.012
47529W        W48393   6.725  22.014  23.468
47530W        W48394   6.352  25.470  23.697
47531W        W48395   5.655  25.154  23.989
47532W        W48396   5.081  24.140  24.074
47533W        W48397   6.891  24.969  24.362
47534W        W48398   4.486  22.303  22.912
47535W        W48399   4.973  24.689  24.011
47536W        W48400   4.529  22.670  21.783
47537W        W48401   5.426  23.102  24.282
47538W        W48402   6.138  22.053  24.081
47539W        W48403   3.680  24.083  24.255
47540W        W48404   5.421  23.873  22.307
47541W        W48405   4.674  22.214  21.923
47542W        W48406   5.696  23.066  23.291
47543W        W48407   6.145  22.137  24.699
47544W        W48408   4.938  24.140  24.820
47545W        W48409   5.775  23.963  25.258
47546W        W48410   6.237  23.919  25.036
47547W        W48411   5.518  22.199  25.543
47548W        W48412   4.770  22.650  23.840
47549W        W48413   4.061  22.552  23.453
47550W        W48414   3.884  25.174  22.915
47551W        W48415   5.499  24.884  25.078
47552W        W48416   4.974  24.518  22.560
47553W        W48417   6.301  23.760  23.822
47554W        W48418   6.263  23.346  24.127
47555W        W48419   5.574  23.969  24.080
47556W        W48420   6.156  24.470  21.894
47557W        W48421   5.866  22.170  23.294
47558W        W48422   7.064  22.722  22.674
47559W        W48423   3.878  25.262  24.853
47560W        W48424   3.957  24.531  24.294
47561W        W48425   3.476  25.442  22.724
47562W        W48426   5.601  22.601  24.232
47563W        W48427   4.752  24.941  22.292
47564W        W48428   6.680  25.123  22.273
47565W        W48429   5.941  23.711  22.398
47566W        W48430   5.260  22.719  22.960
47567W        W48431   5.549  22.686  21.990
47568W        W48432   5.838  24.480  25.128
47569W        W48433   6.393  22.185  22.643
47570W        W48434   3.653  22.052  22.275
47571W        W48435   5.027  24.505  24.467
47572W        W48436   4.629  24.310  23.887
47573W        W48437   4.684  24.546  21.960
47574W        W48438   3.469  24.907  22.684
47575W        W48439   4.349  23.585  25.226
47576W        W48440   5.032  22.236  25.306
47577W        W48441   5.646  22.284  24.665
47578W        W48442   4.989  22.024  23.209
47579W        W48443   6.084  21.907  22.336
47580W        W48444   3.670  22.125  24.119
47581W        W48445   3.711  23.015  23.525
47582W        W48446   3.775  22.536  22.396
47583W        W48447   6.555  22.264  24.324
47584W        W48448   6.811  23.523  22.081
47585W        W48449   4.320  22.371  23.867
47586W        W48450   5.551  22.807  24.709
47587W        W48451   3.761  22.394  21.879
47588W        W48452   4.497  23.876  24.819
47589W        W48453   5.726  23.455  24.052
47590W        W48454   5.615  25.468  22.182
47591W        W48455   3.656  24.473  21.792
47592W        W48456   4.549  24.337  25.080
47593W        W48457   4.066  23.549  24.776
47594W        W48458   4.953  23.772  24.464
47595W        W48459   6.653  22.019  24.765
47596W        W48460   7.168  23.686  24.708
47597W        W48461   7.009  23.840  22.761
47598W        W48462   6.001  24.333  22.935
47599W        W48463   6.553  25.491  21.935
47600W        W48464   5.694  23.707  25.711
47601W        W48465   4.156  24.502  25.359
47602W        W48466   7.302  22.490  25.458
47603W        W48467   6.817  23.214  24.068
47604W        W48468   5.269  25.282  25.441
47605W        W48469   5.094  22.168  22.264
47606W        W48470   6.614  24.581  22.112
47607W        W48471   4.327  22.715  25.042
47608W        W48472   5.076  24.624  24.952
47609W        W48473   6.961  22.418  24.639
47610W        W48474   6.315  25.540  22.414
47611W        W48475   6.511  24.185  24.077
47612W        W48476   4.609  22.468  24.690
47613W        W48477   5.088  23.371  25.290
47614W        W48478   4.616  24.924  22.799
47615W        W48479   6.497  24.193  22.963
47616W        W48480   4.158  22.707  24.547
47617W        W48481   5.469  24.555  23.253
47618W        W48482   7.031  23.142  23.598
47619W        W48483   5.397  22.001  25.046
47620W        W48484   6.304  24.682  24.111
47621W        W48485   6.620  25.093  23.951
47622W        W48486   5.698  24.979  22.046
47623W        W48487   3.740  24.674  25.099
47624W        W48488   4.586  22.854  24.297
47625W        W48489   4.514  22.182  23.430
47626W        W48490   5.978  22.934  24.083
47627W        W48491   5.086  24.231  22.099
47628W        W48492   7.027  24.155  23.972
47629W        W48493   4.209  24.916  25.054
47630W        W48494   6.725  25.576  22.882
47631W        W48495   5.031  22.505  23.383
47632W        W48496   4.255  24.075  23.572
47633W        W48497   4.823  25.564  24.105
47634W        W48498   6.935  25.616  25.179
47635W        W48499   6.026  23.818  24.266
47636W        W48500   3.680  23.285  21.836
47637W        W48501   6.999  25.174  23.146
47638W        W48502   6.661  22.539  22.415
47639W        W48503   4.912  21.971  24.830
47640W        W48504   6.739  24.884  23.491
47641W        W48505   6.681  23.207  23.239
47642W        W48506   5.204  23.000  23.409
47643W        W48507   5.293  23.245  24.792
47644W        W48508   6.183  24.499  24.738
47645W        W48509   4.870  22.917  24.771
47646W        W48510   4.879  25.435  23.610
47647W        W48511   4.276  25.427  25.224
47648W        W48512   4.332  25.034  21.972
47649W        W48513   6.890  24.666  23.036
47650W        W48514   4.404  23.146  24.713
47651W        W48515   6.784  23.024  22.299
47652W        W48516   5.158  24.138  23.169
47653W        W48517   5.832  23.612  24.844
47654W        W48518   5.870  23.237  24.490
47655W        W48519   4.431  23.593  24.391
47656W        W48520   6.575  25.437  24.335
47657W        W48521   6.420  22.262  25.369
47658W        W48522   4.036  22.277  24.928
47659W        W48523   4.607  23.283  23.993
47660W        W48524   4.976  22.995  21.834
47661W        W48525   3.669  24.839  24.616
47662W        W48526   5.199  23.573  24.047
47663W        W48527   5.104  22.479  21.830
47664W        W48528   4.214  23.611  23.877
47665W        W48529   3.938  25.419  24.333
47666W        W48530   6.539  23.744  22.537
47667W        W48531   6.872  22.413  25.153
47668W        W48532   6.382  24.698  23.156
47669W        W48533   3.771  23.577  25.221
47670W        W48534   6.704  21.890  22.328
47671W        W48535   6.440  24.612  22.639
47672W        W48536   5.551  23.373  22.380
47673W        W48537   6.361  22.273  22.084
47674W        W48538   6.328  22.997  24.543
47675W        W48539   3.728  23.575  23.638
47676W        W48540   4.578  24.477  23.399
47677W        W48541   6.191  23.040  23.167
47678W        W48542   5.274  22.534  23.843
47679W        W48543   7.132  24.500  24.356
47680W        W48544   7.150  22.456  24.139
47681W        W48545   3.638  25.328  23.362
47682W        W48546   3.772  24.488  22.884
47683W        W48547   4.133  22.299  25.440
47684W        W48548   5.119  24.776  25.450
47685W        W48549   7.160  23.862  23.528
47686W        W48550   6.223  24.154  22.472
47687W        W48551   5.772  25.552  24.286
47688W        W48552   6.338  24.374  25.259
47689W        W48553   5.239  21.815  22.777
47690W        W48554   6.042  22.763  23.567
47691W        W48555   3.641  24.553  23.863
47692W        W48556   4.987  22.283  22.751
47693W        W48557   4.819  23.821  25.218
47694W        W48558   5.774  22.753  22.899
47695W        W48559   5.934  24.352  24.310
47696W        W48560   4.166  24.947  24.543
47697W        W48561   4.695  24.882  25.198
47698W        W48562   4.812  22.605  22.242
47699W        W48563   6.188  22.664  22.577
47700W        W48564   5.994  24.943  24.886
47701W        W48565   4.946  23.490  23.609
47702W        W48566   4.439  25.318  24.337
47703W        W48567   7.046  25.349  21.986
47704W        W48568   4.061  24.025  25.088
47705W        W48569   6.051  24.208  23.843
47706W        W48570   4.201  24.263  23.090
47707W        W48571   4.858  25.032  24.420
47708W        W48572   5.405  22.132  23.538
47709W        W48573   3.391  24.391  22.541
47710W        W48574   5.460  23.189  21.899
47711W        W48575   3.777  23.952  23.247
47712W        W48576   5.138  22.445  24.789
47713W        W48577   6.871  22.198  21.901
47714W        W48578   7.052  23.921  25.167
47715W        W48579   5.781  25.274  25.249
47716W        W48580   7.252  24.258  24.803
47717W        W48581   6.798  25.114  25.295
47718W        W48582   4.377  25.487  23.822
47719W        W48583   6.967  24.171  23.164
47720W        W48584   5.978  23.272  23.663
47721W        W48585   5.746  21.811  22.911
47722W        W48586   4.636  25.220  23.214
47723W        W48587   5.082  22.705  24.317
47724W        W48588   4.927  22.155  23.757
47725W        W48589   3.759  25.152  22.319
47726W        W48590   5.671  24.048  23.233
47727W        W48591   4.557  25.211  24.824
47728W        W48592   3.681  23.983  22.733
47729W        W48593   3.603  22.519  23.701
47730W        W48594   5.573  24.303  23.688
47731W        W48595   3.459  22.247  22.728
47732W        W48596   6.285  23.530  24.615
47733W        W48597   6.175  22.775  22.060
47734W        W48598   6.791  24.611  23.992
47735W        W48599   5.384  24.794  23.729
47736W        W48600   4.808  25.417  22.625
47737W        W48601   5.997  21.936  21.785
47738W        W48602   3.866  25.382  23.820
47739W        W48603   5.906  23.052  25.495
47740W        W48604   4.062  22.800  25.477
47741W        W48605   3.467  23.235  23.063
47742W        W48606   5.109  23.496  22.097
47743W        W48607   6.110  23.473  25.265
47744W        W48608   4.699  23.800  23.997
47745W        W48609   6.336  22.013  23.124
47746W        W48610   5.390  25.389  23.564
47747W        W48611   6.386  24.975  24.523
47748W        W48612   6.238  24.954  23.640
47749W        W48613   6.191  24.041  23.368
47750W        W48614   5.445  22.494  22.520
47751W        W48615   7.240  21.957  23.321
47752W        W48616   4.742  23.632  21.711
47753W        W48617   7.040  22.838  23.171
47754W        W48618   5.798  24.158  22.118
47755W        W48619   6.718  24.272  24.921
47756W        W48620   6.191  25.152  22.068
47757W        W48621   5.010  22.738  25.232
47758W        W48622   4.936  23.256  24.386
47759W        W48623   7.036  24.760  24.800
47760W        W48624   5.989  22.595  24.923
47761W        W48625   3.623  23.251  24.850
47762W        W48626   5.480  23.611  24.471
47763W        W48627   3.838  24.439  23.405
47764W        W48628   3.895  23.620  24.282
47765W        W48629   6.366  24.061  24.556
47766W        W48630   6.323  25.270  25.119
47767W        W48631   5.922  23.100  24.976
47768W        W48632   6.480  25.255  23.243
47769W        W48633   5.358  24.937  24.398
47770W        W48634   4.667  25.088  23.951
47771W        W48635   6.633  24.524  24.484
47772W        W48636   5.467  24.393  25.500
47773W        W48637   4.165  24.531  23.809
47774W        W48638   6.678  24.045  23.582
47775W        W48639   6.149  25.221  24.111
47776W        W48640   4.164  25.015  24.026
47777W        W48641   5.459  22.990  25.215
47778W        W48642   5.123  25.002  22.671
47779W        W48643   4.997  24.287  25.327
47780W        W48644   4.979  24.657  23.088
47781W        W48645   4.473  23.185  21.767
47782W        W48646   3.859  25.432  28.866
47783W        W48647   4.233  24.418  28.562
47784W        W48648   6.769  23.972  26.736
47785W        W48649   7.150  25.147  28.185
47786W        W48650   4.727  25.278  25.753
47787W        W48651   4.658  23.461  26.578
47788W        W48652   4.327  23.131  26.818
47789W        W48653   5.219  23.844  26.325
47790W        W48654   5.233  25.223  28.461
47791W        W48655   3.917  22.717  28.554
47792W        W48656   4.298  21.949  28.280
47793W        W48657   6.194  22.273  27.330
47794W        W48658   5.808  22.995  26.014
47795W        W48659   6.351  22.502  28.738
47796W        W48660   3.951  22.309  28.125
47797W        W48661   4.087  24.940  28.887
47798W        W48662   5.048  24.483  25.903
47799W        W48663   3.876  23.113  27.573
47800W        W48664   4.719  23.045  28.779
47801W        W48665   7.024  22.982  27.362
47802W        W48666   6.839  23.937  28.153
47803W        W48667   5.209  23.275  27.162
47804W        W48668   5.951  24.804  27.532
47805W        W48669   4.273  24.049  27.859
47806W        W48670   3.448  23.613  27.598
47807W        W48671   4.769  23.496  28.442
47808W        W48672   6.990  23.427  28.788
47809W        W48673   4.543  24.736  27.223
47810W        W48674   5.680  24.572  28.247
47811W        W48675   5.016  22.983  27.530
47812W        W48676   5.098  23.881  27.254
47813W        W48677   5.966  24.817   0.055
47814W        W48678   5.199  24.094   0.001
47815W        W48679   5.337  23.775  28.578
47816W        W48680   3.700  22.985   0.030
47817W        W48681   6.403  24.684  28.775
47818W        W48682   4.091  22.190  26.663
47819W        W48683   4.571  24.550  27.728
47820W        W48684   7.143  24.276  27.273
47821W        W48685   6.316  22.596  27.711
47822W        W48686   6.712  22.621  25.673
47823W        W48687   7.264  23.358  28.070
47824W        W48688   5.172  25.228  27.653
47825W        W48689   7.025  24.668  26.543
47826W        W48690   4.137  25.676  26.265
47827W        W48691   4.536  25.492  26.605
47828W        W48692   4.439  22.239  27.863
47829W        W48693   6.910  22.991  28.012
47830W        W48694   5.992  23.548  26.874
47831W        W48695   6.091  23.395  25.845
47832W        W48696   5.564  24.541  27.740
47833W        W48697   5.261  22.730  27.109
47834W        W48698   5.974  24.945  28.025
47835W        W48699   6.470  23.626  26.964
47836W        W48700   5.819  22.242  26.534
47837W        W48701   4.345  25.203  26.203
47838W        W48702   3.773  22.573  26.759
47839W        W48703   6.191  23.278  27.269
47840W        W48704   4.024  24.643  27.205
47841W        W48705   5.150  25.021  25.896
47842W        W48706   6.469  23.197  25.512
47843W        W48707   3.830  24.968  27.988
47844W        W48708   4.633  24.489  28.237
47845W        W48709   4.772  24.010  26.878
47846W        W48710   4.941  22.351  27.861
47847W        W48711   7.233  22.099  27.430
47848W        W48712   4.430  24.045  25.488
47849W        W48713   4.001  22.876  25.984
47850W        W48714   4.186  24.838  26.764
47851W        W48715   4.884  24.519  26.845
47852W        W48716   6.652  25.080  28.545
47853W        W48717   5.596  22.671  26.339
47854W        W48718   6.931  25.465  27.111
47855W        W48719   6.664  23.278  28.429
47856W        W48720   7.364  24.730  26.916
47857W        W48721   5.826  24.053  28.361
47858W        W48722   3.432  23.479  26.631
47859W        W48723   4.783  24.101  27.906
47860W        W48724   5.693  23.140  26.526
47861W        W48725   5.572  23.639  26.623
47862W        W48726   4.256  23.120  27.927
47863W        W48727   4.198  23.071  28.905
47864W        W48728   4.043  22.017  27.143
47865W        W48729   5.848  22.314  27.716
47866W        W48730   5.435  22.467  28.777
47867W        W48731   5.901  22.461  25.955
47868W        W48732   7.141  24.977  28.716
47869W        W48733   5.950  22.146  28.716
47870W        W48734   6.904  24.538  28.867
47871W        W48735   6.609  22.742  28.368
47872W        W48736   6.144  22.467  26.870
47873W        W48737   6.666  23.668   0.117
47874W        W48738   4.300  25.181  27.133
47875W        W48739   5.223  22.919  26.074
47876W        W48740   4.589  22.140  28.780
47877W        W48741   6.554  22.710  26.723
47878W        W48742   6.764  23.085  26.457
47879W        W48743   4.790  25.541   0.030
47880W        W48744   4.556  22.012  26.149
47881W        W48745   7.011  22.480  27.161
47882W        W48746   7.239  24.969  25.540
47883W        W48747   3.912  23.886  27.383
47884W        W48748   5.964  22.538  25.449
47885W        W48749   7.145  24.784  27.371
47886W        W48750   7.051  22.079  27.903
47887W        W48751   5.691  23.125  28.687
47888W        W48752   5.377  24.367  26.332
47889W        W48753   6.067  23.776   0.200
47890W        W48754   5.874  21.870  27.368
47891W        W48755   4.319  22.906  27.342
47892W        W48756   3.985  24.081  28.286
47893W        W48757   6.093  25.200  27.236
47894W        W48758   6.831  22.629  27.666
47895W        W48759   5.725  25.293  28.324
47896W        W48760   6.573  23.573  25.863
47897W        W48761   5.102  23.628  26.805
47898W        W48762   7.205  22.046  28.382
47899W        W48763   5.420  24.093  28.081
47900W        W48764   5.544  22.969  27.476
47901W        W48765   6.288  23.104  26.248
47902W        W48766   6.704  23.067  25.946
47903W        W48767   6.730  25.082  26.459
47904W        W48768   6.187  24.334  27.455
47905W        W48769   6.016  23.518  26.362
47906W        W48770   5.554  23.677  27.147
47907W        W48771   6.650  23.556  27.430
47908W        W48772   4.094  22.641  27.723
47909W        W48773   6.650  23.775  28.600
47910W        W48774   7.172  25.236  27.638
47911W        W48775   5.016  24.931  27.130
47912W        W48776   6.252  25.334  28.310
47913W        W48777   6.106  22.669  28.174
47914W        W48778   5.349  25.536  28.053
47915W        W48779   6.917  22.382  26.610
47916W        W48780   6.741  23.480  27.933
47917W        W48781   3.815  22.882  28.063
47918W        W48782   6.527  22.659  27.236
47919W        W48783   7.058  22.946  28.516
47920W        W48784   5.804  24.537  27.115
47921W        W48785   5.153  25.209  26.710
47922W        W48786   4.248  22.388  25.942
47923W        W48787   5.439  22.027  27.594
47924W        W48788   4.266  25.510  25.758
47925W        W48789   4.731  23.769  26.162
47926W        W48790   5.385  24.327  28.577
47927W        W48791   5.344  22.373  26.687
47928W        W48792   6.593  22.194  26.983
47929W        W48793   6.462  25.542  27.332
47930W        W48794   5.702  25.256  27.705
47931W        W48795   5.195  24.204  27.636
47932W        W48796   6.969  24.788  27.837
47933W        W48797   4.519  22.406  26.469
47934W        W48798   5.051  24.704  27.583
47935W        W48799   4.567  22.650  25.505
47936W        W48800   5.382  23.252  27.876
47937W        W48801   6.289  22.066  27.796
47938W        W48802   3.773  23.893  27.881
47939W        W48803   5.142  23.578  25.875
47940W        W48804   4.649  22.169  25.661
47941W        W48805   5.213  22.877  26.621
47942W        W48806   6.241  22.187  28.310
47943W        W48807   4.979  24.088  28.379
47944W        W48808   5.702  24.020  28.871
47945W        W48809   6.186  23.957  28.712
47946W        W48810   5.612  22.111   0.101
47947W        W48811   4.847  22.514  27.360
47948W        W48812   4.293  22.619  26.917
47949W        W48813   4.037  25.329  26.669
47950W        W48814   5.513  24.838  28.671
47951W        W48815   4.558  24.278  26.022
47952W        W48816   6.105  23.810  27.321
47953W        W48817   6.240  23.488  27.761
47954W        W48818   5.435  23.760  27.683
47955W        W48819   5.961  24.315  25.617
47956W        W48820   5.677  22.347  27.201
47957W        W48821   7.151  22.762  26.341
47958W        W48822   4.001  25.188  28.433
47959W        W48823   4.129  24.516  28.041
47960W        W48824   3.659  25.432  26.232
47961W        W48825   5.656  22.736  27.919
47962W        W48826   4.659  24.830  26.001
47963W        W48827   7.130  25.215  26.144
47964W        W48828   5.572  23.449  26.128
47965W        W48829   4.693  22.919  26.512
47966W        W48830   5.516  22.706  25.667
47967W        W48831   5.949  24.439  28.677
47968W        W48832   6.412  22.222  26.480
47969W        W48833   3.705  22.014  25.881
47970W        W48834   5.128  24.501  28.056
47971W        W48835   4.801  24.300  27.319
47972W        W48836   4.633  24.538  25.574
47973W        W48837   3.873  24.933  26.360
47974W        W48838   4.329  23.567  28.709
47975W        W48839   5.112  22.082  28.946
47976W        W48840   5.710  22.338  28.262
47977W        W48841   4.912  22.057  26.621
47978W        W48842   6.053  21.990  26.149
47979W        W48843   3.994  22.115  27.656
47980W        W48844   3.880  22.976  27.075
47981W        W48845   6.702  22.179  27.495
47982W        W48846   4.148  22.761  26.455
47983W        W48847   6.639  22.347  28.042
47984W        W48848   6.976  23.336  25.603
47985W        W48849   4.355  22.399  27.377
47986W        W48850   5.459  22.801  28.384
47987W        W48851   3.751  22.498  25.749
47988W        W48852   4.481  23.971  28.375
47989W        W48853   5.779  23.430  27.537
47990W        W48854   5.557  25.362  25.870
47991W        W48855   3.713  23.829  25.673
47992W        W48856   4.736  24.360  28.736
47993W        W48857   4.140  23.585  28.224
47994W        W48858   5.101  23.677  28.081
47995W        W48859   6.664  21.879  28.275
47996W        W48860   7.237  23.768  28.458
47997W        W48861   6.985  23.454  26.158
47998W        W48862   5.740  23.942  26.234
47999W        W48863   6.592  25.514  25.557
48000W        W48864   5.847  23.318   0.133
48001W        W48865   4.326  24.330   0.050
48002W        W48866   7.254  22.438  28.742
48003W        W48867   6.553  23.066  27.572
48004W        W48868   5.283  25.415  28.942
48005W        W48869   5.040  22.009  25.986
48006W        W48870   6.573  24.121  25.705
48007W        W48871   4.424  22.638  28.673
48008W        W48872   5.027  24.736  28.492
48009W        W48873   7.090  22.532  28.212
48010W        W48874   6.666  25.478  26.089
48011W        W48875   6.433  23.959  27.714
48012W        W48876   4.669  22.316  28.311
48013W        W48877   5.047  23.431  28.882
48014W        W48878   4.516  24.585  26.446
48015W        W48879   6.242  23.929  26.606
48016W        W48880   4.304  22.669  28.185
48017W        W48881   5.361  24.718  26.767
48018W        W48882   7.261  23.328  27.075
48019W        W48883   5.477  22.004  28.580
48020W        W48884   6.401  24.770  27.743
48021W        W48885   6.703  25.088  27.464
48022W        W48886   5.607  24.900  25.589
48023W        W48887   3.838  24.481  28.940
48024W        W48888   4.616  22.759  27.777
48025W        W48889   4.525  22.164  26.963
48026W        W48890   6.024  23.017  27.705
48027W        W48891   4.885  24.004  25.729
48028W        W48892   6.933  23.973  27.629
48029W        W48893   4.521  24.831  28.640
48030W        W48894   6.889  25.555  26.570
48031W        W48895   4.866  22.531  26.830
48032W        W48896   4.310  23.854  27.024
48033W        W48897   4.828  25.486  27.951
48034W        W48898   6.928  25.438  28.776
48035W        W48899   5.919  23.912  27.834
48036W        W48900   3.945  23.307  25.642
48037W        W48901   7.218  25.171  26.660
48038W        W48902   6.635  22.633  26.214
48039W        W48903   4.978  21.937  28.484
48040W        W48904   6.869  24.964  26.975
48041W        W48905   6.629  23.131  27.040
48042W        W48906   4.768  22.977  27.067
48043W        W48907   5.250  23.276  28.394
48044W        W48908   6.373  24.714  28.265
48045W        W48909   4.793  22.813  28.327
48046W        W48910   4.781  25.385  27.058
48047W        W48911   4.380  25.367  28.739
48048W        W48912   4.330  25.002  25.564
48049W        W48913   6.780  24.456  26.962
48050W        W48914   4.375  23.133  28.416
48051W        W48915   7.164  22.879  25.786
48052W        W48916   4.890  24.225  26.413
48053W        W48917   5.831  23.595  28.641
48054W        W48918   5.836  23.143  28.180
48055W        W48919   4.584  23.630  27.968
48056W        W48920   6.744  25.514  27.760
48057W        W48921   6.435  21.963  28.763
48058W        W48922   4.096  22.229  28.642
48059W        W48923   4.567  23.282  27.561
48060W        W48924   4.936  23.028  25.651
48061W        W48925   3.821  24.692  28.436
48062W        W48926   5.007  23.509  27.595
48063W        W48927   5.032  22.517  25.751
48064W        W48928   4.285  23.218  26.271
48065W        W48929   3.867  25.522  28.062
48066W        W48930   6.526  23.545  26.409
48067W        W48931   6.787  22.288  28.569
48068W        W48932   6.268  24.316  26.944
48069W        W48933   3.868  23.489  28.909
48070W        W48934   6.824  22.144  26.155
48071W        W48935   6.558  24.361  26.487
48072W        W48936   5.159  23.332  26.397
48073W        W48937   6.390  22.298  25.905
48074W        W48938   6.389  23.082  28.049
48075W        W48939   4.177  23.397  27.233
48076W        W48940   4.387  24.368  26.896
48077W        W48941   6.147  23.029  26.789
48078W        W48942   5.330  22.516  27.568
48079W        W48943   7.123  24.329  27.985
48080W        W48944   7.317  22.516  27.738
48081W        W48945   3.798  25.101  27.093
48082W        W48946   4.028  24.402  26.509
48083W        W48947   4.220  22.073   0.137
48084W        W48948   5.447  24.951   0.173
48085W        W48949   7.036  23.788  27.145
48086W        W48950   6.247  23.895  26.088
48087W        W48951   5.929  25.639  27.994
48088W        W48952   6.544  24.174  28.981
48089W        W48953   5.366  21.940  26.392
48090W        W48954   6.004  22.772  27.262
48091W        W48955   3.876  24.364  27.622
48092W        W48956   5.009  22.483  26.302
48093W        W48957   4.751  23.856  28.839
48094W        W48958   5.704  22.715  26.832
48095W        W48959   6.072  24.408  27.953
48096W        W48960   4.363  24.953  28.139
48097W        W48961   4.916  25.075  28.860
48098W        W48962   4.632  22.732  26.029
48099W        W48963   6.119  22.650  26.387
48100W        W48964   6.005  24.930  28.544
48101W        W48965   4.704  23.497  27.106
48102W        W48966   4.324  25.385  27.849
48103W        W48967   7.091  25.445  25.677
48104W        W48968   3.988  23.987  28.795
48105W        W48969   5.678  24.129  27.412
48106W        W48970   4.407  24.021  26.506
48107W        W48971   4.864  24.944  27.993
48108W        W48972   5.167  22.181  27.121
48109W        W48973   3.387  23.676  26.148
48110W        W48974   5.442  23.216  25.684
48111W        W48975   3.854  23.628  26.910
48112W        W48976   5.187  22.376  28.316
48113W        W48977   6.925  22.167  25.649
48114W        W48978   7.030  23.987  28.903
48115W        W48979   5.764  25.278  28.861
48116W        W48980   7.125  24.266  28.493
48117W        W48981   6.737  24.989   0.061
48118W        W48982   4.407  25.608  27.384
48119W        W48983   7.235  24.234  26.773
48120W        W48984   5.707  23.178  27.051
48121W        W48985   5.575  21.932  26.895
48122W        W48986   4.676  24.996  26.727
48123W        W48987   5.156  22.792  27.976
48124W        W48988   4.934  21.973  27.521
48125W        W48989   3.905  25.164  25.868
48126W        W48990   5.286  24.114  26.790
48127W        W48991   4.725  25.226  28.392
48128W        W48992   4.020  23.646  26.425
48129W        W48993   3.864  22.496  27.267
48130W        W48994   5.290  24.441  27.197
48131W        W48995   3.839  22.393  26.253
48132W        W48996   6.208  23.513  28.297
48133W        W48997   6.256  22.814  25.810
48134W        W48998   6.728  24.473  27.489
48135W        W48999   5.480  24.911  27.358
48136W        W49000   4.879  25.251  26.274
48137W        W49001   6.017  22.037  25.631
48138W        W49002   3.887  25.305  27.574
48139W        W49003   6.164  22.932   0.017
48140W        W49004   4.075  22.569   0.041
48141W        W49005   3.853  23.174  26.609
48142W        W49006   4.770  23.244  26.085
48143W        W49007   6.290  23.444  28.838
48144W        W49008   4.590  23.827  27.485
48145W        W49009   6.120  21.953  26.898
48146W        W49010   5.293  25.384  27.179
48147W        W49011   6.636  25.104  28.038
48148W        W49012   6.393  24.759  27.206
48149W        W49013   5.814  24.045  26.899
48150W        W49014   5.424  22.322  26.034
48151W        W49015   7.210  22.065  26.909
48152W        W49016   4.697  23.515  25.620
48153W        W49017   7.047  22.887  26.847
48154W        W49018   5.371  24.070  25.892
48155W        W49019   6.607  24.293  28.494
48156W        W49020   6.770  25.053  25.804
48157W        W49021   4.924  22.530  28.743
48158W        W49022   4.853  23.203  27.999
48159W        W49023   6.895  24.691  28.331
48160W        W49024   5.883  22.657  28.644
48161W        W49025   3.864  23.216  28.476
48162W        W49026   5.626  23.614  28.159
48163W        W49027   3.902  24.178  26.957
48164W        W49028   4.140  23.567  27.708
48165W        W49029   6.311  24.002  28.203
48166W        W49030   6.285  25.230  28.856
48167W        W49031   6.207  23.040  28.528
48168W        W49032   6.495  25.317  26.872
48169W        W49033   5.405  24.962  28.038
48170W        W49034   4.676  25.148  27.526
48171W        W49035   6.615  24.369  27.977
48172W        W49036   5.569  24.473   0.043
48173W        W49037   4.301  24.244  27.380
48174W        W49038   6.595  24.047  27.233
48175W        W49039   6.247  25.293  27.740
48176W        W49040   4.204  24.897  27.621
48177W        W49041   5.220  22.946  28.834
48178W        W49042   5.437  25.029  26.318
48179W        W49043   5.074  24.615   0.022
48180W        W49044   5.006  24.749  26.380
48181W        W49045   4.411  23.096  25.729
48182W        W49046   3.766   0.104   3.403
48183W        W49047   4.160  27.976   2.998
48184W        W49048   6.803  27.702   0.866
48185W        W49049   7.089  28.776   2.721
48186W        W49050   5.034  28.741   0.350
48187W        W49051   4.756  27.084   1.061
48188W        W49052   4.470  26.702   1.559
48189W        W49053   5.490  27.563   0.800
48190W        W49054   5.231  28.724   3.197
48191W        W49055   3.844  26.195   3.024
48192W        W49056   4.404  25.339   2.785
48193W        W49057   6.186  25.930   1.763
48194W        W49058   5.887  26.664   0.444
48195W        W49059   6.396  26.361   3.303
48196W        W49060   3.837  25.939   2.557
48197W        W49061   3.952  28.642   3.540
48198W        W49062   5.313  27.929   0.471
48199W        W49063   3.678  26.660   2.133
48200W        W49064   4.684  26.663   3.331
48201W        W49065   7.291  26.405   1.761
48202W        W49066   6.994  27.562   2.550
48203W        W49067   5.322  26.915   1.709
48204W        W49068   5.913  28.247   2.098
48205W        W49069   4.265  27.566   2.288
48206W        W49070   3.549  27.156   2.076
48207W        W49071   4.717  27.120   3.016
48208W        W49072   6.887  27.054   3.291
48209W        W49073   4.536  28.282   1.729
48210W        W49074   5.625  28.124   2.732
48211W        W49075   4.981  26.606   1.964
48212W        W49076   5.098  27.445   1.835
48213W        W49077   6.022  28.349   3.460
48214W        W49078   5.321  27.477   3.518
48215W        W49079   5.237  27.279   3.060
48216W        W49080   3.692  26.608   3.581
48217W        W49081   6.461  28.258   3.195
48218W        W49082   4.132  25.770   1.143
48219W        W49083   4.583  28.000   2.325
48220W        W49084   7.321  27.769   1.659
48221W        W49085   6.746  26.211   1.987
48222W        W49086   6.905  26.349   0.185
48223W        W49087   7.202  27.087   2.543
48224W        W49088   5.196  28.753   2.172
48225W        W49089   6.831  28.204   0.920
48226W        W49090   4.210  28.996   0.662
48227W        W49091   4.531  28.898   1.066
48228W        W49092   4.316  25.814   2.361
48229W        W49093   6.867  26.732   2.705
48230W        W49094   6.158  27.199   1.245
48231W        W49095   6.277  26.977   0.321
48232W        W49096   5.477  28.006   2.254
48233W        W49097   5.382  26.417   1.609
48234W        W49098   5.626  28.555   2.413
48235W        W49099   6.640  27.285   1.101
48236W        W49100   5.881  25.989   1.061
48237W        W49101   4.332  28.503   0.807
48238W        W49102   3.802  26.125   1.234
48239W        W49103   6.392  26.579   1.805
48240W        W49104   4.025  28.350   1.769
48241W        W49105   5.321  28.426   0.613
48242W        W49106   6.591  26.728  28.989
48243W        W49107   3.812  28.465   2.347
48244W        W49108   4.621  28.130   2.830
48245W        W49109   4.743  27.487   1.441
48246W        W49110   4.770  25.937   2.115
48247W        W49111   7.289  25.577   1.805
48248W        W49112   4.304  27.368   0.114
48249W        W49113   4.055  26.580   0.394
48250W        W49114   4.137  28.315   1.256
48251W        W49115   4.929  27.972   1.393
48252W        W49116   6.639  28.704   2.972
48253W        W49117   5.638  26.402   0.810
48254W        W49118   6.976  28.883   1.666
48255W        W49119   6.490  26.826   3.072
48256W        W49120   7.272  28.194   1.343
48257W        W49121   5.856  27.653   2.780
48258W        W49122   3.718  27.107   1.226
48259W        W49123   4.612  27.619   2.665
48260W        W49124   5.888  26.837   0.972
48261W        W49125   5.652  27.250   1.168
48262W        W49126   4.180  26.695   2.432
48263W        W49127   4.172  26.707   3.409
48264W        W49128   3.911  25.810   1.620
48265W        W49129   5.804  25.987   2.140
48266W        W49130   5.525  26.105   3.315
48267W        W49131   6.018  26.000   0.548
48268W        W49132   7.128  28.621   3.231
48269W        W49133   6.015  25.664   3.145
48270W        W49134   6.916  28.093   3.399
48271W        W49135   6.439  26.397   2.740
48272W        W49136   6.313  26.168   1.301
48273W        W49137   6.521  27.295   3.563
48274W        W49138   4.308  28.724   1.527
48275W        W49139   5.046  26.571   0.901
48276W        W49140   4.647  25.858   3.196
48277W        W49141   6.642  26.488   1.024
48278W        W49142   6.916  26.905   0.911
48279W        W49143   4.857  28.973   3.427
48280W        W49144   4.676  25.524   0.551
48281W        W49145   7.051  25.977   1.633
48282W        W49146   7.212  28.365   0.302
48283W        W49147   3.899  27.530   1.886
48284W        W49148   6.053  26.077   0.029
48285W        W49149   7.209  28.443   1.855
48286W        W49150   7.080  25.630   2.439
48287W        W49151   5.609  26.916   3.089
48288W        W49152   5.595  28.069   0.902
48289W        W49153   6.022  27.446   3.658
48290W        W49154   5.897  25.517   1.927
48291W        W49155   4.137  26.637   1.918
48292W        W49156   4.072  27.537   2.768
48293W        W49157   5.746  28.625   1.474
48294W        W49158   7.099  26.487   2.273
48295W        W49159   5.659  28.832   2.874
48296W        W49160   6.927  27.609   0.354
48297W        W49161   5.171  27.232   1.346
48298W        W49162   7.124  25.761   2.946
48299W        W49163   5.349  27.674   2.680
48300W        W49164   5.487  26.562   2.106
48301W        W49165   6.385  26.887   0.840
48302W        W49166   6.741  26.733   0.477
48303W        W49167   6.469  28.580   0.970
48304W        W49168   6.264  27.954   1.744
48305W        W49169   6.119  27.307   0.707
48306W        W49170   5.572  27.382   1.667
48307W        W49171   6.568  27.120   1.796
48308W        W49172   4.009  26.241   2.200
48309W        W49173   6.741  27.217   2.836
48310W        W49174   7.092  28.840   2.176
48311W        W49175   5.011  28.429   1.639
48312W        W49176   6.175  28.835   2.737
48313W        W49177   5.929  26.299   2.571
48314W        W49178   5.331   0.117   2.558
48315W        W49179   6.920  26.052   1.139
48316W        W49180   6.723  27.157   2.300
48317W        W49181   3.767  26.450   2.596
48318W        W49182   6.750  26.370   1.508
48319W        W49183   6.884  26.512   3.177
48320W        W49184   5.786  28.110   1.609
48321W        W49185   5.137  28.686   1.190
48322W        W49186   4.179  26.070   0.453
48323W        W49187   5.415  25.631   2.167
48324W        W49188   4.529  28.680   0.351
48325W        W49189   4.592  27.355   0.557
48326W        W49190   5.456  27.841   3.158
48327W        W49191   5.336  26.186   1.151
48328W        W49192   6.613  25.761   1.489
48329W        W49193   6.233   0.022   1.804
48330W        W49194   5.767  28.800   1.962
48331W        W49195   5.028  27.737   2.282
48332W        W49196   6.891  28.414   2.372
48333W        W49197   4.514  25.954   0.841
48334W        W49198   4.997  28.237   2.110
48335W        W49199   4.547  26.403   0.076
48336W        W49200   5.312  26.718   2.563
48337W        W49201   6.306  25.686   2.235
48338W        W49202   3.752  27.524   2.378
48339W        W49203   5.310  27.084   0.202
48340W        W49204   4.683  25.973   0.312
48341W        W49205   5.429  26.759   1.203
48342W        W49206   6.236  25.887   2.708
48343W        W49207   4.959  27.724   3.032
48344W        W49208   5.740  27.400   3.222
48345W        W49209   6.294  27.468   3.124
48346W        W49210   5.556  25.763   3.695
48347W        W49211   4.746  26.250   1.692
48348W        W49212   4.301  26.236   1.365
48349W        W49213   4.018  28.799   1.090
48350W        W49214   5.570  28.352   3.190
48351W        W49215   4.212  27.704   0.528
48352W        W49216   6.070  27.295   1.765
48353W        W49217   6.202  26.945   2.119
48354W        W49218   5.464  27.479   2.198
48355W        W49219   6.197  28.025   0.225
48356W        W49220   5.669  25.983   1.589
48357W        W49221   7.493  26.375   0.859
48358W        W49222   3.945  28.783   3.028
48359W        W49223   4.060  28.010   2.473
48360W        W49224   3.692  28.888   0.703
48361W        W49225   5.439  26.173   2.469
48362W        W49226   4.871  28.235   0.398
48363W        W49227   6.825  28.642   0.597
48364W        W49228   5.664  27.102   0.589
48365W        W49229   4.545  26.604   1.068
48366W        W49230   5.630  26.248   0.287
48367W        W49231   5.974  27.865   3.282
48368W        W49232   6.511  26.044   0.800
48369W        W49233   3.801  25.726   0.291
48370W        W49234   5.095  28.126   2.616
48371W        W49235   4.740  27.815   1.855
48372W        W49236   4.749  27.746   0.223
48373W        W49237   3.838  28.366   0.768
48374W        W49238   4.470  27.118   3.472
48375W        W49239   5.102  25.777   3.424
48376W        W49240   5.693  25.871   2.787
48377W        W49241   4.957  25.695   1.063
48378W        W49242   5.845  25.539   0.811
48379W        W49243   3.922  25.636   2.105
48380W        W49244   3.944  26.631   1.329
48381W        W49245   6.799  25.683   2.001
48382W        W49246   4.128  26.350   0.882
48383W        W49247   6.701  26.003   2.461
48384W        W49248   7.082  27.112   0.282
48385W        W49249   4.303  26.042   1.846
48386W        W49250   5.542  26.425   2.923
48387W        W49251   3.657  26.225   0.328
48388W        W49252   4.443  27.556   3.149
48389W        W49253   5.690  27.038   2.043
48390W        W49254   5.572  28.840   0.398
48391W        W49255   3.813  27.601   0.180
48392W        W49256   4.637  28.005   3.322
48393W        W49257   4.154  27.132   3.058
48394W        W49258   5.004  27.287   2.607
48395W        W49259   6.669  25.587   2.785
48396W        W49260   7.202  27.394   2.991
48397W        W49261   7.153  27.336   0.757
48398W        W49262   5.918  27.787   0.588
48399W        W49263   6.636  28.987   0.212
48400W        W49264   5.649  27.046   3.614
48401W        W49265   4.198  27.954   3.568
48402W        W49266   7.121  26.079   3.346
48403W        W49267   6.898  26.728   1.872
48404W        W49268   5.309  28.943   3.670
48405W        W49269   5.159  25.721   0.355
48406W        W49270   6.726  28.106   0.405
48407W        W49271   4.332  26.267   3.189
48408W        W49272   5.062  28.242   3.121
48409W        W49273   7.063  26.255   2.749
48410W        W49274   6.392  28.998   0.674
48411W        W49275   6.400  27.547   2.077
48412W        W49276   4.710  25.927   2.661
48413W        W49277   5.039  27.026   3.493
48414W        W49278   4.546  28.031   0.890
48415W        W49279   6.297  27.682   1.023
48416W        W49280   4.270  26.237   2.669
48417W        W49281   5.378  28.254   1.335
48418W        W49282   7.301  26.890   1.579
48419W        W49283   5.499  25.602   3.177
48420W        W49284   6.459  28.229   2.124
48421W        W49285   6.620  28.694   1.980
48422W        W49286   5.820  28.316   0.487
48423W        W49287   3.818  28.170   3.325
48424W        W49288   4.510  26.373   2.191
48425W        W49289   4.576  25.800   1.446
48426W        W49290   6.276  26.214   2.203
48427W        W49291   5.097  27.450   0.482
48428W        W49292   6.872  27.550   1.843
48429W        W49293   4.299  28.402   3.235
48430W        W49294   6.732   0.033   1.071
48431W        W49295   4.818  26.188   1.191
48432W        W49296   4.387  27.393   1.798
48433W        W49297   4.832   0.006   2.450
48434W        W49298   6.833   0.037   3.303
48435W        W49299   5.960  27.362   2.341
48436W        W49300   3.955  27.100   0.402
48437W        W49301   6.960  28.598   1.220
48438W        W49302   6.986  26.308   0.694
48439W        W49303   4.893  25.502   2.890
48440W        W49304   6.743  28.303   1.653
48441W        W49305   6.770  26.873   1.393
48442W        W49306   4.962  26.658   1.407
48443W        W49307   5.104  26.754   3.035
48444W        W49308   6.279  27.932   2.862
48445W        W49309   4.766  26.373   2.896
48446W        W49310   4.806  28.888   1.527
48447W        W49311   4.353  28.909   3.331
48448W        W49312   4.339  28.195   0.400
48449W        W49313   6.863  27.849   1.381
48450W        W49314   4.373  26.705   2.908
48451W        W49315   7.276  26.743   0.587
48452W        W49316   4.984  27.579   0.980
48453W        W49317   5.996  27.165   2.840
48454W        W49318   5.839  26.804   2.482
48455W        W49319   4.398  27.148   2.582
48456W        W49320   6.644  28.869   2.469
48457W        W49321   6.440  25.827   3.429
48458W        W49322   4.170  25.786   2.947
48459W        W49323   4.546  26.882   2.114
48460W        W49324   4.857  26.915   0.562
48461W        W49325   3.774  28.309   2.835
48462W        W49326   5.158  27.044   2.181
48463W        W49327   5.117  26.250   0.244
48464W        W49328   4.256  27.029   1.202
48465W        W49329   3.883  28.967   2.549
48466W        W49330   6.662  27.233   0.582
48467W        W49331   6.685  26.036   3.026
48468W        W49332   6.429  28.135   1.269
48469W        W49333   3.831  27.097   3.449
48470W        W49334   6.879  25.769   0.551
48471W        W49335   6.312  28.135   0.735
48472W        W49336   5.234  27.096   0.853
48473W        W49337   6.475  25.950   0.284
48474W        W49338   6.597  26.616   2.279
48475W        W49339   4.007  27.056   1.657
48476W        W49340   4.417  27.891   1.408
48477W        W49341   6.269  26.695   1.317
48478W        W49342   5.249  26.100   1.989
48479W        W49343   7.223  28.037   2.514
48480W        W49344   7.202  26.011   2.128
48481W        W49345   3.745  28.632   1.466
48482W        W49346   4.054  27.868   1.012
48483W        W49347   4.214  25.878   3.518
48484W        W49348   5.237  28.439   3.626
48485W        W49349   7.073  27.330   1.398
48486W        W49350   6.433  27.680   0.514
48487W        W49351   5.808   0.060   2.402
48488W        W49352   6.471  27.808   3.478
48489W        W49353   5.303  25.429   0.776
48490W        W49354   5.900  26.407   1.822
48491W        W49355   3.733  28.003   2.027
48492W        W49356   5.011  26.081   0.719
48493W        W49357   4.807  27.521   3.502
48494W        W49358   5.819  26.426   1.305
48495W        W49359   6.129  27.880   2.375
48496W        W49360   4.249  28.497   2.706
48497W        W49361   4.739  28.475   3.520
48498W        W49362   4.600  26.432   0.586
48499W        W49363   6.152  26.412   0.857
48500W        W49364   6.019  28.396   2.946
48501W        W49365   4.813  27.051   1.713
48502W        W49366   4.343  28.883   2.338
48503W        W49367   7.142  28.874   0.240
48504W        W49368   3.948  27.581   3.292
48505W        W49369   5.845  27.729   1.959
48506W        W49370   4.458  27.528   1.019
48507W        W49371   4.725  28.499   2.482
48508W        W49372   5.111  25.894   1.529
48509W        W49373   3.686  27.753   0.663
48510W        W49374   5.344  26.669   0.488
48511W        W49375   4.077  27.474   1.372
48512W        W49376   5.181  25.968   2.918
48513W        W49377   6.921  25.858   0.050
48514W        W49378   6.960  27.552   3.427
48515W        W49379   5.728  28.804   3.393
48516W        W49380   7.244  27.907   3.043
48517W        W49381   6.694  28.574   3.508
48518W        W49382   4.396   0.094   1.874
48519W        W49383   7.284  27.713   1.104
48520W        W49384   5.820  26.894   1.538
48521W        W49385   5.473  25.691   1.180
48522W        W49386   4.662  28.415   1.243
48523W        W49387   4.967  26.335   2.413
48524W        W49388   4.988  25.519   1.892
48525W        W49389   4.009  28.640   0.333
48526W        W49390   5.397  27.721   1.295
48527W        W49391   4.722  28.629   3.007
48528W        W49392   4.009  27.350   0.860
48529W        W49393   3.794  26.321   1.715
48530W        W49394   5.292  27.918   1.775
48531W        W49395   3.766  25.902   0.772
48532W        W49396   6.363  26.929   2.599
48533W        W49397   6.337  26.432   0.349
48534W        W49398   6.975  28.014   2.047
48535W        W49399   5.459  28.394   1.895
48536W        W49400   4.838  28.583   0.786
48537W        W49401   6.088  25.582   0.179
48538W        W49402   3.955  28.818   1.963
48539W        W49403   5.907  26.542   3.444
48540W        W49404   4.126  26.362   3.798
48541W        W49405   3.879  26.820   0.843
48542W        W49406   4.356  26.923   0.714
48543W        W49407   6.100  27.022   3.350
48544W        W49408   4.719  27.351   2.185
48545W        W49409   5.946  25.563   1.407
48546W        W49410   5.320  28.841   1.663
48547W        W49411   6.429  28.385   2.624
48548W        W49412   6.186  28.484   1.742
48549W        W49413   5.936  27.653   1.409
48550W        W49414   5.506  25.913   0.688
48551W        W49415   7.193  25.616   1.274
48552W        W49416   4.817  27.207   0.110
48553W        W49417   7.137  26.530   1.208
48554W        W49418   5.597  27.508   0.287
48555W        W49419   6.744  27.741   2.992
48556W        W49420   6.325  28.540   0.385
48557W        W49421   5.028  26.272   3.324
48558W        W49422   4.789  26.803   2.575
48559W        W49423   6.891  28.257   2.879
48560W        W49424   5.989  26.173   3.068
48561W        W49425   3.799  26.739   3.040
48562W        W49426   5.527  27.191   2.626
48563W        W49427   3.921  27.918   1.532
48564W        W49428   4.067  27.113   2.160
48565W        W49429   6.387  27.488   2.603
48566W        W49430   6.255  28.813   3.302
48567W        W49431   6.030  26.660   2.944
48568W        W49432   6.520  28.745   1.458
48569W        W49433   5.177  28.637   2.696
48570W        W49434   4.706  28.688   2.000
48571W        W49435   6.665  27.941   2.498
48572W        W49436   5.606  28.072   3.612
48573W        W49437   4.242  27.917   1.933
48574W        W49438   6.459  27.542   1.511
48575W        W49439   6.177  28.671   2.248
48576W        W49440   4.300  28.397   2.188
48577W        W49441   5.395  26.613   3.449
48578W        W49442   5.616  28.631   0.967
48579W        W49443   5.101  27.949   3.545
48580W        W49444   5.063  28.110   0.918
48581W        W49445   4.446  26.882   0.223
48582W        W49446   3.765   0.149   7.133
48583W        W49447   4.192  28.037   6.663
48584W        W49448   6.813  27.683   4.370
48585W        W49449   7.019  28.796   6.344
48586W        W49450   4.827  28.846   3.913
48587W        W49451   4.881  26.929   4.711
48588W        W49452   4.374  26.953   4.849
48589W        W49453   5.425  27.521   4.357
48590W        W49454   5.194  28.664   6.837
48591W        W49455   3.864  26.350   6.610
48592W        W49456   4.445  25.514   6.491
48593W        W49457   6.371  25.960   5.482
48594W        W49458   5.918  26.697   3.950
48595W        W49459   6.347  26.515   7.018
48596W        W49460   3.857  26.015   6.194
48597W        W49461   3.890  28.661   7.239
48598W        W49462   5.272  28.103   4.029
48599W        W49463   3.855  26.707   5.637
48600W        W49464   4.626  26.765   6.837
48601W        W49465   7.095  26.557   5.425
48602W        W49466   6.844  27.562   6.134
48603W        W49467   5.214  26.889   5.145
48604W        W49468   5.802  28.242   5.606
48605W        W49469   4.254  27.641   5.950
48606W        W49470   3.478  27.048   5.518
48607W        W49471   4.751  27.197   6.537
48608W        W49472   6.984  27.044   6.866
48609W        W49473   4.482  28.304   5.267
48610W        W49474   5.591  28.086   6.391
48611W        W49475   5.025  26.635   5.563
48612W        W49476   5.131  27.530   5.230
48613W        W49477   6.027  28.357   7.127
48614W        W49478   5.490  27.577   7.225
48615W        W49479   5.251  27.286   6.673
48616W        W49480   3.619  26.589   7.031
48617W        W49481   6.389  28.311   6.775
48618W        W49482   4.049  25.758   4.733
48619W        W49483   4.621  28.067   5.827
48620W        W49484   7.204  27.963   5.281
48621W        W49485   6.715  26.289   5.653
48622W        W49486   6.816  26.336   3.694
48623W        W49487   7.263  27.090   6.045
48624W        W49488   5.096  28.809   5.885
48625W        W49489   6.843  28.203   4.243
48626W        W49490   4.137   0.061   4.331
48627W        W49491   4.464  28.924   4.734
48628W        W49492   4.456  25.866   5.951
48629W        W49493   6.934  26.884   6.393
48630W        W49494   6.200  27.147   4.910
48631W        W49495   6.275  27.069   3.967
48632W        W49496   5.526  27.940   5.898
48633W        W49497   5.228  26.339   5.146
48634W        W49498   5.864  28.392   6.094
48635W        W49499   6.701  27.295   4.754
48636W        W49500   5.758  25.825   4.845
48637W        W49501   4.352  28.575   4.356
48638W        W49502   3.725  26.124   4.858
48639W        W49503   6.155  26.821   5.311
48640W        W49504   3.959  28.271   5.305
48641W        W49505   5.263  28.652   4.115
48642W        W49506   6.531  26.778   3.576
48643W        W49507   3.817  28.502   6.051
48644W        W49508   4.606  28.082   6.355
48645W        W49509   4.804  27.509   4.793
48646W        W49510   4.997  25.968   5.989
48647W        W49511   7.262  25.740   5.513
48648W        W49512   4.341  27.506   3.775
48649W        W49513   4.219  26.635   4.253
48650W        W49514   4.180  28.313   4.824
48651W        W49515   5.016  27.969   4.908
48652W        W49516   6.583  28.764   6.608
48653W        W49517   5.677  26.421   4.354
48654W        W49518   6.885  28.980   5.313
48655W        W49519   6.489  26.914   6.688
48656W        W49520   7.310  28.246   4.845
48657W        W49521   5.818  27.621   6.396
48658W        W49522   3.458  27.145   4.713
48659W        W49523   4.766  27.657   6.101
48660W        W49524   5.934  26.874   4.445
48661W        W49525   5.778  27.327   4.660
48662W        W49526   4.293  26.731   5.944
48663W        W49527   4.094  26.736   6.922
48664W        W49528   3.992  25.711   5.230
48665W        W49529   5.978  26.049   5.797
48666W        W49530   5.394  26.250   6.926
48667W        W49531   5.980  26.055   4.078
48668W        W49532   7.105  28.582   6.865
48669W        W49533   5.933  25.657   6.735
48670W        W49534   6.834  28.111   6.986
48671W        W49535   6.366  26.221   6.596
48672W        W49536   6.220  26.076   4.904
48673W        W49537   6.585  27.390   7.144
48674W        W49538   4.215  28.725   5.153
48675W        W49539   5.171  26.366   4.250
48676W        W49540   4.568  25.849   6.899
48677W        W49541   6.591  26.412   4.667
48678W        W49542   6.936  26.795   4.512
48679W        W49543   4.806  28.928   7.060
48680W        W49544   4.602  25.552   4.213
48681W        W49545   6.970  26.074   5.259
48682W        W49546   7.108  28.329   3.819
48683W        W49547   3.866  27.514   5.448
48684W        W49548   5.989  26.036   3.560
48685W        W49549   7.155  28.398   5.588
48686W        W49550   7.043  25.812   6.197
48687W        W49551   5.604  26.897   6.751
48688W        W49552   5.529  28.019   4.474
48689W        W49553   6.025  27.543   7.267
48690W        W49554   5.946  25.617   5.530
48691W        W49555   4.328  26.536   5.422
48692W        W49556   3.913  27.708   6.395
48693W        W49557   6.006  28.565   4.854
48694W        W49558   6.903  26.680   5.923
48695W        W49559   5.616  28.874   6.518
48696W        W49560   6.858  27.820   3.857
48697W        W49561   5.271  27.274   4.805
48698W        W49562   7.229  25.803   6.684
48699W        W49563   5.315  27.651   6.260
48700W        W49564   5.609  26.615   5.342
48701W        W49565   6.434  26.882   4.513
48702W        W49566   6.622  26.704   4.075
48703W        W49567   6.475  28.455   4.547
48704W        W49568   6.242  27.914   5.431
48705W        W49569   6.248  27.340   4.421
48706W        W49570   5.619  27.290   5.212
48707W        W49571   6.637  27.275   5.296
48708W        W49572   4.092  26.280   5.807
48709W        W49573   6.690  27.375   6.609
48710W        W49574   7.017  28.846   5.798
48711W        W49575   5.006  28.363   5.238
48712W        W49576   6.132  28.934   6.414
48713W        W49577   6.033  26.354   6.203
48714W        W49578   5.269   0.141   6.236
48715W        W49579   6.906  26.008   4.710
48716W        W49580   6.815  27.170   5.792
48717W        W49581   3.832  26.554   6.144
48718W        W49582   6.540  26.367   5.179
48719W        W49583   6.821  26.553   6.791
48720W        W49584   5.866  28.116   5.118
48721W        W49585   5.148  28.703   4.866
48722W        W49586   4.278  25.916   4.034
48723W        W49587   5.395  25.694   5.700
48724W        W49588   4.319  28.932   3.861
48725W        W49589   4.973  27.291   4.360
48726W        W49590   5.419  27.767   6.748
48727W        W49591   5.299  26.045   4.698
48728W        W49592   6.618  25.739   5.083
48729W        W49593   6.349   0.001   5.414
48730W        W49594   5.601  28.720   5.769
48731W        W49595   5.100  27.709   5.724
48732W        W49596   6.791  28.447   6.001
48733W        W49597   4.486  25.951   4.542
48734W        W49598   5.249  28.353   5.698
48735W        W49599   4.605  26.222   3.627
48736W        W49600   5.367  26.870   5.908
48737W        W49601   6.316  25.659   5.913
48738W        W49602   3.749  27.529   5.965
48739W        W49603   5.280  27.198   3.952
48740W        W49604   4.675  25.716   3.723
48741W        W49605   5.277  26.588   4.703
48742W        W49606   6.099  25.876   6.315
48743W        W49607   4.913  27.713   6.586
48744W        W49608   5.751  27.374   6.844
48745W        W49609   6.235  27.531   6.790
48746W        W49610   5.545  25.888   7.260
48747W        W49611   4.834  26.164   5.428
48748W        W49612   4.262  26.205   4.965
48749W        W49613   3.954  28.767   4.704
48750W        W49614   5.541  28.287   6.857
48751W        W49615   4.577  27.600   4.246
48752W        W49616   6.123  27.352   5.413
48753W        W49617   6.315  27.036   5.753
48754W        W49618   5.491  27.392   5.816
48755W        W49619   6.072  27.943   3.815
48756W        W49620   5.636  26.006   5.319
48757W        W49621   7.239  26.370   4.477
48758W        W49622   3.890  28.823   6.728
48759W        W49623   4.126  28.091   6.142
48760W        W49624   3.613  28.974   4.351
48761W        W49625   5.718  26.496   5.822
48762W        W49626   4.819  28.364   4.065
48763W        W49627   6.687  28.669   4.088
48764W        W49628   5.791  27.224   4.100
48765W        W49629   4.555  26.507   4.625
48766W        W49630   5.590  26.277   3.808
48767W        W49631   5.904  27.912   6.859
48768W        W49632   6.436  25.952   4.456
48769W        W49633   3.803  25.669   3.929
48770W        W49634   5.067  28.086   6.100
48771W        W49635   4.785  27.896   5.361
48772W        W49636   4.647  27.938   3.838
48773W        W49637   3.832  28.335   4.422
48774W        W49638   4.264  27.193   6.761
48775W        W49639   5.052  25.859   7.082
48776W        W49640   5.546  26.064   6.078
48777W        W49641   4.895  25.651   4.758
48778W        W49642   5.882  25.641   4.365
48779W        W49643   3.981  25.795   5.742
48780W        W49644   3.987  26.575   4.739
48781W        W49645   6.792  25.769   5.734
48782W        W49646   4.029  26.173   4.414
48783W        W49647   6.487  26.120   6.069
48784W        W49648   6.928  27.033   3.795
48785W        W49649   4.349  26.029   5.459
48786W        W49650   5.591  26.588   6.327
48787W        W49651   3.694  26.172   4.009
48788W        W49652   4.405  27.595   6.452
48789W        W49653   5.794  27.001   5.637
48790W        W49654   5.639   0.040   4.072
48791W        W49655   3.806  27.479   3.786
48792W        W49656   4.673  28.087   6.860
48793W        W49657   4.047  27.222   6.295
48794W        W49658   5.065  27.248   6.108
48795W        W49659   6.594  25.774   6.440
48796W        W49660   7.179  27.374   6.479
48797W        W49661   7.189  27.425   3.978
48798W        W49662   5.926  27.710   4.290
48799W        W49663   6.553   0.012   3.721
48800W        W49664   5.733  27.124   7.315
48801W        W49665   4.273  28.034   7.183
48802W        W49666   7.228  26.167   7.057
48803W        W49667   6.647  26.778   5.483
48804W        W49668   5.272  28.932   7.298
48805W        W49669   5.109  25.568   3.989
48806W        W49670   6.532  28.205   3.813
48807W        W49671   4.355  26.312   6.783
48808W        W49672   5.099  28.209   6.592
48809W        W49673   6.908  26.302   6.346
48810W        W49674   6.260   0.013   4.167
48811W        W49675   6.455  27.566   5.770
48812W        W49676   4.674  25.990   6.408
48813W        W49677   5.225  27.110   7.239
48814W        W49678   4.571  28.095   4.437
48815W        W49679   6.417  27.733   4.722
48816W        W49680   4.281  26.286   6.274
48817W        W49681   5.424  28.273   4.918
48818W        W49682   7.125  26.985   4.998
48819W        W49683   5.430  25.703   6.765
48820W        W49684   6.294  28.289   5.790
48821W        W49685   6.632  28.594   5.542
48822W        W49686   5.701  28.553   3.841
48823W        W49687   3.809  28.184   7.021
48824W        W49688   4.640  26.348   5.873
48825W        W49689   4.489  25.758   5.059
48826W        W49690   6.258  26.516   5.760
48827W        W49691   5.046  27.637   3.954
48828W        W49692   6.950  27.617   5.580
48829W        W49693   4.246  28.480   6.909
48830W        W49694   6.599  28.988   4.589
48831W        W49695   4.814  26.144   4.899
48832W        W49696   4.353  27.463   5.194
48833W        W49697   4.695   0.057   6.067
48834W        W49698   6.863   0.050   6.908
48835W        W49699   5.981  27.356   5.972
48836W        W49700   4.102  27.042   3.903
48837W        W49701   6.952  28.584   4.694
48838W        W49702   6.787  26.254   4.222
48839W        W49703   4.943  25.612   6.620
48840W        W49704   6.866  28.338   5.159
48841W        W49705   6.622  26.836   4.980
48842W        W49706   4.747  26.621   5.118
48843W        W49707   5.149  26.843   6.416
48844W        W49708   6.125  28.040   6.412
48845W        W49709   4.735  26.505   6.395
48846W        W49710   4.734  28.803   5.179
48847W        W49711   4.288  28.997   7.006
48848W        W49712   4.332  28.402   3.834
48849W        W49713   6.826  28.062   4.732
48850W        W49714   4.271  26.772   6.447
48851W        W49715   7.131  26.610   4.028
48852W        W49716   5.017  27.823   4.423
48853W        W49717   6.065  27.156   6.495
48854W        W49718   5.991  26.848   6.102
48855W        W49719   4.514  27.205   6.074
48856W        W49720   6.560  28.929   6.058
48857W        W49721   6.396  25.735   6.901
48858W        W49722   4.097  25.865   6.667
48859W        W49723   4.572  26.961   5.584
48860W        W49724   4.982  26.563   3.757
48861W        W49725   3.771  28.343   6.537
48862W        W49726   5.064  27.161   5.595
48863W        W49727   5.088  26.069   3.835
48864W        W49728   4.474  27.084   4.337
48865W        W49729   3.868   0.033   6.265
48866W        W49730   6.723  27.202   4.227
48867W        W49731   6.789  26.045   6.842
48868W        W49732   6.382  28.195   5.003
48869W        W49733   3.767  27.159   6.979
48870W        W49734   6.892  25.758   4.230
48871W        W49735   6.373  28.001   4.277
48872W        W49736   5.423  26.988   4.412
48873W        W49737   6.474  25.919   3.940
48874W        W49738   6.481  26.610   6.256
48875W        W49739   4.133  27.003   5.301
48876W        W49740   4.493  27.906   4.922
48877W        W49741   6.148  26.601   4.849
48878W        W49742   5.308  26.213   5.643
48879W        W49743   7.080  28.026   5.997
48880W        W49744   7.163  26.219   5.879
48881W        W49745   3.689  28.679   5.145
48882W        W49746   4.088  27.891   4.528
48883W        W49747   4.145  25.867   7.197
48884W        W49748   5.333  28.438   7.326
48885W        W49749   7.097  27.488   5.087
48886W        W49750   6.417  27.578   3.988
48887W        W49751   5.767   0.127   6.064
48888W        W49752   6.368  27.909   7.127
48889W        W49753   5.333  25.543   4.482
48890W        W49754   6.036  26.322   5.327
48891W        W49755   3.827  27.995   5.739
48892W        W49756   4.952  25.917   4.326
48893W        W49757   5.008  27.545   7.058
48894W        W49758   5.703  26.339   4.899
48895W        W49759   6.039  27.868   5.931
48896W        W49760   4.257  28.498   6.406
48897W        W49761   4.842  28.429   7.188
48898W        W49762   4.644  26.310   4.138
48899W        W49763   6.216  26.444   4.323
48900W        W49764   5.938  28.485   6.610
48901W        W49765   4.767  27.156   5.161
48902W        W49766   4.249  28.810   6.011
48903W        W49767   7.052  28.849   3.744
48904W        W49768   3.983  27.628   6.894
48905W        W49769   5.765  27.714   5.492
48906W        W49770   4.306  27.449   4.684
48907W        W49771   4.743  28.537   6.162
48908W        W49772   5.146  25.814   5.186
48909W        W49773   3.657  27.786   4.196
48910W        W49774   5.415  26.721   3.976
48911W        W49775   3.894  27.309   4.962
48912W        W49776   5.189  26.081   6.474
48913W        W49777   6.928  25.796   3.714
48914W        W49778   7.030  27.609   6.934
48915W        W49779   5.682  28.748   7.036
48916W        W49780   7.087  27.885   6.503
48917W        W49781   6.656  28.586   7.117
48918W        W49782   4.415  28.973   5.565
48919W        W49783   7.255  27.758   4.674
48920W        W49784   5.685  26.874   4.898
48921W        W49785   5.555  25.504   5.221
48922W        W49786   4.692  28.432   4.811
48923W        W49787   5.159  26.435   6.083
48924W        W49788   4.871  25.666   5.602
48925W        W49789   3.909  28.677   4.049
48926W        W49790   5.500  27.733   4.911
48927W        W49791   4.701  28.574   6.680
48928W        W49792   4.075  27.456   4.228
48929W        W49793   3.874  26.241   5.336
48930W        W49794   5.358  27.990   5.351
48931W        W49795   3.626  25.819   4.413
48932W        W49796   6.509  27.118   6.206
48933W        W49797   6.297  26.381   3.809
48934W        W49798   6.729  28.081   5.607
48935W        W49799   5.649  28.590   5.254
48936W        W49800   4.855  28.763   4.433
48937W        W49801   6.063  25.588   3.808
48938W        W49802   3.927  28.785   5.601
48939W        W49803   5.837  26.614   7.129
48940W        W49804   4.044  26.360   7.268
48941W        W49805   3.970  27.035   4.514
48942W        W49806   4.905  26.800   4.208
48943W        W49807   6.152  27.052   7.036
48944W        W49808   4.636  27.475   5.627
48945W        W49809   6.231  25.565   4.753
48946W        W49810   5.213  28.822   5.383
48947W        W49811   6.349  28.478   6.264
48948W        W49812   6.154  28.522   5.349
48949W        W49813   6.004  27.635   5.012
48950W        W49814   5.472  25.938   4.186
48951W        W49815   7.152  25.650   4.997
48952W        W49816   4.747  27.198   3.905
48953W        W49817   7.021  26.483   4.929
48954W        W49818   5.592  27.660   3.900
48955W        W49819   6.584  27.868   6.618
48956W        W49820   6.233  28.627   3.821
48957W        W49821   4.871  26.277   6.839
48958W        W49822   4.828  26.815   6.000
48959W        W49823   6.822  28.320   6.494
48960W        W49824   5.720  26.123   6.555
48961W        W49825   3.746  26.854   6.554
48962W        W49826   5.581  27.157   6.286
48963W        W49827   3.999  27.824   5.041
48964W        W49828   4.089  27.176   5.776
48965W        W49829   6.324  27.579   6.281
48966W        W49830   6.204  28.807   6.947
48967W        W49831   6.040  26.645   6.623
48968W        W49832   6.527  28.712   5.020
48969W        W49833   5.352  28.520   6.227
48970W        W49834   4.727  28.557   5.642
48971W        W49835   6.564  28.000   6.114
48972W        W49836   5.654  28.054   7.291
48973W        W49837   4.269  27.881   5.487
48974W        W49838   6.689  27.800   5.167
48975W        W49839   6.115  28.765   5.829
48976W        W49840   4.228  28.381   5.724
48977W        W49841   5.148  26.711   6.918
48978W        W49842   5.562  28.609   4.546
48979W        W49843   5.159  28.031   7.084
48980W        W49844   5.104  28.321   4.505
48981W        W49845   4.508  26.729   3.830
48982W        W49846   3.768   0.194  10.801
48983W        W49847   4.110  28.054  10.269
48984W        W49848   6.781  27.646   7.957
48985W        W49849   7.078  28.783  10.002
48986W        W49850   4.844  28.787   7.562
48987W        W49851   4.981  27.016   8.434
48988W        W49852   4.498  26.769   8.838
48989W        W49853   5.559  27.616   8.112
48990W        W49854   5.260  28.722  10.406
48991W        W49855   3.868  26.340  10.351
48992W        W49856   4.424  25.491  10.103
48993W        W49857   6.220  26.043   8.963
48994W        W49858   5.964  26.771   7.614
48995W        W49859   6.447  26.307  10.640
48996W        W49860   3.851  26.046   9.874
48997W        W49861   3.923  28.707  10.902
48998W        W49862   5.531  28.223   7.777
48999W        W49863   3.678  26.788   9.391
49000W        W49864   4.723  26.816  10.538
49001W        W49865   7.000  26.570   9.059
49002W        W49866   6.925  27.566   9.850
49003W        W49867   5.406  26.973   8.893
49004W        W49868   5.915  28.287   9.306
49005W        W49869   4.333  27.630   9.469
49006W        W49870   3.459  27.252   9.350
49007W        W49871   4.790  27.219  10.186
49008W        W49872   6.942  27.016  10.550
49009W        W49873   4.548  28.495   8.997
49010W        W49874   5.716  28.086  10.108
49011W        W49875   5.007  26.620   9.358
49012W        W49876   5.276  27.516   9.024
49013W        W49877   6.045  28.368  10.824
49014W        W49878   5.381  27.482  10.827
49015W        W49879   5.287  27.317  10.314
49016W        W49880   3.626  26.659  10.833
49017W        W49881   6.482  28.274  10.516
49018W        W49882   4.189  25.831   8.473
49019W        W49883   4.767  28.168   9.460
49020W        W49884   7.242  27.992   8.913
49021W        W49885   6.505  26.496   9.258
49022W        W49886   6.808  26.367   7.261
49023W        W49887   7.422  27.117   9.817
49024W        W49888   5.184  28.830   9.679
49025W        W49889   6.993  28.074   7.807
49026W        W49890   4.045   0.160   8.038
49027W        W49891   4.430  28.956   8.353
49028W        W49892   4.282  25.812   9.705
49029W        W49893   6.949  26.944  10.002
49030W        W49894   6.322  27.192   8.548
49031W        W49895   6.328  27.137   7.534
49032W        W49896   5.622  28.008   9.606
49033W        W49897   5.438  26.350   8.782
49034W        W49898   5.978  28.415   9.803
49035W        W49899   6.801  27.296   8.339
49036W        W49900   5.863  25.981   8.107
49037W        W49901   4.373  28.774   7.868
49038W        W49902   3.778  26.176   8.494
49039W        W49903   6.280  26.840   8.925
49040W        W49904   4.049  28.451   9.027
49041W        W49905   5.314  28.704   7.765
49042W        W49906   6.661  26.877   7.222
49043W        W49907   3.850  28.579   9.693
49044W        W49908   4.626  28.127  10.150
49045W        W49909   4.909  27.563   8.621
49046W        W49910   4.716  26.000   9.476
49047W        W49911   7.163  25.772   9.189
49048W        W49912   4.508  27.616   6.953
49049W        W49913   3.902  26.469   7.775
49050W        W49914   4.269  28.466   8.548
49051W        W49915   5.107  28.039   8.584
49052W        W49916   6.709  28.722  10.357
49053W        W49917   5.677  26.453   7.899
49054W        W49918   6.968   0.021   8.954
49055W        W49919   6.537  26.822  10.294
49056W        W49920   7.343  28.262   8.457
49057W        W49921   5.897  27.616  10.029
49058W        W49922   3.705  27.051   8.559
49059W        W49923   4.740  27.749   9.763
49060W        W49924   5.963  26.872   8.115
49061W        W49925   5.891  27.347   8.355
49062W        W49926   4.159  26.831   9.672
49063W        W49927   4.148  26.787  10.492
49064W        W49928   4.060  25.639   8.939
49065W        W49929   5.726  26.114   9.154
49066W        W49930   5.603  26.111  10.532
49067W        W49931   5.943  26.225   7.508
49068W        W49932   7.187  28.552  10.505
49069W        W49933   5.918  25.678  10.451
49070W        W49934   6.953  28.079  10.681
49071W        W49935   6.531  26.302  10.143
49072W        W49936   6.240  26.152   8.456
49073W        W49937   6.551  27.280  10.811
49074W        W49938   4.274  28.902   8.832
49075W        W49939   5.166  26.454   7.882
49076W        W49940   4.663  25.905  10.520
49077W        W49941   6.663  26.397   8.216
49078W        W49942   6.949  26.842   8.141
49079W        W49943   4.829  28.928  10.740
49080W        W49944   4.520  25.716   7.947
49081W        W49945   7.049  26.115   8.831
49082W        W49946   7.107  28.336   7.362
49083W        W49947   3.959  27.661   9.118
49084W        W49948   5.986  26.122   6.991
49085W        W49949   7.204  28.441   9.201
49086W        W49950   7.091  25.769   9.733
49087W        W49951   5.675  26.925  10.335
49088W        W49952   5.747  28.093   8.233
49089W        W49953   6.035  27.396  10.938
49090W        W49954   5.876  25.632   9.068
49091W        W49955   4.168  26.584   9.220
49092W        W49956   3.896  27.660   9.953
49093W        W49957   6.042  28.565   8.520
49094W        W49958   6.882  26.669   9.572
49095W        W49959   5.727  28.859  10.152
49096W        W49960   6.857  27.764   7.396
49097W        W49961   5.376  27.335   8.531
49098W        W49962   7.246  25.759  10.258
49099W        W49963   5.397  27.698   9.943
49100W        W49964   5.508  26.593   9.233
49101W        W49965   6.459  26.817   7.955
49102W        W49966   6.872  26.676   7.657
49103W        W49967   6.495  28.553   8.212
49104W        W49968   6.339  27.986   9.105
49105W        W49969   6.367  27.315   8.039
49106W        W49970   5.759  27.356   8.883
49107W        W49971   6.698  27.363   8.846
49108W        W49972   3.775  26.286   9.421
49109W        W49973   6.683  27.317  10.246
49110W        W49974   7.079  28.878   9.464
49111W        W49975   5.056  28.395   8.953
49112W        W49976   6.244  28.893  10.100
49113W        W49977   6.056  26.279   9.830
49114W        W49978   5.367   0.193   9.962
49115W        W49979   7.026  26.022   8.330
49116W        W49980   7.029  27.180   9.510
49117W        W49981   3.765  26.560   9.870
49118W        W49982   6.596  26.378   8.761
49119W        W49983   6.954  26.521  10.398
49120W        W49984   5.929  28.146   8.813
49121W        W49985   5.250  28.786   8.641
49122W        W49986   4.130  25.978   7.691
49123W        W49987   5.532  25.747   9.457
49124W        W49988   4.135   0.060   7.502
49125W        W49989   5.075  27.449   8.110
49126W        W49990   5.434  27.818  10.440
49127W        W49991   5.399  26.155   8.283
49128W        W49992   6.629  25.861   8.658
49129W        W49993   6.398   0.054   9.060
49130W        W49994   5.664  28.715   9.508
49131W        W49995   5.165  27.810   9.472
49132W        W49996   6.899  28.440   9.655
49133W        W49997   4.635  26.058   8.367
49134W        W49998   5.268  28.360   9.445
49135W        W49999   4.559  26.239   7.256
49136W        W50000   5.373  26.742   9.731
49137W        W50001   6.134  25.907   9.454
49138W        W50002   3.632  27.716   9.505
49139W        W50003   5.400  27.358   7.680
49140W        W50004   4.616  25.768   7.431
49141W        W50005   5.402  26.717   8.427
49142W        W50006   6.312  25.854   9.955
49143W        W50007   4.964  27.723  10.228
49144W        W50008   5.763  27.408  10.488
49145W        W50009   6.249  27.518  10.415
49146W        W50010   5.630  25.755  10.900
49147W        W50011   4.628  26.356   9.115
49148W        W50012   4.218  26.276   8.768
49149W        W50013   3.893  28.754   8.343
49150W        W50014   5.573  28.329  10.544
49151W        W50015   4.781  27.808   7.864
49152W        W50016   6.236  27.346   9.092
49153W        W50017   6.245  26.939   9.417
49154W        W50018   5.554  27.485   9.476
49155W        W50019   6.095  28.117   7.586
49156W        W50020   5.778  25.994   8.642
49157W        W50021   7.142  26.387   7.990
49158W        W50022   3.904  28.897  10.408
49159W        W50023   4.281  28.040   9.769
49160W        W50024   3.517  28.982   8.085
49161W        W50025   5.582  26.265   9.630
49162W        W50026   4.992  28.293   7.717
49163W        W50027   6.826  28.569   7.801
49164W        W50028   5.901  27.277   7.803
49165W        W50029   4.974  26.442   8.367
49166W        W50030   5.456  26.391   7.416
49167W        W50031   5.944  27.923  10.553
49168W        W50032   6.552  25.894   8.138
49169W        W50033   3.730  25.647   7.584
49170W        W50034   5.087  28.119   9.875
49171W        W50035   4.904  27.886   9.046
49172W        W50036   4.751  27.911   7.355
49173W        W50037   3.490  28.475   8.049
49174W        W50038   4.401  27.237  10.522
49175W        W50039   5.122  25.867  10.777
49176W        W50040   5.653  25.938  10.040
49177W        W50041   5.078  25.773   8.478
49178W        W50042   6.243  25.855   7.731
49179W        W50043   3.808  25.754   9.414
49180W        W50044   3.796  26.592   8.852
49181W        W50045   6.693  26.014   9.171
49182W        W50046   4.178  26.224   8.150
49183W        W50047   6.625  26.180   9.657
49184W        W50048   7.085  27.240   7.332
49185W        W50049   4.214  26.051   9.244
49186W        W50050   5.588  26.452  10.126
49187W        W50051   3.638  26.139   7.499
49188W        W50052   4.386  27.595  10.088
49189W        W50053   5.757  27.038   9.301
49190W        W50054   5.723   0.026   7.819
49191W        W50055   3.626  27.757   7.248
49192W        W50056   4.550  27.775  10.526
49193W        W50057   4.063  27.172  10.091
49194W        W50058   5.078  27.347   9.781
49195W        W50059   6.746  25.645  10.109
49196W        W50060   7.214  27.359  10.228
49197W        W50061   7.227  27.587   7.697
49198W        W50062   6.081  27.739   8.053
49199W        W50063   6.505   0.040   7.307
49200W        W50064   5.680  27.017  10.852
49201W        W50065   4.218  28.011  10.824
49202W        W50066   7.288  26.150  10.635
49203W        W50067   6.706  26.979   9.180
49204W        W50068   5.326  28.923  10.902
49205W        W50069   5.085  25.641   7.611
49206W        W50070   6.608  28.206   7.472
49207W        W50071   4.418  26.352  10.486
49208W        W50072   5.093  28.224  10.372
49209W        W50073   7.030  26.187  10.013
49210W        W50074   6.249   0.024   7.857
49211W        W50075   6.556  27.606   9.427
49212W        W50076   4.657  25.993  10.003
49213W        W50077   5.174  27.001  10.743
49214W        W50078   4.745  28.190   8.205
49215W        W50079   6.499  27.720   8.373
49216W        W50080   4.250  26.360   9.994
49217W        W50081   5.508  28.348   8.606
49218W        W50082   7.202  27.025   8.553
49219W        W50083   5.410  25.650  10.410
49220W        W50084   6.406  28.340   9.481
49221W        W50085   6.714  28.633   9.194
49222W        W50086   5.783  28.591   7.530
49223W        W50087   3.790  28.233  10.656
49224W        W50088   4.575  26.483   9.625
49225W        W50089   4.537  25.872   8.861
49226W        W50090   6.006  26.485   9.365
49227W        W50091   5.230  27.847   7.576
49228W        W50092   7.016  27.598   9.175
49229W        W50093   4.232  28.498  10.535
49230W        W50094   6.692   0.055   8.260
49231W        W50095   4.968  26.140   8.802
49232W        W50096   4.465  27.611   8.933
49233W        W50097   4.740   0.089   9.751
49234W        W50098   7.085   0.051  10.478
49235W        W50099   6.054  27.386   9.587
49236W        W50100   3.884  26.846   7.391
49237W        W50101   7.010  28.639   8.320
49238W        W50102   6.705  26.180   7.739
49239W        W50103   4.929  25.594  10.201
49240W        W50104   6.910  28.362   8.779
49241W        W50105   6.722  26.875   8.655
49242W        W50106   5.014  26.649   8.843
49243W        W50107   5.171  26.812  10.233
49244W        W50108   6.228  28.021  10.125
49245W        W50109   4.793  26.465  10.148
49246W        W50110   4.833  28.906   8.907
49247W        W50111   4.318   0.012  10.684
49248W        W50112   4.401  28.637   7.365
49249W        W50113   6.851  28.123   8.317
49250W        W50114   4.455  26.837  10.090
49251W        W50115   7.334  26.893   7.720
49252W        W50116   5.211  27.972   8.089
49253W        W50117   6.140  27.137  10.065
49254W        W50118   5.883  26.785   9.765
49255W        W50119   4.508  27.233   9.744
49256W        W50120   6.625  28.890   9.717
49257W        W50121   6.419  25.729  10.564
49258W        W50122   4.179  25.911  10.268
49259W        W50123   4.592  26.928   9.331
49260W        W50124   4.985  26.655   7.418
49261W        W50125   3.758  28.457  10.190
49262W        W50126   5.220  27.091   9.360
49263W        W50127   5.013  26.137   7.501
49264W        W50128   4.505  27.228   8.589
49265W        W50129   3.847   0.082   9.946
49266W        W50130   6.811  27.179   7.766
49267W        W50131   6.831  26.014  10.470
49268W        W50132   6.417  28.210   8.615
49269W        W50133   3.847  27.153  10.709
49270W        W50134   7.032  25.792   7.867
49271W        W50135   6.476  28.078   7.960
49272W        W50136   5.498  27.091   8.100
49273W        W50137   6.404  26.059   7.292
49274W        W50138   6.411  26.659   9.801
49275W        W50139   3.891  27.131   9.049
49276W        W50140   4.603  28.095   8.700
49277W        W50141   6.291  26.667   8.443
49278W        W50142   5.206  26.155   9.269
49279W        W50143   7.193  28.026   9.759
49280W        W50144   7.134  26.225   9.466
49281W        W50145   3.760  28.858   8.829
49282W        W50146   3.893  28.222   8.269
49283W        W50147   4.190  25.954  10.793
49284W        W50148   5.107  28.456  10.844
49285W        W50149   7.153  27.542   8.665
49286W        W50150   6.385  27.667   7.618
49287W        W50151   5.864   0.143   9.745
49288W        W50152   6.491  27.788  10.763
49289W        W50153   5.417  25.628   8.120
49290W        W50154   5.952  26.461   8.855
49291W        W50155   3.906  28.141   9.418
49292W        W50156   4.995  25.958   8.006
49293W        W50157   4.889  27.414  10.654
49294W        W50158   5.826  26.439   8.374
49295W        W50159   6.138  27.915   9.618
49296W        W50160   4.262  28.497  10.028
49297W        W50161   4.664  28.247  10.689
49298W        W50162   4.589  26.211   7.793
49299W        W50163   6.193  26.367   7.976
49300W        W50164   6.026  28.460  10.315
49301W        W50165   4.899  27.143   8.937
49302W        W50166   4.262  28.898   9.721
49303W        W50167   7.022  28.834   7.393
49304W        W50168   4.036  27.595  10.477
49305W        W50169   5.877  27.762   9.184
49306W        W50170   4.438  27.719   8.405
49307W        W50171   4.745  28.543   9.837
49308W        W50172   5.371  25.824   8.911
49309W        W50173   3.482  27.949   8.038
49310W        W50174   5.454  26.844   7.642
49311W        W50175   3.995  27.493   8.635
49312W        W50176   5.155  26.078  10.241
49313W        W50177   6.886  25.868   7.359
49314W        W50178   6.972  27.550  10.649
49315W        W50179   5.764  28.791  10.664
49316W        W50180   7.196  27.869  10.258
49317W        W50181   6.813  28.545  10.850
49318W        W50182   4.479  28.994   9.279
49319W        W50183   7.236  27.782   8.205
49320W        W50184   5.851  26.912   8.625
49321W        W50185   5.623  25.480   8.610
49322W        W50186   4.782  28.581   8.528
49323W        W50187   5.071  26.292   9.758
49324W        W50188   5.041  25.649   9.289
49325W        W50189   3.838  28.738   7.767
49326W        W50190   5.588  27.792   8.631
49327W        W50191   4.727  28.620  10.342
49328W        W50192   3.480  27.452   8.308
49329W        W50193   3.717  26.031   8.977
49330W        W50194   5.445  28.045   9.067
49331W        W50195   3.712  26.020   8.002
49332W        W50196   6.569  27.154   9.737
49333W        W50197   6.393  26.530   7.524
49334W        W50198   6.833  28.081   9.279
49335W        W50199   5.732  28.626   8.963
49336W        W50200   4.861  28.829   8.067
49337W        W50201   6.015  25.670   7.265
49338W        W50202   3.972  28.887   9.293
49339W        W50203   5.948  26.537  10.705
49340W        W50204   4.077  26.444  10.868
49341W        W50205   3.737  26.625   8.250
49342W        W50206   5.028  26.983   7.879
49343W        W50207   6.143  27.019  10.586
49344W        W50208   4.808  27.446   9.338
49345W        W50209   6.151  25.650   8.607
49346W        W50210   5.294  28.809   9.162
49347W        W50211   6.468  28.453   9.982
49348W        W50212   6.248  28.536   9.002
49349W        W50213   6.121  27.681   8.708
49350W        W50214   5.457  26.004   7.763
49351W        W50215   7.319  25.720   8.654
49352W        W50216   4.914  27.416   7.552
49353W        W50217   7.058  26.518   8.521
49354W        W50218   5.747  27.741   7.662
49355W        W50219   6.684  27.831  10.285
49356W        W50220   6.300  28.617   7.511
49357W        W50221   4.948  26.345  10.639
49358W        W50222   4.879  26.867   9.794
49359W        W50223   6.915  28.283  10.160
49360W        W50224   6.070  26.139  10.319
49361W        W50225   3.687  26.832  10.289
49362W        W50226   5.598  27.200   9.901
49363W        W50227   4.078  28.010   8.740
49364W        W50228   3.954  27.296   9.554
49365W        W50229   6.396  27.586   9.923
49366W        W50230   6.286  28.793  10.618
49367W        W50231   6.080  26.632  10.214
49368W        W50232   6.607  28.755   8.681
49369W        W50233   5.444  28.481   9.950
49370W        W50234   4.845  28.664   9.359
49371W        W50235   6.654  28.003   9.783
49372W        W50236   5.544  27.986  10.920
49373W        W50237   4.358  28.048   9.173
49374W        W50238   6.754  27.867   8.799
49375W        W50239   6.175  28.800   9.474
49376W        W50240   4.336  28.472   9.471
49377W        W50241   5.427  26.573  10.639
49378W        W50242   5.684  28.609   8.137
49379W        W50243   5.046  27.897  10.776
49380W        W50244   5.194  28.467   8.215
49381W        W50245   4.425  26.729   7.326
49382W        W50246   3.700   0.156  14.365
49383W        W50247   4.134  28.157  13.848
49384W        W50248   6.875  27.664  11.675
49385W        W50249   7.081  28.808  13.549
49386W        W50250   4.767  28.912  11.249
49387W        W50251   4.767  26.979  12.073
49388W        W50252   4.600  26.645  12.465
49389W        W50253   5.418  27.394  11.686
49390W        W50254   5.229  28.847  13.759
49391W        W50255   3.797  26.319  14.039
49392W        W50256   4.483  25.406  13.772
49393W        W50257   6.277  25.975  12.593
49394W        W50258   5.885  26.712  11.214
49395W        W50259   6.378  26.433  14.219
49396W        W50260   3.872  25.961  13.549
49397W        W50261   3.893  28.623  14.430
49398W        W50262   5.194  28.175  11.274
49399W        W50263   3.724  26.741  12.906
49400W        W50264   4.596  26.776  14.116
49401W        W50265   6.989  26.585  12.577
49402W        W50266   6.962  27.575  13.399
49403W        W50267   5.393  26.917  12.576
49404W        W50268   5.829  28.369  12.721
49405W        W50269   4.152  27.649  13.163
49406W        W50270   3.432  27.150  12.956
49407W        W50271   4.739  27.084  13.715
49408W        W50272   6.980  27.033  14.119
49409W        W50273   4.527  28.411  12.597
49410W        W50274   5.701  28.106  13.580
49411W        W50275   5.046  26.627  12.830
49412W        W50276   5.177  27.517  12.554
49413W        W50277   5.936  28.414  14.288
49414W        W50278   5.257  27.483  14.279
49415W        W50279   5.249  27.365  13.782
49416W        W50280   3.607  26.652  14.417
49417W        W50281   6.397  28.288  14.019
49418W        W50282   4.118  25.808  12.070
49419W        W50283   4.822  28.258  13.009
49420W        W50284   7.275  27.935  12.506
49421W        W50285   6.622  26.310  12.840
49422W        W50286   6.892  26.363  10.912
49423W        W50287   7.241  27.063  13.291
49424W        W50288   5.276  28.996  13.045
49425W        W50289   6.916  28.301  11.325
49426W        W50290   4.052   0.179  11.656
49427W        W50291   4.403   0.017  12.003
49428W        W50292   4.331  25.749  13.415
49429W        W50293   6.837  26.861  13.543
49430W        W50294   6.269  27.100  12.193
49431W        W50295   6.308  27.022  11.223
49432W        W50296   5.587  28.058  13.074
49433W        W50297   5.464  26.296  12.411
49434W        W50298   5.973  28.368  13.249
49435W        W50299   6.713  27.269  11.981
49436W        W50300   5.437  25.921  12.001
49437W        W50301   4.362  28.765  11.541
49438W        W50302   3.746  26.156  12.141
49439W        W50303   6.405  26.689  12.570
49440W        W50304   4.014  28.430  12.755
49441W        W50305   5.222  28.716  11.387
49442W        W50306   6.561  26.768  10.823
49443W        W50307   3.783  28.494  13.244
49444W        W50308   4.646  28.293  13.503
49445W        W50309   4.696  27.495  12.364
49446W        W50310   4.715  25.983  13.131
49447W        W50311   7.208  25.700  12.767
49448W        W50312   4.474  27.530  10.968
49449W        W50313   4.224  26.509  11.355
49450W        W50314   4.148  28.383  12.234
49451W        W50315   5.094  28.010  12.158
49452W        W50316   6.602  28.761  13.758
49453W        W50317   5.633  26.394  11.522
49454W        W50318   6.941  28.938  12.497
49455W        W50319   6.526  26.859  13.951
49456W        W50320   7.393  28.274  12.108
49457W        W50321   5.864  27.634  13.595
49458W        W50322   3.555  27.136  12.080
49459W        W50323   4.640  27.827  13.253
49460W        W50324   5.936  26.789  11.738
49461W        W50325   5.782  27.203  12.001
49462W        W50326   4.160  26.736  13.231
49463W        W50327   4.089  26.734  14.223
49464W        W50328   4.045  25.650  12.555
49465W        W50329   5.748  26.051  12.826
49466W        W50330   5.551  26.136  14.127
49467W        W50331   6.017  25.969  11.322
49468W        W50332   7.153  28.618  14.038
49469W        W50333   5.960  25.716  14.086
49470W        W50334   6.883  28.109  14.162
49471W        W50335   6.488  26.301  13.733
49472W        W50336   6.257  26.047  12.068
49473W        W50337   6.538  27.279  14.256
49474W        W50338   4.213  28.834  12.487
49475W        W50339   5.015  26.597  11.526
49476W        W50340   4.577  25.831  14.078
49477W        W50341   6.658  26.404  11.801
49478W        W50342   6.986  26.814  11.725
49479W        W50343   4.690  28.951  14.224
49480W        W50344   4.622  25.700  11.536
49481W        W50345   7.026  26.079  12.491
49482W        W50346   7.307  28.346  11.016
49483W        W50347   3.755  27.571  12.796
49484W        W50348   6.057  26.032  10.815
49485W        W50349   7.223  28.391  12.770
49486W        W50350   7.036  25.721  13.299
49487W        W50351   5.541  26.944  13.931
49488W        W50352   5.375  27.905  11.690
49489W        W50353   6.093  27.477  14.405
49490W        W50354   5.883  25.555  12.739
49491W        W50355   4.176  26.564  12.740
49492W        W50356   3.885  27.836  13.552
49493W        W50357   5.899  28.702  12.305
49494W        W50358   6.863  26.742  13.042
49495W        W50359   5.726  29.000  13.654
49496W        W50360   6.854  27.813  11.143
49497W        W50361   5.265  27.151  12.134
49498W        W50362   7.167  25.734  13.935
49499W        W50363   5.395  27.708  13.419
49500W        W50364   5.624  26.546  12.843
49501W        W50365   6.449  26.859  11.719
49502W        W50366   6.698  26.648  11.319
49503W        W50367   6.631  28.556  11.666
49504W        W50368   6.375  27.942  12.474
49505W        W50369   6.243  27.317  11.708
49506W        W50370   5.660  27.340  12.496
49507W        W50371   6.564  27.477  12.429
49508W        W50372   3.880  26.295  13.096
49509W        W50373   6.713  27.310  13.762
49510W        W50374   7.121  28.850  12.996
49511W        W50375   5.044  28.418  12.517
49512W        W50376   6.161  28.862  13.424
49513W        W50377   6.029  26.271  13.422
49514W        W50378   5.307   0.282  13.473
49515W        W50379   6.916  25.992  11.970
49516W        W50380   6.696  27.225  13.126
49517W        W50381   3.835  26.479  13.557
49518W        W50382   6.616  26.297  12.314
49519W        W50383   6.912  26.522  13.936
49520W        W50384   5.959  28.140  12.245
49521W        W50385   5.178  28.779  12.156
49522W        W50386   4.215  25.988  11.312
49523W        W50387   5.444  25.660  13.006
49524W        W50388   4.194   0.085  11.167
49525W        W50389   4.983  27.121  11.620
49526W        W50390   5.431  27.838  13.910
49527W        W50391   5.292  26.401  11.901
49528W        W50392   6.663  25.730  12.340
49529W        W50393   6.424  28.975  12.583
49530W        W50394   5.741  28.778  13.043
49531W        W50395   5.114  27.794  13.011
49532W        W50396   6.960  28.421  13.211
49533W        W50397   4.603  25.969  11.970
49534W        W50398   5.309  28.468  12.961
49535W        W50399   4.555  26.276  10.986
49536W        W50400   5.367  26.750  13.242
49537W        W50401   6.170  25.872  13.081
49538W        W50402   3.646  27.480  13.286
49539W        W50403   5.343  27.172  11.231
49540W        W50404   4.634  25.766  11.021
49541W        W50405   5.603  26.733  12.144
49542W        W50406   6.235  25.851  13.611
49543W        W50407   4.956  27.834  13.677
49544W        W50408   5.723  27.438  14.051
49545W        W50409   6.242  27.491  13.899
49546W        W50410   5.572  25.807  14.517
49547W        W50411   4.757  26.202  12.662
49548W        W50412   4.276  26.231  12.338
49549W        W50413   3.858  28.803  12.082
49550W        W50414   5.513  28.387  13.970
49551W        W50415   4.680  27.528  11.475
49552W        W50416   6.130  27.340  12.694
49553W        W50417   6.262  26.934  12.986
49554W        W50418   5.589  27.551  12.966
49555W        W50419   6.058  27.898  11.064
49556W        W50420   5.817  25.911  12.340
49557W        W50421   7.343  26.262  11.667
49558W        W50422   3.858  28.847  13.953
49559W        W50423   4.198  28.155  13.312
49560W        W50424   3.508  28.982  11.750
49561W        W50425   5.532  26.242  13.271
49562W        W50426   4.769  28.434  11.426
49563W        W50427   6.875  28.821  11.295
49564W        W50428   5.831  27.181  11.424
49565W        W50429   4.726  26.466  11.962
49566W        W50430   5.642  26.255  11.030
49567W        W50431   5.957  27.931  14.034
49568W        W50432   6.502  25.943  11.624
49569W        W50433   3.776  25.709  11.243
49570W        W50434   5.186  28.173  13.381
49571W        W50435   4.839  27.936  12.609
49572W        W50436   4.704  27.978  11.151
49573W        W50437   3.542  28.453  11.776
49574W        W50438   4.318  27.236  14.022
49575W        W50439   5.068  25.912  14.234
49576W        W50440   5.698  25.910  13.650
49577W        W50441   5.005  25.642  12.065
49578W        W50442   5.891  25.789  11.803
49579W        W50443   3.941  25.779  13.069
49580W        W50444   3.824  26.608  12.379
49581W        W50445   6.719  25.803  12.859
49582W        W50446   4.206  26.239  11.798
49583W        W50447   6.605  26.052  13.294
49584W        W50448   6.985  27.003  11.054
49585W        W50449   4.295  26.075  12.850
49586W        W50450   5.619  26.473  13.726
49587W        W50451   3.754  26.290  11.253
49588W        W50452   4.388  27.671  13.690
49589W        W50453   5.715  27.050  12.935
49590W        W50454   5.648   0.014  11.359
49591W        W50455   3.728  27.756  10.862
49592W        W50456   4.607  28.061  13.970
49593W        W50457   4.020  27.301  13.589
49594W        W50458   4.956  27.417  13.361
49595W        W50459   6.695  25.661  13.735
49596W        W50460   7.242  27.359  13.778
49597W        W50461   7.179  27.431  11.304
49598W        W50462   5.861  27.664  11.752
49599W        W50463   6.690   0.044  10.847
49600W        W50464   5.640  27.086  14.418
49601W        W50465   4.260  28.198  14.358
49602W        W50466   7.240  26.111  14.277
49603W        W50467   6.779  27.061  12.623
49604W        W50468   5.176  28.707  14.240
49605W        W50469   5.081  25.629  11.262
49606W        W50470   6.494  28.194  11.050
49607W        W50471   4.324  26.326  13.939
49608W        W50472   5.023  28.362  13.843
49609W        W50473   6.990  26.109  13.626
49610W        W50474   6.467   0.148  11.337
49611W        W50475   6.462  27.670  12.914
49612W        W50476   4.703  26.065  13.636
49613W        W50477   5.064  27.026  14.118
49614W        W50478   4.867  27.981  11.665
49615W        W50479   6.441  27.721  11.962
49616W        W50480   4.287  26.257  13.400
49617W        W50481   5.486  28.366  12.246
49618W        W50482   7.188  26.957  12.255
49619W        W50483   5.445  25.642  14.018
49620W        W50484   6.337  28.188  12.928
49621W        W50485   6.712  28.582  12.798
49622W        W50486   5.583  28.496  11.061
49623W        W50487   3.751  28.141  14.194
49624W        W50488   4.586  26.496  13.051
49625W        W50489   4.544  25.781  12.453
49626W        W50490   6.122  26.415  12.942
49627W        W50491   5.127  27.653  11.263
49628W        W50492   6.962  27.568  12.824
49629W        W50493   4.317  28.614  14.065
49630W        W50494   6.793   0.055  11.771
49631W        W50495   5.012  26.123  12.235
49632W        W50496   4.248  27.521  12.658
49633W        W50497   4.825   0.130  13.304
49634W        W50498   6.912   0.058  14.065
49635W        W50499   6.023  27.334  13.206
49636W        W50500   3.927  26.892  11.167
49637W        W50501   7.074  28.659  11.951
49638W        W50502   6.911  26.166  11.395
49639W        W50503   4.971  25.647  13.785
49640W        W50504   6.918  28.383  12.352
49641W        W50505   6.702  26.796  12.170
49642W        W50506   5.085  26.639  12.298
49643W        W50507   5.130  26.690  13.716
49644W        W50508   6.230  28.037  13.597
49645W        W50509   4.636  26.584  13.596
49646W        W50510   4.715  28.826  12.361
49647W        W50511   4.195   0.043  14.321
49648W        W50512   4.438  28.608  11.006
49649W        W50513   6.964  28.165  11.827
49650W        W50514   4.202  26.823  13.731
49651W        W50515   7.229  26.596  11.280
49652W        W50516   4.987  27.545  11.932
49653W        W50517   5.922  27.139  13.675
49654W        W50518   5.890  26.755  13.310
49655W        W50519   4.458  27.258  13.314
49656W        W50520   6.659  28.919  13.231
49657W        W50521   6.442  25.929  14.444
49658W        W50522   4.068  25.850  14.026
49659W        W50523   4.474  26.983  12.873
49660W        W50524   4.878  26.672  11.033
49661W        W50525   3.660  28.326  13.709
49662W        W50526   5.202  27.194  12.967
49663W        W50527   5.095  26.198  11.181
49664W        W50528   4.355  27.095  12.380
49665W        W50529   3.805   0.012  13.460
49666W        W50530   6.737  27.202  11.465
49667W        W50531   6.769  26.050  14.085
49668W        W50532   6.497  28.233  12.056
49669W        W50533   3.772  27.190  14.253
49670W        W50534   6.898  25.644  11.403
49671W        W50535   6.532  28.025  11.543
49672W        W50536   5.440  26.873  11.663
49673W        W50537   6.505  25.957  11.088
49674W        W50538   6.452  26.568  13.305
49675W        W50539   3.857  27.111  12.553
49676W        W50540   4.421  27.944  12.316
49677W        W50541   6.237  26.579  12.091
49678W        W50542   5.223  26.134  12.870
49679W        W50543   7.243  28.011  13.350
49680W        W50544   7.089  26.168  13.022
49681W        W50545   3.677  28.846  12.577
49682W        W50546   3.743  28.007  12.026
49683W        W50547   4.195  25.833  14.542
49684W        W50548   5.149  28.323  14.599
49685W        W50549   7.101  27.448  12.342
49686W        W50550   6.415  27.562  11.266
49687W        W50551   5.767   0.263  13.202
49688W        W50552   6.457  27.808  14.249
49689W        W50553   5.358  25.494  11.711
49690W        W50554   5.971  26.378  12.466
49691W        W50555   3.803  28.027  13.010
49692W        W50556   5.050  25.985  11.672
49693W        W50557   4.796  27.497  14.022
49694W        W50558   5.806  26.290  11.985
49695W        W50559   6.038  27.844  13.164
49696W        W50560   4.156  28.599  13.581
49697W        W50561   4.751  28.432  14.286
49698W        W50562   4.641  26.234  11.496
49699W        W50563   6.177  26.357  11.618
49700W        W50564   5.983  28.509  13.764
49701W        W50565   4.895  27.064  12.568
49702W        W50566   4.316   0.023  13.366
49703W        W50567   7.235  28.854  10.933
49704W        W50568   3.944  27.628  14.008
49705W        W50569   5.896  27.840  12.671
49706W        W50570   4.463  27.363  11.922
49707W        W50571   5.002  28.645  13.340
49708W        W50572   5.329  25.792  12.496
49709W        W50573   3.378  27.950  11.629
49710W        W50574   5.374  26.674  11.153
49711W        W50575   3.841  27.544  12.271
49712W        W50576   5.221  26.118  13.728
49713W        W50577   6.989  25.847  10.946
49714W        W50578   6.939  27.576  14.142
49715W        W50579   5.682  28.844  14.141
49716W        W50580   7.248  27.896  13.858
49717W        W50581   6.699  28.625  14.267
49718W        W50582   4.448   0.100  12.890
49719W        W50583   7.287  27.780  11.984
49720W        W50584   5.929  26.884  12.510
49721W        W50585   5.617  25.457  12.209
49722W        W50586   4.724  28.383  12.088
49723W        W50587   5.019  26.370  13.308
49724W        W50588   4.948  25.635  12.828
49725W        W50589   3.834  28.766  11.416
49726W        W50590   5.490  27.662  12.141
49727W        W50591   4.690  28.767  13.728
49728W        W50592   3.711  27.538  11.751
49729W        W50593   3.824  26.106  12.635
49730W        W50594   5.386  28.000  12.603
49731W        W50595   3.767  25.984  11.671
49732W        W50596   6.366  27.044  13.483
49733W        W50597   6.281  26.415  11.113
49734W        W50598   6.812  28.062  12.757
49735W        W50599   5.479  28.777  12.591
49736W        W50600   4.844  28.840  11.765
49737W        W50601   6.102  25.553  11.004
49738W        W50602   3.980  28.889  12.983
49739W        W50603   5.824  26.595  14.243
49740W        W50604   4.025  26.337  14.554
49741W        W50605   4.256  26.688  12.061
49742W        W50606   4.552  26.818  11.612
49743W        W50607   6.082  27.033  14.145
49744W        W50608   4.727  27.456  12.886
49745W        W50609   6.164  25.557  12.254
49746W        W50610   5.087   0.106  12.569
49747W        W50611   6.468  28.447  13.372
49748W        W50612   6.318  28.459  12.489
49749W        W50613   6.041  27.586  12.243
49750W        W50614   5.503  25.904  11.413
49751W        W50615   7.251  25.652  12.261
49752W        W50616   4.836  27.179  11.114
49753W        W50617   7.079  26.463  12.093
49754W        W50618   5.645  27.625  11.267
49755W        W50619   6.680  27.836  13.775
49756W        W50620   6.390  28.688  11.120
49757W        W50621   4.864  26.348  14.038
49758W        W50622   4.860  26.903  13.239
49759W        W50623   6.887  28.311  13.697
49760W        W50624   6.021  26.198  13.932
49761W        W50625   3.697  26.817  13.899
49762W        W50626   5.523  27.218  13.379
49763W        W50627   3.942  27.980  12.517
49764W        W50628   3.999  27.178  13.042
49765W        W50629   6.416  27.570  13.421
49766W        W50630   6.225  28.844  14.101
49767W        W50631   6.102  26.666  13.767
49768W        W50632   6.592  28.751  12.152
49769W        W50633   5.520  28.564  13.450
49770W        W50634   4.843  28.761  12.865
49771W        W50635   6.684  27.990  13.272
49772W        W50636   5.550  28.045  14.357
49773W        W50637   4.356  28.002  12.844
49774W        W50638   6.840  27.879  12.242
49775W        W50639   6.232  28.693  12.949
49776W        W50640   4.404  28.581  13.093
49777W        W50641   5.305  26.576  14.214
49778W        W50642   5.595  28.716  11.854
49779W        W50643   5.042  27.965  14.210
49780W        W50644   5.166  28.395  11.796
49781W        W50645   4.403  26.854  10.949
49782W        W50646   3.652   0.204  18.004
49783W        W50647   4.066  27.941  17.643
49784W        W50648   6.670  27.807  15.442
49785W        W50649   7.104  28.817  17.369
49786W        W50650   4.902  28.799  14.681
49787W        W50651   5.048  27.016  15.783
49788W        W50652   4.517  26.801  16.120
49789W        W50653   5.516  27.636  15.082
49790W        W50654   5.143  28.762  17.686
49791W        W50655   3.788  26.329  17.597
49792W        W50656   4.349  25.599  17.377
49793W        W50657   6.251  26.130  16.287
49794W        W50658   5.845  26.664  14.847
49795W        W50659   6.442  26.427  17.958
49796W        W50660   3.878  25.970  17.211
49797W        W50661   3.857  28.718  18.088
49798W        W50662   5.204  27.818  14.679
49799W        W50663   3.691  26.733  16.642
49800W        W50664   4.918  26.841  17.830
49801W        W50665   7.108  26.520  16.402
49802W        W50666   6.924  27.531  17.139
49803W        W50667   5.413  26.868  16.145
49804W        W50668   5.794  28.325  16.524
49805W        W50669   4.210  27.654  16.833
49806W        W50670   3.484  27.217  16.589
49807W        W50671   4.811  27.225  17.419
49808W        W50672   7.036  27.056  17.851
49809W        W50673   4.517  28.476  16.304
49810W        W50674   5.662  28.128  17.376
49811W        W50675   5.052  26.640  16.604
49812W        W50676   5.287  27.488  16.316
49813W        W50677   5.932  28.408  18.007
49814W        W50678   5.352  27.560  18.156
49815W        W50679   5.275  27.389  17.585
49816W        W50680   3.643  26.569  18.074
49817W        W50681   6.349  28.382  17.708
49818W        W50682   4.097  25.817  15.689
49819W        W50683   4.852  28.217  16.631
49820W        W50684   7.313  27.946  16.337
49821W        W50685   6.587  26.433  16.609
49822W        W50686   6.815  26.352  14.514
49823W        W50687   7.281  27.089  17.069
49824W        W50688   5.139  28.952  16.693
49825W        W50689   6.916  28.175  14.997
49826W        W50690   4.049   0.090  15.295
49827W        W50691   4.444  28.953  15.636
49828W        W50692   4.308  25.890  16.946
49829W        W50693   6.972  26.801  17.368
49830W        W50694   6.248  27.164  15.685
49831W        W50695   6.183  27.017  14.654
49832W        W50696   5.605  28.008  16.877
49833W        W50697   5.460  26.314  16.089
49834W        W50698   5.892  28.424  17.023
49835W        W50699   6.677  27.273  15.406
49836W        W50700   5.916  25.945  15.447
49837W        W50701   4.425  28.727  15.154
49838W        W50702   3.683  26.107  15.827
49839W        W50703   6.216  27.009  16.205
49840W        W50704   4.007  28.405  16.326
49841W        W50705   6.628  26.824  14.464
49842W        W50706   3.768  28.513  16.997
49843W        W50707   4.613  28.296  17.091
49844W        W50708   4.993  27.627  15.911
49845W        W50709   4.761  26.026  16.735
49846W        W50710   7.159  25.807  16.580
49847W        W50711   4.393  27.702  14.267
49848W        W50712   3.937  26.538  15.037
49849W        W50713   4.228  28.377  15.852
49850W        W50714   5.063  28.132  16.016
49851W        W50715   6.591  28.837  17.535
49852W        W50716   5.672  26.363  15.239
49853W        W50717   6.914  28.919  16.214
49854W        W50718   6.578  26.886  17.685
49855W        W50719   7.397  28.271  15.923
49856W        W50720   5.888  27.640  17.368
49857W        W50721   3.353  27.230  15.670
49858W        W50722   4.708  27.802  16.913
49859W        W50723   5.970  26.777  15.365
49860W        W50724   5.769  27.260  15.424
49861W        W50725   4.166  26.753  16.931
49862W        W50726   4.118  26.721  17.710
49863W        W50727   4.031  25.693  16.187
49864W        W50728   5.763  26.080  16.465
49865W        W50729   5.565  26.106  17.817
49866W        W50730   5.987  26.088  14.932
49867W        W50731   7.189  28.567  17.845
49868W        W50732   5.992  25.581  17.589
49869W        W50733   6.887  28.130  17.960
49870W        W50734   6.544  26.262  17.477
49871W        W50735   6.293  26.149  15.762
49872W        W50736   6.632  27.299  18.110
49873W        W50737   4.210  28.834  16.084
49874W        W50738   5.194  26.402  15.052
49875W        W50739   4.591  25.853  17.781
49876W        W50740   6.709  26.392  15.551
49877W        W50741   6.986  26.838  15.406
49878W        W50742   4.763  28.998  18.027
49879W        W50743   4.630  25.628  15.109
49880W        W50744   7.059  26.078  16.168
49881W        W50745   7.092  28.357  14.540
49882W        W50746   3.863  27.581  16.457
49883W        W50747   5.977  26.140  14.433
49884W        W50748   7.260  28.378  16.612
49885W        W50749   7.110  25.785  17.096
49886W        W50750   5.762  26.889  17.749
49887W        W50751   5.262  28.124  15.089
49888W        W50752   6.185  27.467  18.325
49889W        W50753   5.828  25.545  16.371
49890W        W50754   4.157  26.589  16.442
49891W        W50755   3.859  27.602  17.216
49892W        W50756   5.989  28.649  16.163
49893W        W50757   6.968  26.699  16.866
49894W        W50758   5.739   0.022  17.397
49895W        W50759   6.843  27.814  14.596
49896W        W50760   5.448  27.341  15.835
49897W        W50761   7.222  25.816  17.610
49898W        W50762   5.406  27.711  17.234
49899W        W50763   5.554  26.567  16.538
49900W        W50764   6.475  26.805  15.370
49901W        W50765   6.739  26.509  15.032
49902W        W50766   6.855  28.587  15.318
49903W        W50767   6.339  27.850  16.410
49904W        W50768   6.219  27.191  15.147
49905W        W50769   5.738  27.253  16.252
49906W        W50770   6.582  27.373  16.351
49907W        W50771   3.924  26.287  16.808
49908W        W50772   6.734  27.404  17.613
49909W        W50773   7.168  28.840  16.801
49910W        W50774   5.082  28.550  16.331
49911W        W50775   6.155  28.877  17.164
49912W        W50776   6.090  26.287  17.171
49913W        W50777   5.278   0.101  17.189
49914W        W50778   7.046  26.028  15.664
49915W        W50779   6.849  27.183  16.753
49916W        W50780   3.722  26.597  17.151
49917W        W50781   6.647  26.397  16.086
49918W        W50782   6.962  26.534  17.803
49919W        W50783   5.975  28.094  16.109
49920W        W50784   5.193  28.775  15.872
49921W        W50785   4.146  26.038  15.024
49922W        W50786   5.482  25.700  16.729
49923W        W50787   4.216   0.053  14.824
49924W        W50788   5.245  27.284  15.353
49925W        W50789   5.458  27.844  17.737
49926W        W50790   5.440  26.046  15.633
49927W        W50791   6.645  25.856  15.976
49928W        W50792   6.406  28.953  16.284
49929W        W50793   5.669  28.869  16.890
49930W        W50794   5.200  27.683  16.774
49931W        W50795   6.949  28.452  17.032
49932W        W50796   4.527  26.018  15.448
49933W        W50797   5.359  28.470  16.776
49934W        W50798   4.530  26.203  14.416
49935W        W50799   5.455  26.755  17.010
49936W        W50800   6.165  25.857  16.731
49937W        W50801   3.468  27.708  16.756
49938W        W50802   5.246  27.294  14.786
49939W        W50803   4.717  25.699  14.587
49940W        W50804   5.379  26.615  15.667
49941W        W50805   6.273  25.827  17.237
49942W        W50806   4.914  27.762  17.415
49943W        W50807   5.748  27.413  17.799
49944W        W50808   6.259  27.525  17.821
49945W        W50809   5.491  25.787  18.211
49946W        W50810   4.638  26.396  16.413
49947W        W50811   4.149  26.254  16.005
49948W        W50812   3.889  28.766  15.678
49949W        W50813   5.462  28.368  17.802
49950W        W50814   4.981  27.672  15.115
49951W        W50815   6.119  27.396  16.551
49952W        W50816   6.372  26.947  16.722
49953W        W50817   5.655  27.438  16.841
49954W        W50818   6.056  27.980  14.552
49955W        W50819   5.862  25.955  15.979
49956W        W50820   7.296  26.428  15.410
49957W        W50821   3.827  28.857  17.601
49958W        W50822   4.114  28.092  17.151
49959W        W50823   3.534  28.919  15.324
49960W        W50824   5.628  26.253  16.937
49961W        W50825   4.812  28.390  15.003
49962W        W50826   6.748  28.664  14.806
49963W        W50827   5.743  27.177  14.910
49964W        W50828   4.969  26.271  15.667
49965W        W50829   5.529  26.304  14.647
49966W        W50830   5.974  27.955  17.776
49967W        W50831   6.606  25.877  15.438
49968W        W50832   3.805  25.667  14.839
49969W        W50833   5.123  28.110  17.055
49970W        W50834   4.845  27.754  16.400
49971W        W50835   4.710  28.024  14.605
49972W        W50836   3.626  28.410  15.383
49973W        W50837   4.467  27.102  17.788
49974W        W50838   5.060  25.733  17.949
49975W        W50839   5.702  25.943  17.342
49976W        W50840   4.994  25.756  15.738
49977W        W50841   6.229  25.662  15.144
49978W        W50842   3.846  25.779  16.703
49979W        W50843   3.756  26.568  16.118
49980W        W50844   6.669  25.917  16.510
49981W        W50845   4.043  26.286  15.484
49982W        W50846   6.689  26.103  17.007
49983W        W50847   6.949  27.276  14.578
49984W        W50848   4.242  26.076  16.472
49985W        W50849   5.652  26.472  17.436
49986W        W50850   3.645  26.154  14.883
49987W        W50851   4.400  27.680  17.311
49988W        W50852   5.853  26.965  16.665
49989W        W50853   5.775  28.818  14.651
49990W        W50854   3.668  27.700  14.449
49991W        W50855   4.545  28.149  17.576
49992W        W50856   4.000  27.046  17.323
49993W        W50857   5.221  27.258  17.087
49994W        W50858   6.725  25.757  17.446
49995W        W50859   7.250  27.427  17.518
49996W        W50860   6.890  27.559  15.037
49997W        W50861   6.026  27.613  14.925
49998W        W50862   6.640   0.082  14.499
49999W        W50863   5.776  27.174  18.242
50000W        W50864   4.416  28.123  18.093
50001W        W50865   7.278  26.166  18.006
50002W        W50866   6.722  26.866  16.350
50003W        W50867   5.249  28.898  18.182
50004W        W50868   5.133  25.536  14.972
50005W        W50869   6.545  28.229  14.550
50006W        W50870   4.500  26.348  17.680
50007W        W50871   5.038  28.291  17.514
50008W        W50872   7.057  26.256  17.368
50009W        W50873   6.416   0.079  14.960
50010W        W50874   6.528  27.593  16.815
50011W        W50875   4.686  26.034  17.283
50012W        W50876   5.351  27.082  17.971
50013W        W50877   4.790  28.006  15.583
50014W        W50878   6.650  27.500  15.866
50015W        W50879   4.197  26.360  17.270
50016W        W50880   5.517  28.385  16.073
50017W        W50881   7.187  26.959  16.132
50018W        W50882   5.483  25.596  17.684
50019W        W50883   6.295  28.200  16.785
50020W        W50884   6.694  28.658  16.619
50021W        W50885   5.646  28.325  14.769
50022W        W50886   3.751  28.187  17.986
50023W        W50887   4.601  26.456  16.956
50024W        W50888   4.496  25.876  16.026
50025W        W50889   6.066  26.476  16.693
50026W        W50890   4.814  27.506  14.544
50027W        W50891   7.010  27.663  16.643
50028W        W50892   4.167  28.440  17.786
50029W        W50893   6.797   0.042  15.555
50030W        W50894   4.950  26.059  16.159
50031W        W50895   4.357  27.576  16.303
50032W        W50896   4.774   0.093  17.044
50033W        W50897   6.966   0.056  17.832
50034W        W50898   6.105  27.269  17.033
50035W        W50899   3.936  26.923  14.687
50036W        W50900   7.083  28.662  15.784
50037W        W50901   7.001  26.083  15.140
50038W        W50902   4.893  25.543  17.491
50039W        W50903   6.945  28.391  16.208
50040W        W50904   6.716  26.943  15.840
50041W        W50905   5.002  26.576  16.086
50042W        W50906   5.283  26.882  17.475
50043W        W50907   6.172  28.079  17.307
50044W        W50908   4.929  26.498  17.441
50045W        W50909   4.765  28.913  16.173
50046W        W50910   4.306  28.929  17.769
50047W        W50911   4.408  28.642  14.601
50048W        W50912   6.913  28.177  15.726
50049W        W50913   4.496  26.790  17.361
50050W        W50914   7.073  26.768  14.720
50051W        W50915   5.285  27.810  15.527
50052W        W50916   6.155  27.134  17.519
50053W        W50917   5.975  26.783  17.129
50054W        W50918   4.429  27.210  17.048
50055W        W50919   6.711  28.937  17.053
50056W        W50920   6.400  25.700  17.867
50057W        W50921   4.081  25.900  17.694
50058W        W50922   4.578  26.876  16.639
50059W        W50923   4.954  26.452  14.575
50060W        W50924   3.746  28.351  17.491
50061W        W50925   5.345  27.076  16.621
50062W        W50926   5.125  25.987  14.733
50063W        W50927   4.611  27.288  15.959
50064W        W50928   3.791   0.029  17.114
50065W        W50929   6.673  27.020  14.946
50066W        W50930   6.801  26.040  17.862
50067W        W50931   6.432  27.991  15.890
50068W        W50932   3.840  27.085  17.970
50069W        W50933   7.000  25.569  15.181
50070W        W50934   6.467  27.907  14.953
50071W        W50935   5.487  26.845  15.210
50072W        W50936   6.525  26.037  14.938
50073W        W50937   6.494  26.617  17.110
50074W        W50938   3.930  27.068  16.323
50075W        W50939   4.566  28.028  16.062
50076W        W50940   6.279  26.658  15.816
50077W        W50941   5.254  26.140  16.553
50078W        W50942   7.166  28.000  17.007
50079W        W50943   7.210  26.242  16.844
50080W        W50944   3.691  28.788  16.157
50081W        W50945   3.969  28.030  15.563
50082W        W50946   4.146  25.844  18.209
50083W        W50947   5.199  28.377  18.278
50084W        W50948   7.062  27.443  16.192
50085W        W50949   6.480  27.446  14.735
50086W        W50950   5.900   0.313  16.958
50087W        W50951   6.566  27.804  18.171
50088W        W50952   5.394  25.560  15.429
50089W        W50953   5.935  26.548  16.196
50090W        W50954   3.874  28.061  16.698
50091W        W50955   5.033  25.945  15.262
50092W        W50956   4.908  27.371  17.930
50093W        W50957   5.843  26.398  15.714
50094W        W50958   6.054  27.771  16.899
50095W        W50959   4.184  28.583  17.305
50096W        W50960   4.789  28.464  17.959
50097W        W50961   4.661  26.123  14.920
50098W        W50962   6.254  26.342  15.285
50099W        W50963   5.919  28.552  17.515
50100W        W50964   4.946  27.065  16.293
50101W        W50965   4.283  28.938  16.966
50102W        W50966   7.117  28.870  14.505
50103W        W50967   4.100  27.425  17.647
50104W        W50968   5.765  27.760  16.446
50105W        W50969   4.349  27.698  15.747
50106W        W50970   5.001  28.638  17.112
50107W        W50971   5.394  25.796  16.153
50108W        W50972   3.504  27.904  15.287
50109W        W50973   5.347  26.784  14.705
50110W        W50974   3.940  27.452  15.959
50111W        W50975   5.185  25.988  17.457
50112W        W50976   6.951  25.882  14.652
50113W        W50977   7.037  27.622  17.972
50114W        W50978   5.664  28.842  17.886
50115W        W50979   7.030  27.888  17.506
50116W        W50980   6.705  28.609  17.986
50117W        W50981   4.386   0.069  16.499
50118W        W50982   7.237  27.781  15.855
50119W        W50983   5.813  26.921  15.836
50120W        W50984   5.700  25.482  15.859
50121W        W50985   4.741  28.503  15.839
50122W        W50986   5.115  26.317  17.013
50123W        W50987   5.007  25.652  16.505
50124W        W50988   3.859  28.691  14.968
50125W        W50989   5.503  27.845  16.004
50126W        W50990   4.659  28.678  17.493
50127W        W50991   3.753  27.487  15.468
50128W        W50992   3.723  26.124  16.350
50129W        W50993   5.322  28.062  16.449
50130W        W50994   3.721  25.900  15.325
50131W        W50995   6.584  27.121  17.194
50132W        W50996   6.313  26.470  14.731
50133W        W50997   6.787  28.133  16.644
50134W        W50998   5.537  28.790  16.400
50135W        W50999   4.883  28.754  15.407
50136W        W51000   6.050  25.654  14.641
50137W        W51001   3.916  28.849  16.610
50138W        W51002   5.906  26.472  18.043
50139W        W51003   4.107  26.316  18.011
50140W        W51004   3.686  26.808  15.653
50141W        W51005   4.997  26.903  15.073
50142W        W51006   6.208  26.933  18.046
50143W        W51007   4.843  27.315  16.735
50144W        W51008   6.231  25.628  15.751
50145W        W51009   5.223   0.174  16.208
50146W        W51010   6.457  28.483  17.173
50147W        W51011   6.415  28.354  16.301
50148W        W51012   6.141  27.536  16.050
50149W        W51013   5.516  25.910  15.057
50150W        W51014   7.355  25.704  15.970
50151W        W51015   4.863  26.973  14.576
50152W        W51016   7.092  26.530  15.873
50153W        W51017   5.645  27.588  14.583
50154W        W51018   6.541  27.917  17.654
50155W        W51019   6.281  28.674  14.588
50156W        W51020   4.979  26.233  17.878
50157W        W51021   4.918  26.854  17.053
50158W        W51022   6.823  28.370  17.518
50159W        W51023   6.087  26.106  17.658
50160W        W51024   3.620  26.816  17.588
50161W        W51025   5.675  27.173  17.309
50162W        W51026   4.039  27.945  16.100
50163W        W51027   3.934  27.211  16.836
50164W        W51028   6.386  27.594  17.300
50165W        W51029   6.178  28.885  17.819
50166W        W51030   6.156  26.612  17.576
50167W        W51031   6.588  28.641  15.899
50168W        W51032   5.460  28.593  17.299
50169W        W51033   4.690  28.707  16.712
50170W        W51034   6.664  28.004  17.139
50171W        W51035   5.585  28.051  18.201
50172W        W51036   4.373  28.035  16.538
50173W        W51037   6.820  27.886  16.193
50174W        W51038   6.150  28.679  16.659
50175W        W51039   4.234  28.462  16.781
50176W        W51040   5.373  26.573  17.897
50177W        W51041   5.265  28.658  15.029
50178W        W51042   4.980  27.952  17.900
50179W        W51043   5.184  28.354  15.556
50180W        W51044   4.433  26.665  14.620
50181W        W51045   3.708   0.258  21.604
50182W        W51046   4.087  28.033  21.298
50183W        W51047   6.938  27.602  19.006
50184W        W51048   7.124  28.793  20.937
50185W        W51049   4.834  28.701  18.444
50186W        W51050   5.023  27.024  19.322
50187W        W51051   4.572  26.914  19.822
50188W        W51052   5.595  27.607  18.989
50189W        W51053   5.212  28.794  21.544
50190W        W51054   3.738  26.311  21.252
50191W        W51055   4.334  25.465  21.105
50192W        W51056   6.218  26.004  19.958
50193W        W51057   5.959  26.764  18.498
50194W        W51058   6.486  26.356  21.625
50195W        W51059   3.780  25.983  20.845
50196W        W51060   3.863  28.778  21.759
50197W        W51061   5.498  28.255  18.726
50198W        W51062   3.652  26.613  20.258
50199W        W51063   4.910  26.968  21.418
50200W        W51064   7.141  26.532  20.038
50201W        W51065   6.918  27.518  20.806
50202W        W51066   5.367  26.939  19.699
50203W        W51067   5.948  28.283  20.203
50204W        W51068   4.307  27.772  20.511
50205W        W51069   3.586  27.126  20.305
50206W        W51070   4.894  27.317  21.024
50207W        W51071   6.984  27.061  21.559
50208W        W51072   4.517  28.556  19.929
50209W        W51073   5.573  28.250  21.012
50210W        W51074   5.055  26.859  20.128
50211W        W51075   5.165  27.731  19.902
50212W        W51076   6.016  28.425  21.731
50213W        W51077   5.411  27.591  21.812
50214W        W51078   5.295  27.391  21.325
50215W        W51079   3.666  26.676  21.653
50216W        W51080   6.469  28.268  21.431
50217W        W51081   4.040  25.670  19.366
50218W        W51082   4.673  28.174  20.509
50219W        W51083   7.259  27.958  19.876
50220W        W51084   6.678  26.212  20.265
50221W        W51085   6.861  26.339  18.269
50222W        W51086   7.308  27.088  20.692
50223W        W51087   5.241  28.937  20.399
50224W        W51088   7.170  28.059  18.962
50225W        W51089   4.191   0.177  18.905
50226W        W51090   4.477  28.997  19.335
50227W        W51091   4.377  25.770  20.634
50228W        W51092   6.894  26.956  20.954
50229W        W51093   6.336  27.237  19.556
50230W        W51094   6.402  27.046  18.528
50231W        W51095   5.602  28.101  20.528
50232W        W51096   5.461  26.391  19.676
50233W        W51097   6.008  28.357  20.723
50234W        W51098   6.816  27.289  19.398
50235W        W51099   5.897  25.939  19.095
50236W        W51100   4.269  28.666  18.971
50237W        W51101   3.690  26.042  19.453
50238W        W51102   6.231  26.884  19.901
50239W        W51103   4.002  28.415  19.928
50240W        W51104   5.265  28.739  18.710
50241W        W51105   6.724  26.816  18.188
50242W        W51106   3.782  28.523  20.608
50243W        W51107   4.574  28.185  21.122
50244W        W51108   4.907  27.716  19.440
50245W        W51109   4.763  26.055  20.354
50246W        W51110   7.351  25.703  20.087
50247W        W51111   4.525  27.687  17.808
50248W        W51112   4.145  26.273  18.522
50249W        W51113   4.291  28.484  19.479
50250W        W51114   5.145  28.182  19.591
50251W        W51115   6.670  28.764  21.188
50252W        W51116   5.617  26.523  18.816
50253W        W51117   6.890  28.866  19.697
50254W        W51118   6.566  26.829  21.335
50255W        W51119   7.405  28.191  19.428
50256W        W51120   5.816  27.743  20.962
50257W        W51121   3.556  27.278  19.413
50258W        W51122   4.801  27.757  20.761
50259W        W51123   6.005  26.827  19.021
50260W        W51124   5.944  27.352  19.256
50261W        W51125   4.021  26.813  20.573
50262W        W51126   4.102  26.650  21.071
50263W        W51127   3.880  25.733  19.858
50264W        W51128   5.688  26.156  20.115
50265W        W51129   5.572  26.191  21.495
50266W        W51130   5.958  26.235  18.542
50267W        W51131   7.173  28.652  21.449
50268W        W51132   5.945  25.796  21.470
50269W        W51133   6.950  28.130  21.595
50270W        W51134   6.515  26.369  21.107
50271W        W51135   6.248  26.145  19.455
50272W        W51136   6.595  27.326  21.788
50273W        W51137   4.124  28.888  19.732
50274W        W51138   5.144  26.305  18.804
50275W        W51139   4.508  25.894  21.340
50276W        W51140   6.677  26.382  19.253
50277W        W51141   6.948  26.827  19.187
50278W        W51142   4.766  28.904  21.781
50279W        W51143   4.553  25.484  18.797
50280W        W51144   7.055  26.053  19.864
50281W        W51145   7.231  28.289  18.302
50282W        W51146   4.043  27.663  20.068
50283W        W51147   5.973  25.944  18.120
50284W        W51148   7.250  28.401  20.168
50285W        W51149   7.134  25.665  20.677
50286W        W51150   5.655  27.003  21.376
50287W        W51151   5.650  28.252  19.250
50288W        W51152   6.096  27.512  21.876
50289W        W51153   5.782  25.635  19.969
50290W        W51154   4.163  26.531  20.077
50291W        W51155   3.882  27.666  20.861
50292W        W51156   5.955  28.746  19.841
50293W        W51157   7.044  26.636  20.532
50294W        W51158   5.699  28.816  21.118
50295W        W51159   7.012  27.843  18.483
50296W        W51160   5.342  27.414  19.466
50297W        W51161   7.226  25.700  21.198
50298W        W51162   5.308  27.742  20.890
50299W        W51163   5.558  26.665  20.099
50300W        W51164   6.514  26.743  18.927
50301W        W51165   6.933  26.667  18.642
50302W        W51166   6.773  28.320  19.198
50303W        W51167   6.321  27.943  20.052
50304W        W51168   6.396  27.232  19.019
50305W        W51169   5.759  27.352  19.760
50306W        W51170   6.676  27.203  19.989
50307W        W51171   4.053  26.259  20.496
50308W        W51172   6.682  27.326  21.246
50309W        W51173   7.148  28.853  20.416
50310W        W51174   5.078  28.627  19.929
50311W        W51175   6.197  28.840  20.902
50312W        W51176   6.070  26.392  20.824
50313W        W51177   5.320   0.201  20.830
50314W        W51178   7.033  26.015  19.351
50315W        W51179   6.834  27.124  20.471
50316W        W51180   3.671  26.487  20.763
50317W        W51181   6.613  26.345  19.768
50318W        W51182   6.959  26.542  21.504
50319W        W51183   5.927  28.218  19.705
50320W        W51184   5.159  28.963  19.429
50321W        W51185   4.155  25.808  18.721
50322W        W51186   5.385  25.616  20.329
50323W        W51187   4.366  28.680  18.216
50324W        W51188   5.107  27.438  19.006
50325W        W51189   5.444  27.901  21.376
50326W        W51190   5.407  26.078  19.235
50327W        W51191   6.638  25.827  19.651
50328W        W51192   6.392  28.951  20.046
50329W        W51193   5.583  28.637  20.650
50330W        W51194   5.154  27.900  20.411
50331W        W51195   6.936  28.412  20.595
50332W        W51196   4.530  25.815  19.198
50333W        W51197   5.163  28.420  20.414
50334W        W51198   4.568  26.171  18.195
50335W        W51199   5.399  26.942  20.516
50336W        W51200   6.423  25.763  20.545
50337W        W51201   3.626  27.642  20.396
50338W        W51202   5.412  27.271  18.608
50339W        W51203   4.638  25.668  18.272
50340W        W51204   5.318  26.602  19.240
50341W        W51205   6.275  25.906  21.067
50342W        W51206   4.947  27.810  21.255
50343W        W51207   5.777  27.501  21.470
50344W        W51208   6.271  27.600  21.371
50345W        W51209   5.623  25.871  21.884
50346W        W51210   4.678  26.514  20.154
50347W        W51211   4.174  26.123  19.644
50348W        W51212   3.876  28.719  19.304
50349W        W51213   5.564  28.412  21.490
50350W        W51214   4.785  27.840  18.906
50351W        W51215   6.193  27.417  20.033
50352W        W51216   6.333  27.039  20.376
50353W        W51217   5.574  27.590  20.460
50354W        W51218   6.102  27.993  18.294
50355W        W51219   5.783  26.003  19.608
50356W        W51220   7.138  26.390  19.018
50357W        W51221   3.889  28.884  21.249
50358W        W51222   4.122  28.140  20.803
50359W        W51223   3.667   0.036  18.949
50360W        W51224   5.601  26.457  20.583
50361W        W51225   4.989  28.299  18.765
50362W        W51226   7.034  28.505  18.748
50363W        W51227   5.922  27.235  18.737
50364W        W51228   4.913  26.223  19.292
50365W        W51229   5.489  26.287  18.329
50366W        W51230   5.954  27.994  21.458
50367W        W51231   6.568  25.897  19.140
50368W        W51232   3.741  25.561  18.529
50369W        W51233   5.062  28.197  20.863
50370W        W51234   4.895  28.159  20.048
50371W        W51235   4.830  28.012  18.382
50372W        W51236   3.689  28.530  18.825
50373W        W51237   4.488  27.303  21.372
50374W        W51238   5.011  25.919  21.452
50375W        W51239   5.749  26.003  21.022
50376W        W51240   4.980  25.746  19.488
50377W        W51241   6.269  25.851  18.717
50378W        W51242   3.892  25.765  20.392
50379W        W51243   3.725  26.438  19.780
50380W        W51244   6.855  25.726  20.244
50381W        W51245   4.078  26.132  19.112
50382W        W51246   6.803  26.071  20.752
50383W        W51247   7.111  27.243  18.347
50384W        W51248   4.305  25.972  20.126
50385W        W51249   5.621  26.535  21.108
50386W        W51250   3.630  26.077  18.535
50387W        W51251   4.377  27.685  21.025
50388W        W51252   5.833  27.080  20.215
50389W        W51253   5.648   0.080  18.639
50390W        W51254   3.785  27.637  17.997
50391W        W51255   4.511  27.819  21.513
50392W        W51256   4.089  27.200  20.960
50393W        W51257   5.100  27.386  20.545
50394W        W51258   6.718  25.642  21.030
50395W        W51259   7.241  27.356  21.177
50396W        W51260   7.368  27.514  18.739
50397W        W51261   6.166  27.678  18.826
50398W        W51262   6.564   0.058  18.171
50399W        W51263   5.795  27.084  21.924
50400W        W51264   4.199  28.121  21.812
50401W        W51265   7.254  26.154  21.698
50402W        W51266   6.670  26.715  20.150
50403W        W51267   5.272  28.964  22.060
50404W        W51268   5.099  25.553  18.507
50405W        W51269   6.697  28.289  18.407
50406W        W51270   5.077  28.317  21.357
50407W        W51271   7.015  26.457  21.007
50408W        W51272   6.749  28.970  18.662
50409W        W51273   6.531  27.557  20.382
50410W        W51274   4.748  26.067  20.871
50411W        W51275   5.289  27.089  21.765
50412W        W51276   4.605  28.274  19.123
50413W        W51277   6.486  27.679  19.254
50414W        W51278   4.247  26.164  20.978
50415W        W51279   5.494  28.584  19.622
50416W        W51280   7.219  26.977  19.645
50417W        W51281   5.459  25.718  21.356
50418W        W51282   6.423  28.346  20.402
50419W        W51283   6.783  28.633  20.147
50420W        W51284   5.654  28.629  18.371
50421W        W51285   3.770  28.299  21.600
50422W        W51286   4.490  26.522  20.654
50423W        W51287   4.459  25.684  19.705
50424W        W51288   6.055  26.589  20.310
50425W        W51289   5.251  27.804  18.621
50426W        W51290   6.980  27.606  20.138
50427W        W51291   4.221  28.505  21.445
50428W        W51292   6.823   0.007  19.190
50429W        W51293   4.740  26.121  19.800
50430W        W51294   4.500  27.652  19.790
50431W        W51295   4.830   0.079  20.724
50432W        W51296   6.896   0.102  21.477
50433W        W51297   6.024  27.388  20.582
50434W        W51298   4.062  26.748  18.299
50435W        W51299   7.161  28.619  19.309
50436W        W51300   6.687  26.221  18.750
50437W        W51301   4.848  25.593  21.056
50438W        W51302   6.949  28.348  19.714
50439W        W51303   6.709  26.835  19.640
50440W        W51304   4.974  26.595  19.674
50441W        W51305   5.249  26.903  21.030
50442W        W51306   6.246  28.005  21.036
50443W        W51307   4.874  26.553  21.009
50444W        W51308   4.769   0.022  19.775
50445W        W51309   4.287  28.998  21.563
50446W        W51310   4.491  28.352  18.611
50447W        W51311   6.960  27.891  19.438
50448W        W51312   4.531  26.931  21.012
50449W        W51313   7.355  26.949  18.733
50450W        W51314   5.238  27.966  19.123
50451W        W51315   6.010  27.266  21.084
50452W        W51316   5.894  26.893  20.718
50453W        W51317   4.530  27.327  20.661
50454W        W51318   6.667  28.857  20.639
50455W        W51319   6.445  25.849  21.583
50456W        W51320   3.994  25.804  21.283
50457W        W51321   4.446  26.948  20.323
50458W        W51322   5.008  26.543  18.293
50459W        W51323   3.759  28.393  21.100
50460W        W51324   5.366  27.282  20.098
50461W        W51325   5.042  26.033  18.371
50462W        W51326   4.577  27.303  19.419
50463W        W51327   3.854   0.017  20.742
50464W        W51328   6.871  27.141  18.803
50465W        W51329   6.867  26.051  21.345
50466W        W51330   6.482  28.096  19.567
50467W        W51331   3.990  27.029  21.428
50468W        W51332   7.030  25.874  18.863
50469W        W51333   6.636  27.981  18.830
50470W        W51334   5.531  27.072  19.103
50471W        W51335   6.472  26.009  18.280
50472W        W51336   6.534  26.594  20.638
50473W        W51337   4.000  27.027  20.023
50474W        W51338   4.623  28.122  19.622
50475W        W51339   6.286  26.664  19.417
50476W        W51340   5.156  26.310  20.077
50477W        W51341   7.247  28.027  20.754
50478W        W51342   7.184  26.121  20.380
50479W        W51343   3.606  28.730  19.759
50480W        W51344   4.039  28.207  19.144
50481W        W51345   3.982  25.911  21.786
50482W        W51346   5.048  28.485  21.945
50483W        W51347   7.203  27.488  19.676
50484W        W51348   6.615  27.520  18.599
50485W        W51349   5.809   0.120  20.675
50486W        W51350   6.543  27.830  21.720
50487W        W51351   5.346  25.396  18.956
50488W        W51352   5.974  26.454  19.795
50489W        W51353   3.912  28.090  20.337
50490W        W51354   5.021  25.810  18.964
50491W        W51355   4.908  27.481  21.674
50492W        W51356   5.817  26.422  19.293
50493W        W51357   6.125  27.891  20.531
50494W        W51358   4.206  28.617  20.945
50495W        W51359   4.656  28.304  21.659
50496W        W51360   4.629  26.005  18.691
50497W        W51361   6.223  26.330  18.972
50498W        W51362   6.039  28.453  21.221
50499W        W51363   4.944  27.278  19.791
50500W        W51364   4.341  28.946  20.590
50501W        W51365   7.071  28.805  18.299
50502W        W51366   4.027  27.541  21.374
50503W        W51367   5.820  27.795  20.059
50504W        W51368   4.397  27.799  19.284
50505W        W51369   4.703  28.588  20.809
50506W        W51370   5.333  25.889  19.838
50507W        W51371   3.544  28.065  19.055
50508W        W51372   5.461  26.792  18.380
50509W        W51373   4.063  27.391  19.633
50510W        W51374   5.244  26.150  21.040
50511W        W51375   7.005  25.855  18.321
50512W        W51376   6.992  27.593  21.578
50513W        W51377   5.738  28.864  21.651
50514W        W51378   7.277  27.893  21.256
50515W        W51379   6.731  28.628  21.692
50516W        W51380   4.397   0.066  20.113
50517W        W51381   7.405  27.693  19.237
50518W        W51382   5.844  26.899  19.521
50519W        W51383   5.495  25.599  19.440
50520W        W51384   4.799  28.592  19.487
50521W        W51385   5.067  26.455  20.553
50522W        W51386   4.901  25.679  20.022
50523W        W51387   3.990  28.870  18.556
50524W        W51388   5.572  27.854  19.587
50525W        W51389   4.703  28.688  21.313
50526W        W51390   3.845  27.735  19.315
50527W        W51391   3.585  26.097  20.148
50528W        W51392   5.440  28.153  20.020
50529W        W51393   3.695  25.797  18.986
50530W        W51394   6.403  27.036  20.876
50531W        W51395   6.398  26.518  18.462
50532W        W51396   6.812  28.098  20.160
50533W        W51397   5.559  28.626  20.139
50534W        W51398   4.793  28.746  18.971
50535W        W51399   6.141  25.493  18.295
50536W        W51400   3.932  28.835  20.220
50537W        W51401   6.070  26.658  21.750
50538W        W51402   4.198  26.291  21.490
50539W        W51403   3.632  26.750  19.366
50540W        W51404   5.168  26.842  18.803
50541W        W51405   6.182  27.119  21.555
50542W        W51406   4.738  27.658  20.244
50543W        W51407   6.146  25.633  19.575
50544W        W51408   5.276   0.116  19.913
50545W        W51409   6.492  28.413  20.893
50546W        W51410   6.369  28.450  19.907
50547W        W51411   6.105  27.721  19.615
50548W        W51412   5.484  25.911  18.720
50549W        W51413   7.359  25.678  19.576
50550W        W51414   5.003  27.061  18.343
50551W        W51415   7.088  26.487  19.541
50552W        W51416   5.741  27.658  18.492
50553W        W51417   6.722  27.845  21.201
50554W        W51418   6.285  28.640  18.292
50555W        W51419   5.151  26.482  21.435
50556W        W51420   4.877  26.926  20.631
50557W        W51421   6.943  28.309  21.110
50558W        W51422   6.054  26.287  21.346
50559W        W51423   3.612  26.814  21.159
50560W        W51424   5.550  27.286  20.875
50561W        W51425   4.104  28.000  19.660
50562W        W51426   4.044  27.324  20.461
50563W        W51427   6.404  27.554  20.875
50564W        W51428   6.270  28.843  21.507
50565W        W51429   6.083  26.764  21.191
50566W        W51430   6.390  28.847  19.540
50567W        W51431   5.182  28.712  21.004
50568W        W51432   4.759  28.746  20.326
50569W        W51433   6.669  27.969  20.682
50570W        W51434   5.627  28.053  21.850
50571W        W51435   4.382  28.070  20.090
50572W        W51436   6.627  27.645  19.757
50573W        W51437   6.052  28.747  20.385
50574W        W51438   4.270  28.476  20.403
50575W        W51439   5.548  26.643  21.738
50576W        W51440   5.597  28.816  19.126
50577W        W51441   5.079  27.986  21.760
50578W        W51442   5.200  28.496  19.181
50579W        W51443   4.517  26.666  18.082
50580W        W51444   3.790   0.091  25.293
50581W        W51445   4.211  28.070  24.881
50582W        W51446   6.822  27.737  22.598
50583W        W51447   7.063  28.827  24.556
50584W        W51448   4.720  28.785  22.288
50585W        W51449   4.987  26.986  23.129
50586W        W51450   4.603  26.712  23.340
50587W        W51451   5.478  27.614  22.659
50588W        W51452   5.343  28.771  25.011
50589W        W51453   3.701  26.387  24.902
50590W        W51454   4.235  25.608  24.725
50591W        W51455   6.374  26.055  23.697
50592W        W51456   5.942  26.758  22.332
50593W        W51457   6.353  26.501  25.277
50594W        W51458   3.841  26.077  24.498
50595W        W51459   3.991  28.604  25.346
50596W        W51460   5.290  28.102  22.246
50597W        W51461   3.914  26.742  23.952
50598W        W51462   4.746  26.706  25.202
50599W        W51463   7.129  26.554  23.690
50600W        W51464   7.019  27.643  24.500
50601W        W51465   5.351  27.040  23.514
50602W        W51466   5.858  28.368  23.799
50603W        W51467   4.291  27.690  24.145
50604W        W51468   3.751  27.110  23.632
50605W        W51469   4.784  27.312  24.870
50606W        W51470   7.017  27.042  25.157
50607W        W51471   4.582  28.522  23.725
50608W        W51472   5.726  28.145  24.628
50609W        W51473   5.284  26.747  23.941
50610W        W51474   5.245  27.572  23.613
50611W        W51475   6.102  28.409  25.352
50612W        W51476   5.363  27.505  25.354
50613W        W51477   5.327  27.362  24.857
50614W        W51478   3.683  26.673  25.339
50615W        W51479   6.478  28.250  25.018
50616W        W51480   3.878  25.677  23.082
50617W        W51481   4.651  28.072  24.187
50618W        W51482   7.259  28.000  23.527
50619W        W51483   6.761  26.282  24.005
50620W        W51484   6.852  26.373  21.983
50621W        W51485   7.419  27.109  24.378
50622W        W51486   5.177  28.793  24.153
50623W        W51487   6.897  28.225  22.405
50624W        W51488   3.957   0.112  22.400
50625W        W51489   4.380   0.047  22.994
50626W        W51490   4.330  25.801  24.246
50627W        W51491   7.022  26.908  24.651
50628W        W51492   6.255  27.192  23.163
50629W        W51493   6.304  27.099  22.161
50630W        W51494   5.508  28.240  24.152
50631W        W51495   5.589  26.445  23.549
50632W        W51496   5.978  28.445  24.322
50633W        W51497   6.707  27.428  23.018
50634W        W51498   5.848  26.033  22.841
50635W        W51499   4.263  28.753  22.579
50636W        W51500   3.692  26.154  23.227
50637W        W51501   6.324  26.953  23.619
50638W        W51502   4.076  28.433  23.588
50639W        W51503   5.197  28.590  22.441
50640W        W51504   6.591  26.808  21.843
50641W        W51505   3.773  28.518  24.243
50642W        W51506   4.654  28.302  24.685
50643W        W51507   4.815  27.428  23.397
50644W        W51508   4.800  26.059  24.246
50645W        W51509   7.221  25.764  23.791
50646W        W51510   4.202  27.594  21.857
50647W        W51511   3.925  26.385  21.985
50648W        W51512   4.156  28.596  23.097
50649W        W51513   5.102  27.896  23.198
50650W        W51514   6.607  28.725  24.837
50651W        W51515   5.610  26.478  22.657
50652W        W51516   6.931   0.010  23.497
50653W        W51517   6.610  26.814  24.965
50654W        W51518   7.387  28.305  23.117
50655W        W51519   5.892  27.670  24.645
50656W        W51520   3.538  27.340  22.937
50657W        W51521   4.587  27.778  24.604
50658W        W51522   5.909  26.874  22.861
50659W        W51523   5.819  27.371  22.955
50660W        W51524   4.146  26.894  24.412
50661W        W51525   4.192  26.766  25.148
50662W        W51526   4.050  25.792  23.555
50663W        W51527   5.850  26.092  23.896
50664W        W51528   5.498  26.042  25.098
50665W        W51529   6.027  26.010  22.350
50666W        W51530   7.099  28.676  25.064
50667W        W51531   5.875  25.699  24.976
50668W        W51532   6.949  28.189  25.255
50669W        W51533   6.348  26.241  24.836
50670W        W51534   6.359  26.182  23.161
50671W        W51535   6.616  27.335  25.330
50672W        W51536   4.284  28.900  23.492
50673W        W51537   5.202  26.332  22.365
50674W        W51538   4.599  25.828  25.079
50675W        W51539   6.641  26.461  22.787
50676W        W51540   6.889  26.902  22.800
50677W        W51541   4.838  28.843  25.175
50678W        W51542   4.450  25.750  22.426
50679W        W51543   6.925  26.104  23.539
50680W        W51544   7.139  28.397  21.984
50681W        W51545   3.847  27.610  23.754
50682W        W51546   6.062  26.144  21.839
50683W        W51547   7.225  28.450  23.796
50684W        W51548   7.249  25.773  24.321
50685W        W51549   5.669  26.958  24.899
50686W        W51550   5.491  28.122  22.746
50687W        W51551   6.161  27.527  25.483
50688W        W51552   5.839  25.587  23.756
50689W        W51553   4.331  26.521  23.731
50690W        W51554   4.098  27.620  24.630
50691W        W51555   5.782  28.696  23.357
50692W        W51556   7.028  26.710  24.176
50693W        W51557   5.800  28.957  24.827
50694W        W51558   6.945  27.820  22.068
50695W        W51559   5.303  27.397  23.110
50696W        W51560   7.323  25.768  24.854
50697W        W51561   5.414  27.767  24.481
50698W        W51562   5.788  26.600  23.990
50699W        W51563   6.370  26.917  22.669
50700W        W51564   6.717  26.727  22.341
50701W        W51565   6.616  28.550  22.708
50702W        W51566   6.360  28.005  23.547
50703W        W51567   6.294  27.440  22.697
50704W        W51568   5.698  27.406  23.454
50705W        W51569   6.604  27.430  23.537
50706W        W51570   4.145  26.306  24.165
50707W        W51571   6.753  27.322  24.827
50708W        W51572   7.078  28.889  23.992
50709W        W51573   4.988  28.349  23.439
50710W        W51574   6.212  28.897  24.515
50711W        W51575   6.160  26.399  24.351
50712W        W51576   5.375   0.124  24.548
50713W        W51577   6.855  26.064  23.014
50714W        W51578   6.930  27.213  24.248
50715W        W51579   3.723  26.569  24.400
50716W        W51580   6.622  26.527  23.551
50717W        W51581   7.070  26.545  25.012
50718W        W51582   5.972  28.192  23.243
50719W        W51583   5.203  28.774  23.210
50720W        W51584   3.986  25.982  22.302
50721W        W51585   5.349  25.681  24.014
50722W        W51586   4.333  28.613  21.960
50723W        W51587   5.036  27.343  22.651
50724W        W51588   5.515  27.854  24.996
50725W        W51589   5.428  26.197  23.122
50726W        W51590   6.605  25.754  23.351
50727W        W51591   6.420   0.017  23.619
50728W        W51592   5.688  28.789  24.083
50729W        W51593   5.112  27.824  24.068
50730W        W51594   6.933  28.455  24.217
50731W        W51595   4.657  25.948  22.918
50732W        W51596   5.029  28.332  23.948
50733W        W51597   4.705  26.280  21.663
50734W        W51598   5.525  26.771  24.423
50735W        W51599   6.214  25.752  24.098
50736W        W51600   3.764  27.596  24.253
50737W        W51601   5.436  27.311  22.237
50738W        W51602   4.484  25.833  21.863
50739W        W51603   5.441  26.728  23.091
50740W        W51604   6.041  25.924  24.547
50741W        W51605   5.032  27.787  24.856
50742W        W51606   5.817  27.438  25.100
50743W        W51607   6.315  27.577  24.978
50744W        W51608   5.598  25.722  25.484
50745W        W51609   4.825  26.459  23.890
50746W        W51610   4.223  26.206  23.311
50747W        W51611   3.865  28.975  22.893
50748W        W51612   5.643  28.360  25.082
50749W        W51613   4.504  27.908  22.655
50750W        W51614   6.124  27.423  23.704
50751W        W51615   6.470  27.234  24.032
50752W        W51616   5.591  27.621  24.000
50753W        W51617   6.139  28.006  22.001
50754W        W51618   5.928  25.990  23.380
50755W        W51619   7.229  26.336  22.743
50756W        W51620   3.909  28.835  24.872
50757W        W51621   4.033  28.064  24.397
50758W        W51622   3.487  28.870  22.529
50759W        W51623   5.636  26.266  24.354
50760W        W51624   4.793  28.268  22.370
50761W        W51625   6.786  28.699  22.241
50762W        W51626   5.896  27.259  22.444
50763W        W51627   4.976  26.410  22.991
50764W        W51628   5.682  26.342  22.133
50765W        W51629   6.024  27.990  25.049
50766W        W51630   6.439  25.982  22.672
50767W        W51631   3.608  25.634  22.213
50768W        W51632   5.102  28.194  24.461
50769W        W51633   4.823  27.898  23.647
50770W        W51634   4.627  27.916  22.023
50771W        W51635   3.781  28.484  22.737
50772W        W51636   4.507  27.158  25.277
50773W        W51637   5.105  25.801  25.353
50774W        W51638   5.518  25.847  24.618
50775W        W51639   5.044  25.814  23.254
50776W        W51640   5.849  25.572  22.634
50777W        W51641   3.866  25.854  24.041
50778W        W51642   3.935  26.658  23.409
50779W        W51643   6.725  25.761  23.945
50780W        W51644   4.146  26.006  22.807
50781W        W51645   6.543  26.012  24.402
50782W        W51646   6.985  27.078  22.062
50783W        W51647   4.445  26.027  23.805
50784W        W51648   5.348  26.435  24.806
50785W        W51649   3.476  26.131  22.228
50786W        W51650   4.408  27.618  25.063
50787W        W51651   5.725  27.113  23.898
50788W        W51652   5.761   0.030  22.265
50789W        W51653   3.746  27.814  21.718
50790W        W51654   4.687  28.037  25.130
50791W        W51655   4.205  27.190  24.851
50792W        W51656   4.996  27.467  24.432
50793W        W51657   6.865  25.711  24.657
50794W        W51658   7.276  27.368  24.835
50795W        W51659   7.187  27.425  22.381
50796W        W51660   5.954  27.838  22.749
50797W        W51661   6.607   0.073  21.895
50798W        W51662   5.719  27.085  25.471
50799W        W51663   4.228  28.024  25.394
50800W        W51664   7.253  26.075  25.280
50801W        W51665   6.837  26.985  23.771
50802W        W51666   5.283  28.911  25.500
50803W        W51667   5.061  25.753  22.261
50804W        W51668   6.602  28.248  21.995
50805W        W51669   4.429  26.311  25.105
50806W        W51670   5.126  28.297  24.976
50807W        W51671   7.129  26.200  24.615
50808W        W51672   6.333   0.103  22.355
50809W        W51673   6.415  27.746  23.986
50810W        W51674   4.464  26.079  24.643
50811W        W51675   5.044  27.109  25.298
50812W        W51676   4.551  28.406  22.813
50813W        W51677   6.456  27.864  22.925
50814W        W51678   4.159  26.480  24.696
50815W        W51679   5.459  28.307  23.239
50816W        W51680   7.225  26.999  23.385
50817W        W51681   5.368  25.543  25.008
50818W        W51682   6.346  28.260  23.991
50819W        W51683   6.691  28.615  23.790
50820W        W51684   5.565  28.539  22.023
50821W        W51685   3.779  28.155  25.186
50822W        W51686   4.571  26.521  24.348
50823W        W51687   4.524  25.726  23.369
50824W        W51688   6.481  26.707  24.055
50825W        W51689   5.046  27.642  22.189
50826W        W51690   6.922  27.609  23.919
50827W        W51691   4.440  28.487  25.126
50828W        W51692   6.753   0.069  22.794
50829W        W51693   4.730  26.213  23.406
50830W        W51694   4.349  27.534  23.635
50831W        W51695   4.779   0.081  24.350
50832W        W51696   6.778   0.071  25.162
50833W        W51697   6.036  27.439  24.209
50834W        W51698   3.699  27.301  21.745
50835W        W51699   7.048  28.677  22.970
50836W        W51700   6.871  26.136  22.439
50837W        W51701   4.743  25.638  24.605
50838W        W51702   6.933  28.400  23.382
50839W        W51703   6.722  26.982  23.276
50840W        W51704   5.103  26.575  23.468
50841W        W51705   5.098  26.885  24.816
50842W        W51706   6.263  28.022  24.591
50843W        W51707   4.830  26.415  24.785
50844W        W51708   4.963  28.859  23.669
50845W        W51709   4.306  28.992  25.175
50846W        W51710   4.242  28.272  22.374
50847W        W51711   6.928  28.166  22.904
50848W        W51712   4.565  26.854  24.739
50849W        W51713   7.226  26.749  22.404
50850W        W51714   5.030  27.892  22.667
50851W        W51715   6.094  27.214  24.700
50852W        W51716   6.045  26.924  24.283
50853W        W51717   4.494  27.287  24.418
50854W        W51718   6.637  28.923  24.232
50855W        W51719   6.417  25.739  24.932
50856W        W51720   4.041  26.010  24.962
50857W        W51721   4.493  26.920  24.034
50858W        W51722   5.045  26.632  21.923
50859W        W51723   3.700  28.358  24.719
50860W        W51724   5.229  27.252  24.018
50861W        W51725   5.194  26.140  21.879
50862W        W51726   4.432  27.201  23.145
50863W        W51727   3.811   0.029  24.405
50864W        W51728   6.713  27.247  22.467
50865W        W51729   6.812  26.096  25.003
50866W        W51730   6.488  28.302  23.148
50867W        W51731   3.881  27.181  25.248
50868W        W51732   6.809  25.637  22.368
50869W        W51733   6.404  28.082  22.462
50870W        W51734   5.479  27.083  22.700
50871W        W51735   6.476  25.968  22.118
50872W        W51736   6.691  26.502  24.532
50873W        W51737   4.260  27.025  23.594
50874W        W51738   4.480  28.224  23.305
50875W        W51739   6.324  26.689  23.142
50876W        W51740   5.323  26.233  23.945
50877W        W51741   7.253  28.092  24.395
50878W        W51742   7.264  26.245  24.118
50879W        W51743   3.783  28.830  23.394
50880W        W51744   4.105  28.120  22.926
50881W        W51745   4.209  25.917  25.427
50882W        W51746   5.390  28.412  25.533
50883W        W51747   7.122  27.495  23.433
50884W        W51748   6.469  27.628  22.213
50885W        W51749   5.853   0.223  24.339
50886W        W51750   6.571  27.852  25.359
50887W        W51751   5.330  25.489  22.635
50888W        W51752   6.106  26.476  23.590
50889W        W51753   3.850  28.093  23.922
50890W        W51754   5.148  25.959  22.755
50891W        W51755   4.841  27.576  25.331
50892W        W51756   5.880  26.444  23.128
50893W        W51757   5.953  27.951  24.172
50894W        W51758   4.186  28.505  24.599
50895W        W51759   4.876  28.407  25.435
50896W        W51760   4.748  26.154  22.177
50897W        W51761   6.144  26.427  22.677
50898W        W51762   6.076  28.501  24.827
50899W        W51763   4.871  26.994  23.698
50900W        W51764   4.286  28.897  24.285
50901W        W51765   7.122  28.904  21.920
50902W        W51766   3.912  27.675  25.108
50903W        W51767   5.865  27.874  23.650
50904W        W51768   4.429  27.732  23.160
50905W        W51769   5.011  28.696  24.639
50906W        W51770   5.454  25.916  23.562
50907W        W51771   3.790  28.142  22.118
50908W        W51772   5.438  26.797  22.235
50909W        W51773   3.968  27.431  23.283
50910W        W51774   5.059  25.959  24.841
50911W        W51775   6.911  25.856  21.895
50912W        W51776   7.061  27.596  25.252
50913W        W51777   5.755  28.800  25.337
50914W        W51778   7.252  27.952  24.909
50915W        W51779   6.645  28.607  25.347
50916W        W51780   4.549   0.070  23.886
50917W        W51781   7.266  27.801  23.026
50918W        W51782   5.853  26.905  23.391
50919W        W51783   5.535  25.686  23.089
50920W        W51784   4.682  28.700  23.231
50921W        W51785   5.105  26.469  24.350
50922W        W51786   4.956  25.925  23.759
50923W        W51787   3.859  28.630  22.247
50924W        W51788   5.613  27.817  23.163
50925W        W51789   4.536  28.849  24.742
50926W        W51790   4.041  27.624  22.811
50927W        W51791   3.865  26.253  23.716
50928W        W51792   5.380  28.058  23.677
50929W        W51793   3.599  25.943  22.706
50930W        W51794   6.519  26.998  24.491
50931W        W51795   6.325  26.454  22.165
50932W        W51796   6.816  28.105  23.810
50933W        W51797   5.400  28.594  23.691
50934W        W51798   4.858  28.891  22.781
50935W        W51799   6.070  25.644  21.960
50936W        W51800   3.960  28.843  23.889
50937W        W51801   5.861  26.622  25.260
50938W        W51802   4.147  26.432  25.531
50939W        W51803   3.682  26.801  22.975
50940W        W51804   5.094  26.769  22.636
50941W        W51805   6.189  27.051  25.206
50942W        W51806   4.742  27.443  23.962
50943W        W51807   6.204  25.683  23.026
50944W        W51808   5.376   0.150  23.527
50945W        W51809   6.475  28.460  24.438
50946W        W51810   6.253  28.538  23.530
50947W        W51811   6.114  27.674  23.244
50948W        W51812   5.529  25.931  22.413
50949W        W51813   7.123  25.683  23.259
50950W        W51814   4.985  27.082  22.193
50951W        W51815   6.999  26.545  23.183
50952W        W51816   5.756  27.723  22.232
50953W        W51817   6.739  27.844  24.865
50954W        W51818   6.310  28.686  22.041
50955W        W51819   5.059  26.299  25.248
50956W        W51820   4.918  26.954  24.324
50957W        W51821   6.911  28.318  24.723
50958W        W51822   5.839  26.309  24.822
50959W        W51823   3.799  26.876  24.817
50960W        W51824   5.599  27.277  24.419
50961W        W51825   4.017  27.946  23.406
50962W        W51826   4.079  27.238  24.032
50963W        W51827   6.475  27.548  24.467
50964W        W51828   6.239  28.896  25.160
50965W        W51829   6.141  26.716  24.781
50966W        W51830   6.582  28.794  23.192
50967W        W51831   5.516  28.605  24.545
50968W        W51832   4.697  28.587  24.247
50969W        W51833   6.710  28.006  24.324
50970W        W51834   5.715  27.997  25.453
50971W        W51835   4.351  28.035  23.772
50972W        W51836   6.801  27.878  23.315
50973W        W51837   6.203  28.758  24.000
50974W        W51838   4.241  28.419  24.086
50975W        W51839   5.363  26.714  25.262
50976W        W51840   5.540  28.629  22.843
50977W        W51841   5.165  27.976  25.388
50978W        W51842   5.055  28.375  22.906
50979W        W51843   4.420  26.775  21.505
50980W        W51844   3.849   0.150  28.863
50981W        W51845   4.202  28.068  28.537
50982W        W51846   6.869  27.642  26.289
50983W        W51847   7.101  28.744  28.196
50984W        W51848   4.813  28.837  25.717
50985W        W51849   4.946  26.936  26.582
50986W        W51850   4.404  26.967  26.876
50987W        W51851   5.457  27.513  26.186
50988W        W51852   5.270  28.739  28.475
50989W        W51853   3.919  26.403  28.495
50990W        W51854   4.434  25.657  28.294
50991W        W51855   6.295  26.021  27.278
50992W        W51856   6.031  26.682  25.889
50993W        W51857   6.529  26.233  28.847
50994W        W51858   3.900  26.043  28.109
50995W        W51859   3.887  28.620  28.817
50996W        W51860   5.484  27.985  25.909
50997W        W51861   3.788  26.755  27.504
50998W        W51862   4.640  26.833  28.736
50999W        W51863   7.099  26.478  27.324
51000W        W51864   6.974  27.612  28.130
51001W        W51865   5.386  27.012  27.180
51002W        W51866   5.922  28.368  27.514
51003W        W51867   4.235  27.693  27.770
51004W        W51868   3.555  27.231  27.457
51005W        W51869   4.753  27.168  28.353
51006W        W51870   7.005  26.994  28.780
51007W        W51871   4.514  28.396  27.147
51008W        W51872   5.803  28.070  28.230
51009W        W51873   5.088  26.663  27.446
51010W        W51874   5.156  27.590  27.142
51011W        W51875   5.964  28.399  28.997
51012W        W51876   5.194  27.527  28.944
51013W        W51877   5.339  27.396  28.466
51014W        W51878   3.675  26.635  28.981
51015W        W51879   6.448  28.221  28.799
51016W        W51880   4.166  25.831  26.767
51017W        W51881   4.633  28.198  27.681
51018W        W51882   7.250  28.018  27.098
51019W        W51883   6.558  26.322  27.648
51020W        W51884   6.853  26.388  25.448
51021W        W51885   7.280  27.091  27.940
51022W        W51886   5.180  28.960  27.644
51023W        W51887   7.059  28.157  26.213
51024W        W51888   4.133   0.003  26.169
51025W        W51889   4.451  28.816  26.539
51026W        W51890   4.517  25.896  27.827
51027W        W51891   7.047  26.812  28.293
51028W        W51892   6.237  27.248  26.828
51029W        W51893   6.319  27.126  25.792
51030W        W51894   5.582  28.073  27.748
51031W        W51895   5.341  26.404  27.049
51032W        W51896   6.029  28.470  28.002
51033W        W51897   6.743  27.292  26.702
51034W        W51898   5.871  25.946  26.467
51035W        W51899   4.220  28.476  26.198
51036W        W51900   3.789  26.177  26.724
51037W        W51901   6.293  26.929  27.217
51038W        W51902   3.976  28.311  27.130
51039W        W51903   5.245  28.683  25.979
51040W        W51904   6.652  26.857  25.496
51041W        W51905   3.745  28.550  27.838
51042W        W51906   4.631  28.183  28.253
51043W        W51907   4.838  27.539  26.676
51044W        W51908   5.057  25.965  27.881
51045W        W51909   7.277  25.692  27.401
51046W        W51910   4.345  27.541  25.587
51047W        W51911   4.239  26.575  26.035
51048W        W51912   4.241  28.332  26.696
51049W        W51913   5.087  28.012  26.786
51050W        W51914   6.664  28.654  28.599
51051W        W51915   5.644  26.375  26.200
51052W        W51916   6.879  28.950  26.962
51053W        W51917   6.586  26.820  28.494
51054W        W51918   7.390  28.236  26.655
51055W        W51919   5.903  27.574  28.299
51056W        W51920   3.665  26.971  26.622
51057W        W51921   4.723  27.767  27.934
51058W        W51922   5.879  26.802  26.383
51059W        W51923   5.795  27.289  26.538
51060W        W51924   4.337  26.780  27.797
51061W        W51925   4.147  26.743  28.829
51062W        W51926   3.907  25.609  27.154
51063W        W51927   5.909  26.153  27.585
51064W        W51928   5.620  26.183  28.736
51065W        W51929   5.976  26.160  25.808
51066W        W51930   7.151  28.539  28.763
51067W        W51931   5.984  25.694  28.628
51068W        W51932   6.975  28.070  28.917
51069W        W51933   6.599  26.329  28.330
51070W        W51934   6.248  26.155  26.768
51071W        W51935   6.629  27.253   0.045
51072W        W51936   4.179  28.781  26.984
51073W        W51937   5.133  26.495  26.341
51074W        W51938   4.592  25.928  28.767
51075W        W51939   6.657  26.395  26.551
51076W        W51940   6.922  26.837  26.454
51077W        W51941   4.758  28.995  29.000
51078W        W51942   4.637  25.672  26.105
51079W        W51943   7.076  26.038  27.042
51080W        W51944   7.188  28.381  25.751
51081W        W51945   3.946  27.586  27.313
51082W        W51946   5.984  26.117  25.279
51083W        W51947   7.255  28.464  27.361
51084W        W51948   7.202  25.660  27.932
51085W        W51949   5.470  26.638  28.961
51086W        W51950   5.511  27.994  26.424
51087W        W51951   6.130  27.468   0.158
51088W        W51952   5.953  25.653  27.452
51089W        W51953   4.283  26.640  27.291
51090W        W51954   3.931  27.799  28.190
51091W        W51955   5.917  28.682  26.845
51092W        W51956   7.027  26.597  27.831
51093W        W51957   5.754  28.828  28.290
51094W        W51958   7.035  27.869  25.709
51095W        W51959   5.308  27.302  26.715
51096W        W51960   7.296  25.594  28.439
51097W        W51961   5.401  27.765  28.107
51098W        W51962   5.671  26.607  27.381
51099W        W51963   6.476  26.736  26.187
51100W        W51964   6.902  26.682  25.904
51101W        W51965   6.687  28.436  26.458
51102W        W51966   6.287  28.003  27.324
51103W        W51967   6.270  27.179  26.320
51104W        W51968   5.749  27.368  27.063
51105W        W51969   6.706  27.255  27.252
51106W        W51970   4.070  26.343  27.661
51107W        W51971   6.723  27.319  28.501
51108W        W51972   7.180  28.891  27.654
51109W        W51973   5.056  28.486  27.111
51110W        W51974   6.245  28.928  28.159
51111W        W51975   6.176  26.281  28.019
51112W        W51976   5.404   0.141  28.070
51113W        W51977   7.041  26.045  26.533
51114W        W51978   6.761  27.154  28.010
51115W        W51979   3.866  26.617  28.026
51116W        W51980   6.642  26.346  27.093
51117W        W51981   6.968  26.481  28.685
51118W        W51982   5.884  28.202  27.037
51119W        W51983   5.132  28.775  26.679
51120W        W51984   4.292  26.036  25.909
51121W        W51985   5.441  25.702  27.570
51122W        W51986   4.309  28.950  25.689
51123W        W51987   4.982  27.315  26.215
51124W        W51988   5.469  27.883  28.607
51125W        W51989   5.401  26.097  26.614
51126W        W51990   6.623  25.837  26.920
51127W        W51991   6.422   0.039  27.239
51128W        W51992   5.657  28.765  27.743
51129W        W51993   5.150  27.776  27.632
51130W        W51994   6.957  28.438  27.798
51131W        W51995   4.585  26.002  26.492
51132W        W51996   5.235  28.447  27.608
51133W        W51997   4.640  26.301  25.565
51134W        W51998   5.426  26.916  27.725
51135W        W51999   6.343  25.846  27.753
51136W        W52000   3.726  27.569  27.799
51137W        W52001   5.297  27.187  25.774
51138W        W52002   4.671  25.788  25.606
51139W        W52003   5.421  26.770  26.703
51140W        W52004   6.368  25.845  28.270
51141W        W52005   4.965  27.762  28.392
51142W        W52006   5.758  27.496  28.795
51143W        W52007   6.283  27.549  28.644
51144W        W52008   5.621  25.785   0.048
51145W        W52009   4.912  26.200  27.312
51146W        W52010   4.317  26.316  26.878
51147W        W52011   3.901  28.698  26.542
51148W        W52012   5.623  28.382  28.609
51149W        W52013   4.603  27.628  26.049
51150W        W52014   6.205  27.446  27.306
51151W        W52015   6.351  27.130  27.699
51152W        W52016   5.505  27.422  27.528
51153W        W52017   6.200  28.011  25.690
51154W        W52018   5.760  26.053  27.090
51155W        W52019   7.241  26.465  26.281
51156W        W52020   3.881  28.921  28.378
51157W        W52021   4.189  28.192  27.983
51158W        W52022   3.602  28.901  26.173
51159W        W52023   5.696  26.490  27.901
51160W        W52024   5.034  28.205  25.884
51161W        W52025   6.812  28.691  25.995
51162W        W52026   5.819  27.147  26.004
51163W        W52027   4.601  26.556  26.517
51164W        W52028   5.538  26.279  25.545
51165W        W52029   5.995  27.973  28.699
51166W        W52030   6.535  25.906  26.403
51167W        W52031   3.811  25.744  25.795
51168W        W52032   5.069  28.143  27.988
51169W        W52033   4.876  28.027  27.265
51170W        W52034   4.671  27.954  25.643
51171W        W52035   3.662  28.382  26.193
51172W        W52036   4.292  27.213  28.619
51173W        W52037   5.134  25.914  28.861
51174W        W52038   5.731  26.063  28.221
51175W        W52039   5.011  25.707  26.687
51176W        W52040   6.434  25.903  25.887
51177W        W52041   4.017  25.821  27.646
51178W        W52042   3.863  26.603  26.999
51179W        W52043   6.799  25.920  27.447
51180W        W52044   4.142  26.206  26.369
51181W        W52045   6.796  25.988  27.988
51182W        W52046   7.028  27.208  25.640
51183W        W52047   4.417  26.130  27.373
51184W        W52048   5.575  26.576  28.401
51185W        W52049   3.811  26.265  25.869
51186W        W52050   4.416  27.641  28.320
51187W        W52051   5.869  27.069  27.468
51188W        W52052   5.649   0.045  25.985
51189W        W52053   3.811  27.572  25.612
51190W        W52054   4.692  28.049  28.748
51191W        W52055   4.077  27.279  28.147
51192W        W52056   5.061  27.382  27.997
51193W        W52057   6.786  25.531  28.282
51194W        W52058   7.273  27.312  28.435
51195W        W52059   7.251  27.485  26.001
51196W        W52060   6.145  27.586  26.020
51197W        W52061   6.599   0.031  25.630
51198W        W52062   5.806  27.047   0.079
51199W        W52063   4.286  27.866   0.010
51200W        W52064   7.310  26.133  28.875
51201W        W52065   6.703  26.792  27.487
51202W        W52066   5.262  28.917  28.948
51203W        W52067   5.104  25.611  25.847
51204W        W52068   6.682  28.245  25.707
51205W        W52069   4.422  26.375  28.588
51206W        W52070   5.111  28.255  28.494
51207W        W52071   7.153  26.287  28.233
51208W        W52072   6.395   0.035  26.092
51209W        W52073   6.546  27.649  27.623
51210W        W52074   4.732  26.098  28.271
51211W        W52075   5.129  27.004  28.722
51212W        W52076   4.571  28.087  26.333
51213W        W52077   6.411  27.654  26.521
51214W        W52078   4.320  26.340  28.096
51215W        W52079   5.459  28.375  26.797
51216W        W52080   7.196  27.018  26.934
51217W        W52081   5.480  25.698  28.540
51218W        W52082   6.441  28.370  27.657
51219W        W52083   6.770  28.669  27.370
51220W        W52084   5.796  28.577  25.805
51221W        W52085   3.829  28.091  28.908
51222W        W52086   4.708  26.389  27.756
51223W        W52087   4.638  25.875  26.996
51224W        W52088   6.141  26.632  27.621
51225W        W52089   5.087  27.659  25.798
51226W        W52090   7.009  27.670  27.388
51227W        W52091   4.365  28.420  28.912
51228W        W52092   6.781   0.020  26.446
51229W        W52093   4.938  26.235  26.772
51230W        W52094   4.399  27.478  27.022
51231W        W52095   4.719   0.064  27.848
51232W        W52096   6.975   0.028  28.767
51233W        W52097   5.987  27.483  27.785
51234W        W52098   3.981  26.912  25.690
51235W        W52099   7.151  28.662  26.471
51236W        W52100   6.821  26.205  26.086
51237W        W52101   4.966  25.674  28.437
51238W        W52102   6.962  28.436  26.919
51239W        W52103   6.715  26.829  26.940
51240W        W52104   4.761  26.637  27.039
51241W        W52105   5.235  26.935  28.219
51242W        W52106   6.315  28.087  28.304
51243W        W52107   4.786  26.615  28.280
51244W        W52108   4.700  28.858  27.007
51245W        W52109   4.309  28.913  28.733
51246W        W52110   4.413  28.440  25.681
51247W        W52111   6.921  27.965  26.689
51248W        W52112   4.302  26.809  28.311
51249W        W52113   7.288  26.967  26.060
51250W        W52114   5.033  27.841  26.282
51251W        W52115   5.770  27.075  28.474
51252W        W52116   5.926  26.942  27.966
51253W        W52117   4.533  27.284  27.888
51254W        W52118   6.677  28.909  27.818
51255W        W52119   6.478  25.722  28.768
51256W        W52120   4.077  25.876  28.613
51257W        W52121   4.517  27.087  27.397
51258W        W52122   5.019  26.674  25.652
51259W        W52123   3.787  28.307  28.296
51260W        W52124   5.036  27.216  27.512
51261W        W52125   5.087  26.138  25.756
51262W        W52126   4.507  27.167  26.404
51263W        W52127   4.105  28.913  27.895
51264W        W52128   6.774  27.169  26.096
51265W        W52129   6.899  25.959  28.546
51266W        W52130   6.476  28.181  26.872
51267W        W52131   3.858  27.167  28.893
51268W        W52132   7.090  25.748  26.117
51269W        W52133   6.535  27.995  26.130
51270W        W52134   5.380  26.984  26.248
51271W        W52135   6.482  26.010  25.383
51272W        W52136   6.488  26.716  27.995
51273W        W52137   3.972  27.091  27.141
51274W        W52138   4.569  27.960  26.855
51275W        W52139   6.273  26.705  26.698
51276W        W52140   5.380  26.216  27.542
51277W        W52141   7.246  28.043  28.000
51278W        W52142   7.231  26.128  27.712
51279W        W52143   3.627  28.673  26.974
51280W        W52144   4.025  28.020  26.345
51281W        W52145   4.295  25.651   0.154
51282W        W52146   5.432  28.446   0.096
51283W        W52147   7.172  27.541  26.908
51284W        W52148   6.620  27.572  25.802
51285W        W52149   5.894   0.202  27.882
51286W        W52150   6.574  27.759   0.014
51287W        W52151   5.330  25.543  26.316
51288W        W52152   6.099  26.465  27.140
51289W        W52153   3.901  28.050  27.568
51290W        W52154   5.051  25.976  26.247
51291W        W52155   4.675  27.532  28.752
51292W        W52156   5.802  26.414  26.712
51293W        W52157   6.134  27.976  27.823
51294W        W52158   4.233  28.550  28.385
51295W        W52159   4.911  28.493  28.927
51296W        W52160   4.699  26.312  26.074
51297W        W52161   6.179  26.331  26.278
51298W        W52162   6.122  28.523  28.504
51299W        W52163   4.874  27.164  27.032
51300W        W52164   4.516  28.610  27.970
51301W        W52165   7.080  28.858  25.550
51302W        W52166   3.975  27.621  28.677
51303W        W52167   5.817  27.802  27.373
51304W        W52168   4.361  27.655  26.507
51305W        W52169   5.016  28.670  28.036
51306W        W52170   5.253  25.896  27.104
51307W        W52171   3.637  27.898  25.996
51308W        W52172   5.521  26.723  25.810
51309W        W52173   4.032  27.318  26.681
51310W        W52174   5.239  26.137  28.366
51311W        W52175   6.915  25.920  25.651
51312W        W52176   7.050  27.525  28.861
51313W        W52177   5.754  28.833  28.864
51314W        W52178   7.243  27.867  28.513
51315W        W52179   6.756  28.515   0.089
51316W        W52180   4.365   0.008  27.436
51317W        W52181   7.353  27.758  26.448
51318W        W52182   5.853  26.885  26.947
51319W        W52183   5.562  25.629  26.788
51320W        W52184   4.753  28.423  26.688
51321W        W52185   5.183  26.481  27.958
51322W        W52186   4.917  25.681  27.463
51323W        W52187   3.916  28.662  25.842
51324W        W52188   5.560  27.800  26.887
51325W        W52189   4.732  28.663  28.478
51326W        W52190   4.054  27.554  26.093
51327W        W52191   3.928  26.132  27.219
51328W        W52192   5.396  28.107  27.257
51329W        W52193   3.700  25.951  26.257
51330W        W52194   6.271  27.159  28.264
51331W        W52195   6.455  26.409  25.777
51332W        W52196   6.792  28.144  27.333
51333W        W52197   5.555  28.643  27.235
51334W        W52198   4.720  28.529  26.125
51335W        W52199   6.112  25.644  25.438
51336W        W52200   3.877  28.824  27.401
51337W        W52201   6.041  26.586  28.922
51338W        W52202   4.071  26.245  28.981
51339W        W52203   4.105  26.698  26.548
51340W        W52204   4.791  26.834  26.094
51341W        W52205   6.222  27.057  28.779
51342W        W52206   4.679  27.582  27.453
51343W        W52207   6.103  25.675  26.941
51344W        W52208   5.174   0.007  27.141
51345W        W52209   6.548  28.516  28.128
51346W        W52210   6.286  28.539  27.194
51347W        W52211   6.085  27.747  26.908
51348W        W52212   5.516  25.917  25.976
51349W        W52213   7.334  25.660  26.812
51350W        W52214   4.774  27.235  25.733
51351W        W52215   7.096  26.503  26.801
51352W        W52216   5.703  27.554  25.724
51353W        W52217   6.712  27.834  28.522
51354W        W52218   6.322  28.620  25.771
51355W        W52219   4.934  26.372  28.721
51356W        W52220   4.858  26.890  27.858
51357W        W52221   6.931  28.268  28.367
51358W        W52222   6.114  26.199  28.540
51359W        W52223   3.812  26.908  28.444
51360W        W52224   5.571  27.293  28.026
51361W        W52225   4.029  27.849  26.864
51362W        W52226   4.060  27.193  27.640
51363W        W52227   6.427  27.614  28.125
51364W        W52228   6.283  28.784  28.908
51365W        W52229   6.102  26.678  28.377
51366W        W52230   6.422  28.803  26.756
51367W        W52231   5.474  28.438  28.102
51368W        W52232   4.766  28.676  27.506
51369W        W52233   6.698  28.024  27.958
51370W        W52234   5.672  27.976   0.096
51371W        W52235   4.333  27.945  27.313
51372W        W52236   6.610  27.703  27.030
51373W        W52237   6.186  28.822  27.649
51374W        W52238   4.221  28.491  27.560
51375W        W52239   4.962  26.710   0.115
51376W        W52240   5.564  28.696  26.398
51377W        W52241   5.147  28.033  28.987
51378W        W52242   5.147  28.352  26.371
51379W        W52243   4.501  26.797  25.647
51380W        W52244   7.387   3.611   3.314
51381W        W52245   7.800   2.556   2.962
51382W        W52246  10.578   2.219   0.720
51383W        W52247  10.750   3.289   2.740
51384W        W52248   8.451   3.319   0.236
51385W        W52249   8.514   1.413   1.172
51386W        W52250   8.059   1.321   1.438
51387W        W52251   9.138   2.036   0.644
51388W        W52252   8.849   3.286   3.063
51389W        W52253   7.461   0.790   3.045
51390W        W52254   8.063   0.160   2.765
51391W        W52255   9.851   0.617   1.817
51392W        W52256   9.451   1.202   0.455
51393W        W52257  10.237   0.837   3.404
51394W        W52258   7.616   0.491   2.611
51395W        W52259   7.555   3.182   3.526
51396W        W52260   8.855   2.538   0.177
51397W        W52261   7.579   1.180   2.049
51398W        W52262   8.592   1.367   3.174
51399W        W52263  10.867   1.141   1.767
51400W        W52264  10.621   2.110   2.680
51401W        W52265   8.915   1.579   1.492
51402W        W52266   9.618   2.852   2.075
51403W        W52267   7.928   2.112   2.249
51404W        W52268   7.290   1.611   1.955
51405W        W52269   8.488   1.776   2.887
51406W        W52270  10.667   1.567   3.260
51407W        W52271   8.214   2.819   1.700
51408W        W52272   9.478   2.655   2.625
51409W        W52273   9.123   1.237   1.813
51410W        W52274   8.798   2.013   1.729
51411W        W52275   9.540   2.938   3.424
51412W        W52276   8.914   2.087   3.424
51413W        W52277   8.985   1.913   2.952
51414W        W52278   7.432   1.131   3.444
51415W        W52279  10.030   2.724   3.269
51416W        W52280   7.743   0.320   1.092
51417W        W52281   8.252   2.535   2.246
51418W        W52282  10.877   2.519   1.622
51419W        W52283  10.432   0.870   2.006
51420W        W52284  10.550   0.862   0.085
51421W        W52285  10.979   1.595   2.529
51422W        W52286   8.846   3.259   2.138
51423W        W52287  10.724   2.747   0.746
51424W        W52288   7.933   3.550   0.603
51425W        W52289   8.147   3.488   1.084
51426W        W52290   8.190   0.396   2.303
51427W        W52291  10.625   1.276   2.775
51428W        W52292   9.856   1.734   1.244
51429W        W52293   9.942   1.515   0.315
51430W        W52294   9.122   2.709   2.259
51431W        W52295   8.984   0.911   1.442
51432W        W52296   9.425   3.152   2.486
51433W        W52297  10.555   1.824   1.057
51434W        W52298   9.049   0.547   1.081
51435W        W52299   7.850   3.059   0.825
51436W        W52300   7.392   0.651   1.299
51437W        W52301   9.933   1.443   1.653
51438W        W52302   7.625   2.916   1.760
51439W        W52303   8.801   3.005   0.470
51440W        W52304  10.306   1.300  28.996
51441W        W52305   7.449   2.979   2.282
51442W        W52306   8.266   2.632   2.747
51443W        W52307   8.450   2.046   1.334
51444W        W52308   8.723   0.517   2.350
51445W        W52309  10.875   0.211   1.777
51446W        W52310   7.892   2.051   0.080
51447W        W52311   7.751   1.111   0.332
51448W        W52312   7.856   2.866   1.308
51449W        W52313   8.559   2.574   1.363
51450W        W52314  10.242   3.156   2.910
51451W        W52315   9.046   0.954   0.663
51452W        W52316  10.460   3.364   1.468
51453W        W52317  10.240   1.287   3.108
51454W        W52318  10.949   2.829   1.205
51455W        W52319   9.606   2.171   2.760
51456W        W52320   7.389   1.696   1.088
51457W        W52321   8.392   2.163   2.559
51458W        W52322   9.545   1.449   0.889
51459W        W52323   9.362   1.883   1.091
51460W        W52324   7.911   1.268   2.427
51461W        W52325   7.878   1.199   3.174
51462W        W52326   7.654   0.218   1.592
51463W        W52327   9.468   0.521   2.203
51464W        W52328   9.280   0.590   3.278
51465W        W52329   9.684   0.567   0.459
51466W        W52330  10.887   3.080   3.230
51467W        W52331   9.618   0.193   3.117
51468W        W52332  10.692   2.613   3.412
51469W        W52333  10.206   0.775   2.879
51470W        W52334   9.868   0.695   1.253
51471W        W52335  10.314   1.860   3.545
51472W        W52336   7.985   3.290   1.587
51473W        W52337   8.627   1.289   0.666
51474W        W52338   8.247   0.393   3.216
51475W        W52339  10.269   0.990   0.997
51476W        W52340  10.617   1.361   0.856
51477W        W52341   8.408   3.531   3.272
51478W        W52342   8.528  28.987   0.709
51479W        W52343  10.689   0.663   1.615
51480W        W52344  10.899   2.885   0.149
51481W        W52345   7.564   2.051   1.821
51482W        W52346   9.702   0.558  28.949
51483W        W52347  10.832   2.973   1.907
51484W        W52348  10.761   0.342   2.370
51485W        W52349   9.456   1.462   3.098
51486W        W52350   8.985   2.527   0.669
51487W        W52351   9.809   1.979   3.685
51488W        W52352   9.517   0.198   1.794
51489W        W52353   8.053   1.029   1.853
51490W        W52354   7.654   2.127   2.711
51491W        W52355   9.519   3.252   1.578
51492W        W52356  10.685   1.250   2.262
51493W        W52357   9.378   3.414   2.938
51494W        W52358  10.600   2.109   0.220
51495W        W52359   8.844   1.798   1.021
51496W        W52360  10.933   0.280   2.878
51497W        W52361   9.194   2.240   2.474
51498W        W52362   9.473   1.035   2.142
51499W        W52363  10.078   1.450   0.837
51500W        W52364  10.292   1.148   0.485
51501W        W52365  10.382   2.998   1.087
51502W        W52366   9.864   2.456   1.788
51503W        W52367   9.855   1.896   0.754
51504W        W52368   9.305   1.944   1.608
51505W        W52369  10.271   1.847   1.566
51506W        W52370   7.835   0.780   2.249
51507W        W52371  10.307   1.835   3.020
51508W        W52372  10.770   3.391   2.194
51509W        W52373   8.692   3.024   1.610
51510W        W52374   9.853   3.419   2.702
51511W        W52375   9.793   0.797   2.494
51512W        W52376   9.017   3.540   2.562
51513W        W52377  10.555   0.590   1.104
51514W        W52378  10.517   1.786   2.293
51515W        W52379   7.493   1.007   2.569
51516W        W52380  10.208   0.969   1.545
51517W        W52381  10.692   1.063   3.258
51518W        W52382   9.477   2.698   1.566
51519W        W52383   8.752   3.350   1.127
51520W        W52384   7.873   0.606   0.471
51521W        W52385   9.066   0.221   2.064
51522W        W52386   7.938   3.392   0.099
51523W        W52387   8.403   1.772   0.765
51524W        W52388   9.100   2.411   2.956
51525W        W52389   8.676   0.916   1.016
51526W        W52390  10.236   0.422   1.520
51527W        W52391   9.965   3.543   1.714
51528W        W52392   9.331   3.432   2.046
51529W        W52393   8.790   2.289   2.153
51530W        W52394  10.564   2.948   2.371
51531W        W52395   8.207   0.490   0.937
51532W        W52396   8.650   2.782   2.053
51533W        W52397   8.205   0.719   0.080
51534W        W52398   9.141   1.386   2.332
51535W        W52399   9.900   0.238   2.187
51536W        W52400   7.376   2.033   2.293
51537W        W52401   9.040   1.774   0.185
51538W        W52402   8.331   0.341   0.394
51539W        W52403   9.035   1.294   1.083
51540W        W52404   9.911   0.332   2.701
51541W        W52405   8.594   2.275   3.034
51542W        W52406   9.430   1.981   3.247
51543W        W52407   9.930   2.148   3.203
51544W        W52408   9.315   0.380   3.771
51545W        W52409   8.533   0.696   1.911
51546W        W52410   7.912   0.750   1.390
51547W        W52411   7.632   3.324   1.210
51548W        W52412   9.224   2.914   3.011
51549W        W52413   7.966   2.435   0.508
51550W        W52414   9.801   1.943   1.770
51551W        W52415  10.054   1.645   2.114
51552W        W52416   9.176   1.881   2.103
51553W        W52417   9.732   2.524   0.088
51554W        W52418   9.398   0.578   1.473
51555W        W52419  10.951   0.951   0.846
51556W        W52420   7.593   3.343   2.926
51557W        W52421   7.728   2.562   2.425
51558W        W52422   7.417   3.475   0.776
51559W        W52423   9.122   0.838   2.465
51560W        W52424   8.465   2.621   0.519
51561W        W52425  10.439   3.167   0.575
51562W        W52426   9.494   1.734   0.423
51563W        W52427   8.176   1.029   1.035
51564W        W52428   9.277   0.822   0.152
51565W        W52429   9.572   2.519   3.125
51566W        W52430  10.088   0.526   0.802
51567W        W52431   7.485   0.227   0.411
51568W        W52432   8.747   2.545   2.586
51569W        W52433   8.413   2.351   1.796
51570W        W52434   8.352   2.329   0.098
51571W        W52435   7.339   2.910   0.795
51572W        W52436   8.133   1.668   3.264
51573W        W52437   8.759   0.429   3.338
51574W        W52438   9.391   0.460   2.725
51575W        W52439   8.616   0.239   1.174
51576W        W52440   9.533   0.426   0.941
51577W        W52441   7.699   0.301   2.130
51578W        W52442   7.537   1.147   1.311
51579W        W52443  10.392   0.235   1.992
51580W        W52444   7.730   0.805   0.911
51581W        W52445  10.259   0.556   2.379
51582W        W52446  10.734   1.620   0.125
51583W        W52447   8.054   0.532   1.838
51584W        W52448   9.309   0.981   2.928
51585W        W52449   7.361   0.732   0.391
51586W        W52450   8.090   2.123   2.998
51587W        W52451   9.523   1.533   1.944
51588W        W52452   9.195   3.373   0.317
51589W        W52453   7.368   2.101   0.177
51590W        W52454   8.240   2.621   3.246
51591W        W52455   7.808   1.644   2.853
51592W        W52456   8.819   1.882   2.468
51593W        W52457  10.425   0.274   2.769
51594W        W52458  10.957   1.864   2.967
51595W        W52459  10.889   1.745   0.604
51596W        W52460   9.589   2.267   0.514
51597W        W52461  10.244   3.511   0.214
51598W        W52462   9.484   1.565   3.642
51599W        W52463   7.872   2.487   3.572
51600W        W52464  11.053   0.708   3.490
51601W        W52465  10.413   1.388   1.836
51602W        W52466   8.824   3.468   3.551
51603W        W52467   8.822   0.187   0.321
51604W        W52468  10.478   2.603   0.306
51605W        W52469   8.337   0.909   3.125
51606W        W52470   8.723   2.778   3.048
51607W        W52471  10.668   0.765   2.643
51608W        W52472  10.019   3.545   0.694
51609W        W52473  10.202   2.159   2.079
51610W        W52474   8.396   0.557   2.747
51611W        W52475   9.033   1.586   3.355
51612W        W52476   8.196   2.660   0.956
51613W        W52477  10.163   2.155   1.118
51614W        W52478   7.953   0.850   2.776
51615W        W52479   9.116   3.013   1.317
51616W        W52480  10.758   1.587   1.498
51617W        W52481   9.106   0.134   3.084
51618W        W52482  10.194   2.731   2.050
51619W        W52483  10.344   3.212   1.950
51620W        W52484   9.292   2.768   0.334
51621W        W52485   7.457   2.715   3.314
51622W        W52486   8.312   0.927   2.364
51623W        W52487   8.153   0.275   1.428
51624W        W52488   9.967   1.107   2.033
51625W        W52489   8.683   2.120   0.434
51626W        W52490  10.658   2.040   1.838
51627W        W52491   7.911   3.018   3.195
51628W        W52492  10.422   3.590   1.009
51629W        W52493   8.438   0.704   1.408
51630W        W52494   8.049   1.985   1.707
51631W        W52495   8.500   3.575   2.360
51632W        W52496  10.579   3.503   3.225
51633W        W52497   9.665   1.953   2.278
51634W        W52498   7.579   1.647   0.395
51635W        W52499  10.799   3.259   0.954
51636W        W52500  10.556   0.726   0.593
51637W        W52501   8.599   0.101   2.937
51638W        W52502  10.463   2.851   1.577
51639W        W52503  10.313   1.417   1.295
51640W        W52504   8.585   1.161   1.673
51641W        W52505   8.995   1.400   2.846
51642W        W52506   9.971   2.526   2.809
51643W        W52507   8.681   0.994   2.725
51644W        W52508   8.463   3.506   1.530
51645W        W52509   7.902   3.539   3.318
51646W        W52510   8.060   2.947   0.346
51647W        W52511  10.572   2.480   1.178
51648W        W52512   8.231   1.311   2.818
51649W        W52513  10.822   1.203   0.414
51650W        W52514   8.596   2.298   0.914
51651W        W52515   9.811   1.725   2.862
51652W        W52516   9.696   1.427   2.417
51653W        W52517   8.157   1.713   2.487
51654W        W52518  10.297   3.390   2.434
51655W        W52519  10.115   0.353   3.197
51656W        W52520   7.725   0.356   3.107
51657W        W52521   8.298   1.399   2.089
51658W        W52522   8.415   1.168   0.192
51659W        W52523   7.420   2.863   2.799
51660W        W52524   8.779   1.570   2.009
51661W        W52525   8.745   0.735   0.259
51662W        W52526   7.955   1.646   1.041
51663W        W52527   7.519   3.543   2.452
51664W        W52528  10.376   1.733   0.517
51665W        W52529  10.608   0.584   3.138
51666W        W52530  10.049   2.639   1.304
51667W        W52531   7.588   1.636   3.326
51668W        W52532  10.474   0.223   0.624
51669W        W52533  10.222   2.599   0.783
51670W        W52534   9.079   1.522   0.635
51671W        W52535  10.164   0.519   0.241
51672W        W52536  10.247   1.061   2.462
51673W        W52537   7.641   1.606   1.561
51674W        W52538   8.067   2.407   1.398
51675W        W52539   9.845   1.201   1.220
51676W        W52540   9.080   0.732   1.934
51677W        W52541  10.897   2.554   2.515
51678W        W52542  10.922   0.789   2.167
51679W        W52543   7.318   3.322   1.603
51680W        W52544   7.681   2.512   0.975
51681W        W52545   7.779   0.205   3.591
51682W        W52546   8.985   2.988   3.475
51683W        W52547  10.887   2.077   1.368
51684W        W52548  10.127   2.208   0.440
51685W        W52549   9.498   3.691   2.460
51686W        W52550  10.248   2.379   3.586
51687W        W52551   9.021   0.077   0.834
51688W        W52552   9.592   1.031   1.637
51689W        W52553   7.381   2.501   1.991
51690W        W52554   8.694   0.493   0.721
51691W        W52555   8.316   2.156   3.477
51692W        W52556   9.412   0.940   1.087
51693W        W52557   9.834   2.440   2.317
51694W        W52558   7.908   3.006   2.664
51695W        W52559   8.476   3.034   3.450
51696W        W52560   8.336   0.846   0.581
51697W        W52561   9.820   0.986   0.747
51698W        W52562   9.728   2.983   2.931
51699W        W52563   8.419   1.643   1.644
51700W        W52564   8.017   3.396   2.340
51701W        W52565  10.775   3.396   0.246
51702W        W52566   7.594   2.150   3.243
51703W        W52567   9.396   2.345   1.988
51704W        W52568   8.098   2.154   0.947
51705W        W52569   8.404   3.033   2.436
51706W        W52570   8.884   0.408   1.583
51707W        W52571   7.282   2.414   0.598
51708W        W52572   8.932   1.237   0.226
51709W        W52573   7.715   2.039   1.285
51710W        W52574   8.905   0.552   2.857
51711W        W52575  10.667   0.368   0.174
51712W        W52576  10.754   2.085   3.389
51713W        W52577   9.330   3.403   3.471
51714W        W52578  10.945   2.386   2.998
51715W        W52579  10.401   3.048   3.386
51716W        W52580   8.108   3.685   1.907
51717W        W52581  11.072   2.154   0.885
51718W        W52582   9.427   1.465   1.414
51719W        W52583   9.247   0.103   1.301
51720W        W52584   8.334   3.053   1.255
51721W        W52585   8.763   1.071   2.169
51722W        W52586   8.555   0.173   1.947
51723W        W52587   7.576   3.178   0.392
51724W        W52588   8.972   2.227   1.282
51725W        W52589   8.357   3.119   2.944
51726W        W52590   7.638   2.037   0.751
51727W        W52591   7.574   0.707   1.781
51728W        W52592   8.958   2.525   1.716
51729W        W52593   7.292   0.430   0.838
51730W        W52594  10.201   1.535   2.611
51731W        W52595   9.863   1.001   0.214
51732W        W52596  10.642   2.496   2.069
51733W        W52597   9.158   2.986   1.841
51734W        W52598   8.355   3.108   0.733
51735W        W52599   9.765   0.098   0.194
51736W        W52600   7.653   3.388   1.980
51737W        W52601   9.780   1.112   3.348
51738W        W52602   7.921   0.737   3.418
51739W        W52603   7.622   1.310   0.815
51740W        W52604   8.116   1.345   0.621
51741W        W52605   9.915   1.609   3.349
51742W        W52606   8.411   1.926   2.093
51743W        W52607   9.783   0.186   1.321
51744W        W52608   9.001   3.432   1.626
51745W        W52609   9.991   2.937   2.481
51746W        W52610   9.955   2.999   1.676
51747W        W52611   9.685   2.229   1.349
51748W        W52612   9.186   0.472   0.539
51749W        W52613  10.830   0.182   1.237
51750W        W52614   8.547   1.650   0.271
51751W        W52615  10.704   1.074   1.288
51752W        W52616   9.278   2.235   0.102
51753W        W52617  10.392   2.352   3.075
51754W        W52618  10.048   2.880   0.332
51755W        W52619   8.859   0.930   3.210
51756W        W52620   8.605   1.435   2.493
51757W        W52621  10.607   2.788   2.890
51758W        W52622   9.731   0.699   3.031
51759W        W52623   7.428   1.312   2.964
51760W        W52624   9.338   1.748   2.629
51761W        W52625   7.552   2.463   1.494
51762W        W52626   7.820   1.644   2.063
51763W        W52627  10.099   2.054   2.581
51764W        W52628   9.850   3.358   3.264
51765W        W52629   9.826   1.180   2.838
51766W        W52630   9.992   3.369   1.227
51767W        W52631   8.906   3.034   2.610
51768W        W52632   8.359   3.237   1.964
51769W        W52633  10.354   2.501   2.491
51770W        W52634   9.194   2.530   3.454
51771W        W52635   7.887   2.470   1.887
51772W        W52636  10.341   2.360   1.622
51773W        W52637   9.838   3.329   2.170
51774W        W52638   7.959   2.938   2.139
51775W        W52639   9.275   1.130   3.450
51776W        W52640   9.151   3.160   0.813
51777W        W52641   8.673   2.538   3.498
51778W        W52642   8.727   2.849   0.971
51779W        W52643   8.039   1.549   0.146
51780W        W52644   7.262   3.703   7.073
51781W        W52645   7.723   2.574   6.570
51782W        W52646  10.551   2.161   4.393
51783W        W52647  10.556   3.400   6.196
51784W        W52648   8.361   3.410   3.773
51785W        W52649   8.704   1.332   4.938
51786W        W52650   7.835   1.577   5.179
51787W        W52651   9.091   2.145   4.220
51788W        W52652   8.778   3.293   6.789
51789W        W52653   7.356   0.771   6.637
51790W        W52654   7.817   0.240   6.300
51791W        W52655   9.959   0.472   5.583
51792W        W52656   9.643   1.311   4.103
51793W        W52657  10.098   0.860   7.069
51794W        W52658   7.408   0.566   6.159
51795W        W52659   7.450   3.246   7.191
51796W        W52660   8.948   2.608   3.912
51797W        W52661   7.514   1.197   5.758
51798W        W52662   8.386   1.338   7.040
51799W        W52663  10.733   1.108   5.402
51800W        W52664  10.493   2.059   6.103
51801W        W52665   9.015   1.522   5.319
51802W        W52666   9.506   2.840   5.654
51803W        W52667   7.939   2.109   5.943
51804W        W52668   7.389   1.604   5.463
51805W        W52669   8.389   1.790   6.588
51806W        W52670  10.568   1.574   6.836
51807W        W52671   8.114   2.903   5.291
51808W        W52672   9.375   2.716   6.290
51809W        W52673   8.893   1.150   5.645
51810W        W52674   8.796   1.992   5.383
51811W        W52675   9.531   2.981   7.098
51812W        W52676   9.065   2.032   7.153
51813W        W52677   8.891   1.948   6.684
51814W        W52678   7.324   1.021   7.081
51815W        W52679  10.072   2.784   6.799
51816W        W52680   7.598   0.220   4.771
51817W        W52681   8.266   2.546   5.865
51818W        W52682  10.683   2.502   5.170
51819W        W52683  10.396   0.748   5.633
51820W        W52684  10.633   0.916   3.751
51821W        W52685  10.955   1.563   6.042
51822W        W52686   8.844   3.260   5.832
51823W        W52687  10.734   2.644   4.263
51824W        W52688   7.716   3.535   4.337
51825W        W52689   8.130   3.492   4.652
51826W        W52690   8.138   0.352   5.920
51827W        W52691  10.522   1.519   6.306
51828W        W52692   9.934   1.708   4.875
51829W        W52693  10.031   1.573   3.910
51830W        W52694   9.063   2.784   5.903
51831W        W52695   9.362   1.101   5.366
51832W        W52696   9.538   3.161   6.073
51833W        W52697  10.419   1.785   4.725
51834W        W52698   9.034   0.668   4.694
51835W        W52699   7.828   3.042   4.443
51836W        W52700   7.240   0.580   4.871
51837W        W52701   9.812   1.370   5.259
51838W        W52702   7.604   2.894   5.412
51839W        W52703   8.758   3.119   3.954
51840W        W52704  10.367   1.331   3.610
51841W        W52705   7.417   2.948   5.909
51842W        W52706   8.196   2.641   6.359
51843W        W52707   8.519   2.093   4.964
51844W        W52708   8.626   0.391   6.043
51845W        W52709  10.867   0.205   5.520
51846W        W52710   7.862   1.956   3.658
51847W        W52711   7.701   0.944   3.845
51848W        W52712   7.746   2.895   4.921
51849W        W52713   8.548   2.581   4.801
51850W        W52714  10.202   3.399   6.626
51851W        W52715   9.395   1.021   4.453
51852W        W52716  10.513   3.649   5.222
51853W        W52717  10.099   1.418   6.652
51854W        W52718  10.922   2.884   4.910
51855W        W52719   9.529   2.234   6.418
51856W        W52720   7.286   1.893   4.450
51857W        W52721   8.436   2.179   6.164
51858W        W52722   9.571   1.502   4.573
51859W        W52723   9.405   1.988   4.631
51860W        W52724   7.903   1.294   6.098
51861W        W52725   7.869   1.176   7.021
51862W        W52726   7.562   0.263   5.274
51863W        W52727   9.609   0.540   5.942
51864W        W52728   9.133   0.671   6.901
51865W        W52729   9.754   0.482   4.042
51866W        W52730  10.730   3.323   6.700
51867W        W52731   9.580   0.240   6.861
51868W        W52732  10.610   2.796   6.755
51869W        W52733  10.120   0.797   6.560
51870W        W52734   9.955   0.624   4.823
51871W        W52735  10.230   1.898   7.070
51872W        W52736   7.851   3.358   5.122
51873W        W52737   8.889   1.121   4.486
51874W        W52738   8.179   0.338   6.954
51875W        W52739  10.317   0.946   4.614
51876W        W52740  10.639   1.352   4.549
51877W        W52741   8.289   3.364   6.996
51878W        W52742   8.139   0.033   4.163
51879W        W52743  10.729   0.607   5.248
51880W        W52744  11.002   2.739   3.820
51881W        W52745   7.637   2.040   5.535
51882W        W52746   9.777   0.620   3.534
51883W        W52747  10.727   2.984   5.400
51884W        W52748  10.738   0.319   6.075
51885W        W52749   9.307   1.674   6.855
51886W        W52750   9.105   2.659   4.390
51887W        W52751   9.536   1.969   7.434
51888W        W52752   9.563   0.111   5.620
51889W        W52753   7.950   1.103   5.495
51890W        W52754   7.534   2.121   6.281
51891W        W52755   9.252   3.331   5.058
51892W        W52756  10.610   1.176   5.899
51893W        W52757   9.246   3.401   6.453
51894W        W52758  10.684   2.287   3.881
51895W        W52759   8.965   1.781   4.872
51896W        W52760  10.868   0.301   6.572
51897W        W52761   9.103   2.281   6.149
51898W        W52762   9.324   0.984   5.890
51899W        W52763  10.097   1.392   4.484
51900W        W52764  10.359   1.153   4.123
51901W        W52765  10.466   3.027   4.487
51902W        W52766   9.827   2.457   5.467
51903W        W52767   9.919   1.840   4.356
51904W        W52768   9.232   2.128   5.151
51905W        W52769  10.219   1.731   5.320
51906W        W52770   7.839   0.797   5.926
51907W        W52771  10.309   1.916   6.563
51908W        W52772  10.724   3.432   5.691
51909W        W52773   8.606   2.948   5.158
51910W        W52774   9.718   3.574   6.476
51911W        W52775   9.695   0.911   6.275
51912W        W52776   8.925   3.694   6.166
51913W        W52777  10.622   0.545   4.723
51914W        W52778  10.419   1.652   5.800
51915W        W52779   7.253   1.112   6.194
51916W        W52780  10.303   0.874   5.134
51917W        W52781  10.516   1.109   6.622
51918W        W52782   9.428   2.618   5.166
51919W        W52783   8.773   3.299   4.812
51920W        W52784   7.814   0.459   4.037
51921W        W52785   9.040   0.175   5.669
51922W        W52786   7.857   3.505   3.836
51923W        W52787   8.676   1.929   4.450
51924W        W52788   9.081   2.432   6.663
51925W        W52789   8.928   0.902   5.163
51926W        W52790  10.266   0.373   5.180
51927W        W52791  10.020   3.719   5.339
51928W        W52792   9.301   3.329   5.617
51929W        W52793   8.758   2.329   5.772
51930W        W52794  10.490   2.980   5.876
51931W        W52795   8.063   0.386   4.532
51932W        W52796   8.636   2.805   5.641
51933W        W52797   8.477   0.771   3.594
51934W        W52798   9.066   1.397   6.070
51935W        W52799   9.946   0.147   5.980
51936W        W52800   7.226   2.045   5.860
51937W        W52801   9.021   1.727   3.859
51938W        W52802   8.252   0.311   3.734
51939W        W52803   9.216   1.257   4.881
51940W        W52804   9.828   0.402   6.421
51941W        W52805   8.514   2.308   6.659
51942W        W52806   9.520   2.127   6.929
51943W        W52807   9.974   2.268   6.738
51944W        W52808   9.223   0.318   7.292
51945W        W52809   8.357   0.775   5.744
51946W        W52810   7.713   0.709   5.024
51947W        W52811   7.478   3.301   4.731
51948W        W52812   9.187   2.954   6.704
51949W        W52813   8.209   2.204   4.547
51950W        W52814   9.594   1.964   5.498
51951W        W52815   9.902   1.565   5.716
51952W        W52816   9.127   1.911   5.790
51953W        W52817   9.718   2.482   3.620
51954W        W52818   9.338   0.588   5.485
51955W        W52819  11.012   0.979   4.480
51956W        W52820   7.488   3.359   6.671
51957W        W52821   7.745   2.568   6.046
51958W        W52822   7.143   3.332   4.327
51959W        W52823   9.112   0.529   6.028
51960W        W52824   8.422   2.742   3.912
51961W        W52825  10.477   3.373   4.093
51962W        W52826   9.477   1.796   4.111
51963W        W52827   8.557   0.821   4.791
51964W        W52828   9.481   0.879   3.868
51965W        W52829   9.576   2.611   6.747
51966W        W52830  10.202   0.472   4.391
51967W        W52831   7.370   0.203   3.911
51968W        W52832   8.700   2.612   6.234
51969W        W52833   8.393   2.444   5.358
51970W        W52834   8.177   2.299   3.996
51971W        W52835   7.336   2.855   4.474
51972W        W52836   7.999   1.680   6.950
51973W        W52837   8.705   0.416   7.123
51974W        W52838   9.332   0.460   6.467
51975W        W52839   8.509   0.280   4.849
51976W        W52840   9.528   0.529   4.512
51977W        W52841   7.660   0.319   5.782
51978W        W52842   7.485   1.162   5.219
51979W        W52843  10.389   0.210   5.712
51980W        W52844   7.605   0.653   4.475
51981W        W52845  10.117   0.639   6.056
51982W        W52846  10.759   1.679   3.752
51983W        W52847   7.968   0.575   5.465
51984W        W52848   9.184   0.973   6.435
51985W        W52849   7.294   0.691   4.038
51986W        W52850   8.022   2.164   6.451
51987W        W52851   9.399   1.497   5.672
51988W        W52852   9.098   3.495   3.978
51989W        W52853   7.325   1.891   3.706
51990W        W52854   8.206   2.683   6.874
51991W        W52855   7.844   1.690   6.444
51992W        W52856   8.793   1.831   6.198
51993W        W52857  10.346   0.332   6.445
51994W        W52858  10.870   1.898   6.436
51995W        W52859  10.933   1.892   4.187
51996W        W52860   9.718   2.262   4.114
51997W        W52861  10.236   3.484   3.633
51998W        W52862   9.340   1.489   7.334
51999W        W52863   8.089   2.188   6.949
52000W        W52864  10.985   0.679   7.141
52001W        W52865  10.244   1.234   5.512
52002W        W52866   8.729   3.444   7.265
52003W        W52867   8.734   0.402   3.868
52004W        W52868  10.472   2.819   3.847
52005W        W52869   8.213   0.844   6.817
52006W        W52870   8.697   2.789   6.736
52007W        W52871  10.586   0.771   6.252
52008W        W52872  10.064   3.674   4.102
52009W        W52873  10.071   2.060   5.726
52010W        W52874   8.283   0.471   6.447
52011W        W52875   8.863   1.541   7.102
52012W        W52876   8.198   2.687   4.382
52013W        W52877  10.097   2.191   4.676
52014W        W52878   7.838   0.739   6.455
52015W        W52879   9.018   2.840   4.865
52016W        W52880  10.839   1.494   5.018
52017W        W52881   9.070   0.182   6.811
52018W        W52882   9.970   2.923   5.851
52019W        W52883  10.281   3.256   5.480
52020W        W52884   9.283   3.017   3.893
52021W        W52885   7.426   2.808   6.926
52022W        W52886   8.270   0.936   6.229
52023W        W52887   8.032   0.282   5.041
52024W        W52888   9.833   1.028   5.778
52025W        W52889   8.680   2.145   3.879
52026W        W52890  10.563   2.227   5.610
52027W        W52891   7.872   3.062   6.807
52028W        W52892  10.400   3.664   4.575
52029W        W52893   8.437   0.607   5.247
52030W        W52894   8.059   2.053   5.241
52031W        W52895   8.452   3.574   5.960
52032W        W52896  10.484   3.784   6.842
52033W        W52897   9.620   1.903   6.002
52034W        W52898   7.650   1.471   3.811
52035W        W52899  10.661   3.319   4.854
52036W        W52900  10.626   0.719   4.231
52037W        W52901   8.574   0.117   6.692
52038W        W52902  10.369   2.943   5.042
52039W        W52903  10.310   1.348   4.974
52040W        W52904   8.472   1.110   5.345
52041W        W52905   8.948   1.442   6.578
52042W        W52906   9.890   2.650   6.331
52043W        W52907   8.654   1.023   6.617
52044W        W52908   8.364   3.399   5.109
52045W        W52909   7.822   3.544   7.035
52046W        W52910   8.011   3.009   3.726
52047W        W52911  10.443   2.561   4.716
52048W        W52912   8.159   1.307   6.574
52049W        W52913  10.859   1.284   4.084
52050W        W52914   8.639   2.431   4.307
52051W        W52915   9.757   1.803   6.567
52052W        W52916   9.605   1.398   6.135
52053W        W52917   8.234   1.714   6.096
52054W        W52918  10.258   3.680   5.808
52055W        W52919  10.075   0.365   6.925
52056W        W52920   7.676   0.328   6.775
52057W        W52921   8.329   1.277   5.809
52058W        W52922   8.774   1.232   3.641
52059W        W52923   7.330   2.922   6.426
52060W        W52924   8.696   1.622   5.744
52061W        W52925   9.005   0.777   3.681
52062W        W52926   7.443   1.580   4.852
52063W        W52927   7.432   3.428   6.158
52064W        W52928  10.459   1.669   4.193
52065W        W52929  10.542   0.634   6.840
52066W        W52930   9.970   2.614   4.978
52067W        W52931   7.489   1.526   6.915
52068W        W52932  10.569   0.207   4.081
52069W        W52933  10.222   2.536   4.231
52070W        W52934   9.093   1.599   4.396
52071W        W52935  10.233   0.576   3.873
52072W        W52936  10.163   1.153   6.175
52073W        W52937   7.991   1.644   5.651
52074W        W52938   8.070   2.494   4.959
52075W        W52939   9.816   1.116   4.815
52076W        W52940   8.828   0.644   5.614
52077W        W52941  10.742   2.530   6.024
52078W        W52942  10.885   0.727   5.789
52079W        W52943   7.343   3.288   5.223
52080W        W52944   7.738   2.525   4.563
52081W        W52945   7.851   0.031   7.233
52082W        W52946   8.977   2.972   7.170
52083W        W52947  10.678   1.974   5.155
52084W        W52948  10.211   2.075   4.003
52085W        W52949   9.463   3.672   5.978
52086W        W52950  10.353   2.425   7.067
52087W        W52951   8.561  28.953   4.457
52088W        W52952   9.820   0.856   5.290
52089W        W52953   7.376   2.486   5.633
52090W        W52954   8.662   0.467   4.382
52091W        W52955   8.538   1.953   7.077
52092W        W52956   9.439   0.779   4.967
52093W        W52957   9.646   2.419   5.942
52094W        W52958   7.827   3.029   6.295
52095W        W52959   8.477   2.943   7.229
52096W        W52960   8.681   0.910   4.059
52097W        W52961   9.892   0.904   4.324
52098W        W52962   9.697   3.077   6.569
52099W        W52963   8.408   1.638   5.304
52100W        W52964   7.952   3.449   6.028
52101W        W52965  10.768   3.263   3.695
52102W        W52966   7.613   2.022   6.782
52103W        W52967   9.250   2.385   5.605
52104W        W52968   7.740   2.058   4.804
52105W        W52969   8.396   3.032   6.054
52106W        W52970   8.901   0.377   5.180
52107W        W52971   7.780   2.668   4.064
52108W        W52972   9.132   1.221   4.018
52109W        W52973   7.330   1.986   5.123
52110W        W52974   8.818   0.549   6.500
52111W        W52975  10.652   0.421   3.616
52112W        W52976  10.700   2.086   6.878
52113W        W52977   9.235   3.403   6.993
52114W        W52978  10.926   2.452   6.501
52115W        W52979  10.362   3.143   7.046
52116W        W52980   8.046   3.606   5.550
52117W        W52981  10.922   2.403   4.676
52118W        W52982   9.451   1.677   5.069
52119W        W52983   9.248   0.004   5.212
52120W        W52984   8.242   3.006   4.784
52121W        W52985   8.774   0.913   6.092
52122W        W52986   8.494   0.216   5.566
52123W        W52987   7.520   3.137   4.035
52124W        W52988   8.963   2.286   4.728
52125W        W52989   8.326   3.102   6.555
52126W        W52990   7.761   2.102   4.257
52127W        W52991   7.464   0.732   5.517
52128W        W52992   8.878   2.489   5.229
52129W        W52993   7.216   0.340   4.399
52130W        W52994  10.057   1.663   6.180
52131W        W52995   9.975   1.030   3.815
52132W        W52996  10.295   2.687   5.480
52133W        W52997   9.069   2.938   5.389
52134W        W52998   8.258   3.183   4.214
52135W        W52999   9.743   0.123   3.620
52136W        W53000   7.593   3.368   5.654
52137W        W53001   9.671   1.138   7.155
52138W        W53002   7.793   0.678   7.138
52139W        W53003   7.473   1.088   4.707
52140W        W53004   8.669   1.452   4.114
52141W        W53005   9.774   1.651   7.059
52142W        W53006   8.358   2.021   5.668
52143W        W53007   9.684   0.340   5.166
52144W        W53008   8.831   3.409   5.336
52145W        W53009  10.035   3.351   6.140
52146W        W53010   9.875   2.986   5.325
52147W        W53011   9.728   2.154   5.038
52148W        W53012   9.121   0.656   4.180
52149W        W53013  10.883   0.182   4.978
52150W        W53014   8.568   1.708   3.578
52151W        W53015  10.745   1.007   4.910
52152W        W53016   9.322   2.135   3.749
52153W        W53017  10.388   2.437   6.460
52154W        W53018   9.981   3.024   3.693
52155W        W53019   8.740   0.959   7.127
52156W        W53020   8.570   1.369   6.246
52157W        W53021  10.299   2.956   6.357
52158W        W53022   9.627   0.780   6.760
52159W        W53023   7.635   1.209   6.542
52160W        W53024   9.278   1.781   6.353
52161W        W53025   7.585   2.439   5.136
52162W        W53026   7.597   1.697   5.968
52163W        W53027   9.998   2.159   6.236
52164W        W53028   9.805   3.423   6.965
52165W        W53029   9.590   1.295   6.642
52166W        W53030  10.145   3.399   4.958
52167W        W53031   8.842   3.101   6.320
52168W        W53032   8.386   3.235   5.581
52169W        W53033  10.236   2.504   5.955
52170W        W53034   9.262   2.530   7.153
52171W        W53035   7.900   2.482   5.532
52172W        W53036  10.227   2.233   5.202
52173W        W53037   9.808   3.398   5.677
52174W        W53038   7.953   2.978   5.784
52175W        W53039   9.191   1.169   6.949
52176W        W53040   9.099   3.188   4.396
52177W        W53041   8.751   2.447   7.119
52178W        W53042   8.653   2.940   4.443
52179W        W53043   8.246   1.235   3.543
52180W        W53044   7.373   3.686  10.702
52181W        W53045   7.827   2.538  10.301
52182W        W53046  10.406   2.086   7.907
52183W        W53047  10.765   3.292  10.022
52184W        W53048   8.305   3.345   7.556
52185W        W53049   8.507   1.366   8.333
52186W        W53050   8.058   1.223   8.558
52187W        W53051   8.956   2.020   8.016
52188W        W53052   8.928   3.156  10.404
52189W        W53053   7.413   0.872  10.228
52190W        W53054   7.861   0.309   9.968
52191W        W53055   9.875   0.460   9.024
52192W        W53056   9.430   1.156   7.728
52193W        W53057  10.076   0.865  10.683
52194W        W53058   7.469   0.598   9.762
52195W        W53059   7.613   3.250  10.824
52196W        W53060   8.724   2.611   7.617
52197W        W53061   7.563   1.204   9.260
52198W        W53062   8.580   1.383  10.508
52199W        W53063  10.651   0.981   9.081
52200W        W53064  10.557   2.165   9.965
52201W        W53065   8.964   1.568   8.950
52202W        W53066   9.558   2.846   9.220
52203W        W53067   7.877   2.175   9.557
52204W        W53068   7.264   1.622   9.217
52205W        W53069   8.470   1.738  10.132
52206W        W53070  10.597   1.499  10.540
52207W        W53071   8.179   2.850   8.991
52208W        W53072   9.236   2.740  10.048
52209W        W53073   8.741   1.214   9.267
52210W        W53074   8.721   2.018   8.909
52211W        W53075   9.743   2.857  10.792
52212W        W53076   9.141   2.075  10.872
52213W        W53077   8.923   1.835  10.380
52214W        W53078   7.343   1.180  10.715
52215W        W53079  10.148   2.774  10.482
52216W        W53080   7.729   0.204   8.348
52217W        W53081   8.220   2.572   9.489
52218W        W53082  10.953   2.465   8.962
52219W        W53083  10.223   0.745   9.293
52220W        W53084  10.535   0.902   7.336
52221W        W53085  10.926   1.510   9.755
52222W        W53086   8.817   3.267   9.430
52223W        W53087  10.683   2.497   8.112
52224W        W53088   7.664   3.553   8.043
52225W        W53089   8.055   3.526   8.410
52226W        W53090   8.184   0.436   9.585
52227W        W53091  10.521   1.352  10.019
52228W        W53092   9.794   1.667   8.348
52229W        W53093   9.812   1.471   7.544
52230W        W53094   9.123   2.793   9.536
52231W        W53095   9.156   1.084   8.983
52232W        W53096   9.591   2.957   9.723
52233W        W53097  10.249   1.638   8.108
52234W        W53098   9.281   0.482   8.355
52235W        W53099   8.023   3.177   8.018
52236W        W53100   7.454   0.618   8.473
52237W        W53101   9.893   1.587   8.855
52238W        W53102   7.638   2.876   8.975
52239W        W53103   8.753   3.113   7.648
52240W        W53104  10.191   1.357   7.174
52241W        W53105   7.452   3.012   9.662
52242W        W53106   8.269   2.606  10.037
52243W        W53107   8.426   2.121   8.484
52244W        W53108   8.668   0.517   9.682
52245W        W53109  10.822   0.168   9.114
52246W        W53110   8.132   1.956   7.408
52247W        W53111   7.903   0.966   7.562
52248W        W53112   7.842   2.964   8.497
52249W        W53113   8.545   2.622   8.555
52250W        W53114  10.304   3.189  10.200
52251W        W53115   9.115   0.926   8.092
52252W        W53116  10.586   3.655   8.914
52253W        W53117  10.130   1.268  10.346
52254W        W53118  11.005   2.753   8.452
52255W        W53119   9.576   2.199  10.057
52256W        W53120   7.250   1.631   8.242
52257W        W53121   8.404   2.149   9.685
52258W        W53122   9.419   1.324   8.217
52259W        W53123   9.296   1.819   8.344
52260W        W53124   7.903   1.275   9.664
52261W        W53125   7.769   1.242  10.389
52262W        W53126   7.595   0.242   8.860
52263W        W53127   9.492   0.539   9.360
52264W        W53128   9.164   0.665  10.626
52265W        W53129   9.688   0.480   7.726
52266W        W53130  10.615   2.994  10.568
52267W        W53131   9.496   0.236  10.603
52268W        W53132  10.571   2.532  10.792
52269W        W53133  10.098   0.705  10.192
52270W        W53134   9.771   0.645   8.540
52271W        W53135  10.233   1.880  10.813
52272W        W53136   7.949   3.301   8.876
52273W        W53137   8.652   1.057   7.956
52274W        W53138   8.307   0.459  10.602
52275W        W53139  10.174   0.918   8.277
52276W        W53140  10.551   1.236   8.130
52277W        W53141   8.522   3.304  10.681
52278W        W53142   8.507   0.029   7.986
52279W        W53143  10.572   0.516   8.852
52280W        W53144  10.882   2.958   7.169
52281W        W53145   7.619   1.991   9.075
52282W        W53146   9.668   0.613   7.233
52283W        W53147  10.941   2.893   9.302
52284W        W53148  10.731   0.226   9.810
52285W        W53149   9.394   1.398  10.367
52286W        W53150   9.059   2.559   8.043
52287W        W53151   9.669   2.049  10.918
52288W        W53152   9.435   0.080   9.095
52289W        W53153   8.011   1.021   9.030
52290W        W53154   7.555   2.170   9.945
52291W        W53155   9.436   3.301   8.868
52292W        W53156  10.524   1.293   9.478
52293W        W53157   9.345   3.262  10.060
52294W        W53158  10.629   2.022   7.403
52295W        W53159   8.800   1.765   8.466
52296W        W53160  10.854   0.306  10.305
52297W        W53161   9.162   2.284   9.756
52298W        W53162   9.330   1.025   9.479
52299W        W53163   9.898   1.277   8.011
52300W        W53164  10.316   1.237   7.677
52301W        W53165  10.471   2.885   8.384
52302W        W53166   9.818   2.432   9.076
52303W        W53167   9.880   1.899   7.865
52304W        W53168   9.227   2.026   8.823
52305W        W53169  10.347   1.726   9.100
52306W        W53170   7.847   0.809   9.479
52307W        W53171  10.291   1.769  10.239
52308W        W53172  10.809   3.341   9.491
52309W        W53173   8.637   3.040   8.862
52310W        W53174   9.862   3.352   9.984
52311W        W53175   9.708   0.637   9.823
52312W        W53176   9.007   3.598   9.862
52313W        W53177  10.534   0.512   8.313
52314W        W53178  10.449   1.769   9.652
52315W        W53179   7.431   1.114   9.758
52316W        W53180  10.175   0.836   8.782
52317W        W53181  10.582   1.005  10.435
52318W        W53182   9.385   2.542   8.779
52319W        W53183   8.805   3.346   8.477
52320W        W53184   7.869   0.444   7.612
52321W        W53185   9.028   0.220   9.404
52322W        W53186   7.817   3.521   7.550
52323W        W53187   8.483   1.819   8.010
52324W        W53188   9.128   2.300  10.298
52325W        W53189   8.865   0.762   8.532
52326W        W53190  10.152   0.309   8.614
52327W        W53191  10.092   3.617   9.064
52328W        W53192   9.329   3.275   9.389
52329W        W53193   8.793   2.265   9.372
52330W        W53194  10.567   2.924   9.665
52331W        W53195   8.193   0.383   8.207
52332W        W53196   8.644   2.787   9.301
52333W        W53197   8.288   0.685   7.306
52334W        W53198   9.057   1.465   9.589
52335W        W53199   9.862   0.168   9.475
52336W        W53200   7.331   2.099   9.482
52337W        W53201   8.997   1.765   7.580
52338W        W53202   8.326   0.195   7.471
52339W        W53203   8.974   1.274   8.511
52340W        W53204   9.806   0.266  10.177
52341W        W53205   8.634   2.220  10.150
52342W        W53206   9.428   1.910  10.476
52343W        W53207   9.912   2.061  10.437
52344W        W53208   9.253   0.363  11.044
52345W        W53209   8.437   0.790   9.253
52346W        W53210   7.942   0.703   8.602
52347W        W53211   7.554   3.390   8.522
52348W        W53212   9.185   2.742  10.569
52349W        W53213   8.144   2.265   7.824
52350W        W53214   9.633   1.948   9.119
52351W        W53215   9.921   1.594   9.375
52352W        W53216   9.151   1.895   9.336
52353W        W53217   9.807   2.492   7.183
52354W        W53218   9.374   0.555   8.868
52355W        W53219  10.877   0.851   8.117
52356W        W53220   7.619   3.389  10.306
52357W        W53221   7.796   2.622   9.810
52358W        W53222   7.166   3.474   8.067
52359W        W53223   9.165   0.606   9.742
52360W        W53224   8.282   2.851   7.704
52361W        W53225  10.794   3.015   8.003
52362W        W53226   9.420   1.666   7.846
52363W        W53227   8.369   0.856   8.335
52364W        W53228   9.225   0.846   7.377
52365W        W53229   9.610   2.459  10.496
52366W        W53230  10.034   0.457   8.119
52367W        W53231   7.405   0.204   7.507
52368W        W53232   8.711   2.583   9.772
52369W        W53233   8.397   2.381   9.023
52370W        W53234   8.291   2.459   7.350
52371W        W53235   7.425   3.031   8.181
52372W        W53236   8.042   1.690  10.418
52373W        W53237   8.744   0.416  10.869
52374W        W53238   9.316   0.430  10.176
52375W        W53239   8.621   0.216   8.475
52376W        W53240   9.570   0.140   8.097
52377W        W53241   7.727   0.297   9.424
52378W        W53242   7.571   1.098   8.732
52379W        W53243  10.334   0.220   9.259
52380W        W53244   7.812   0.747   8.068
52381W        W53245  10.223   0.445   9.724
52382W        W53246  10.663   1.492   7.337
52383W        W53247   8.028   0.512   9.086
52384W        W53248   9.201   0.948  10.156
52385W        W53249   7.424   0.739   7.545
52386W        W53250   8.054   2.099  10.062
52387W        W53251   9.443   1.464   9.217
52388W        W53252   9.095   3.505   7.616
52389W        W53253   7.613   1.832   7.317
52390W        W53254   8.253   2.304  10.484
52391W        W53255   7.718   1.662  10.019
52392W        W53256   8.826   1.885   9.791
52393W        W53257  10.331   0.213  10.165
52394W        W53258  10.831   1.803  10.186
52395W        W53259  10.695   1.640   7.838
52396W        W53260   9.448   2.171   7.982
52397W        W53261  10.237   3.612   7.247
52398W        W53262   9.390   1.585  10.889
52399W        W53263   7.941   2.512  10.823
52400W        W53264  10.921   0.658  10.694
52401W        W53265  10.175   1.231   9.098
52402W        W53266   9.015   3.364  10.865
52403W        W53267   8.830   0.182   7.620
52404W        W53268  10.548   2.502   7.593
52405W        W53269   8.191   0.959  10.471
52406W        W53270   8.747   2.704  10.271
52407W        W53271  10.585   0.657  10.043
52408W        W53272  10.565   3.562   7.675
52409W        W53273  10.073   2.087   9.379
52410W        W53274   8.293   0.594  10.090
52411W        W53275   8.876   1.639  10.854
52412W        W53276   8.166   2.674   8.169
52413W        W53277  10.251   1.853   8.592
52414W        W53278   7.873   0.881  10.000
52415W        W53279   9.003   2.846   8.518
52416W        W53280  10.729   1.444   8.817
52417W        W53281   8.982   0.184  10.475
52418W        W53282  10.053   2.814   9.350
52419W        W53283  10.405   3.172   9.207
52420W        W53284   9.198   2.823   7.609
52421W        W53285   7.513   2.765  10.659
52422W        W53286   8.311   0.954   9.713
52423W        W53287   8.105   0.218   8.685
52424W        W53288   9.848   1.070   9.497
52425W        W53289   8.616   2.116   7.582
52426W        W53290  10.612   2.143   9.319
52427W        W53291   7.939   3.001  10.467
52428W        W53292  10.538   3.690   8.373
52429W        W53293   8.436   0.596   8.778
52430W        W53294   8.031   2.017   8.778
52431W        W53295   8.491   3.565   9.725
52432W        W53296  10.475   3.496  10.582
52433W        W53297   9.596   1.944   9.619
52434W        W53298   7.547   1.324   7.405
52435W        W53299  10.841   3.262   8.469
52436W        W53300  10.410   0.760   7.849
52437W        W53301   8.513   0.141  10.190
52438W        W53302  10.708   2.923   8.844
52439W        W53303  10.285   1.347   8.573
52440W        W53304   8.532   1.108   8.799
52441W        W53305   8.931   1.405  10.097
52442W        W53306   9.996   2.478  10.105
52443W        W53307   8.589   1.025  10.144
52444W        W53308   8.428   3.509   8.799
52445W        W53309   8.043   3.473  10.626
52446W        W53310   7.953   3.069   7.310
52447W        W53311  10.597   2.451   8.618
52448W        W53312   8.177   1.318  10.088
52449W        W53313  10.846   1.146   7.680
52450W        W53314   8.581   2.363   8.063
52451W        W53315   9.757   1.682  10.132
52452W        W53316   9.551   1.438   9.724
52453W        W53317   8.149   1.716   9.724
52454W        W53318  10.325   3.400   9.704
52455W        W53319  10.008   0.319  10.653
52456W        W53320   7.839   0.569  10.415
52457W        W53321   8.256   1.386   9.305
52458W        W53322   8.411   1.119   7.516
52459W        W53323   7.476   2.899  10.160
52460W        W53324   8.649   1.733   9.336
52461W        W53325   8.755   0.704   7.575
52462W        W53326   8.127   1.697   8.374
52463W        W53327   7.517   3.513   9.809
52464W        W53328  10.255   1.719   7.564
52465W        W53329  10.451   0.533  10.549
52466W        W53330  10.208   2.746   8.828
52467W        W53331   7.513   1.647  10.610
52468W        W53332  10.509   0.246   7.769
52469W        W53333  10.192   2.299   8.346
52470W        W53334   8.950   1.487   8.029
52471W        W53335  10.136   0.512   7.471
52472W        W53336  10.269   0.962   9.778
52473W        W53337   7.876   1.537   8.978
52474W        W53338   8.060   2.512   8.630
52475W        W53339   9.812   1.173   8.534
52476W        W53340   8.954   0.715   9.276
52477W        W53341  10.883   2.542   9.847
52478W        W53342  10.702   0.599   9.455
52479W        W53343   7.248   3.316   8.939
52480W        W53344   7.654   2.572   8.227
52481W        W53345   7.890   0.489  10.939
52482W        W53346   8.817   2.889  10.896
52483W        W53347  10.723   1.984   8.831
52484W        W53348  10.112   2.200   7.482
52485W        W53349   9.519   3.628   9.700
52486W        W53350  10.042   2.411  10.825
52487W        W53351   9.017   0.117   8.112
52488W        W53352   9.682   0.972   9.003
52489W        W53353   7.526   2.569   9.395
52490W        W53354   8.718   0.539   8.071
52491W        W53355   8.478   1.883  10.635
52492W        W53356   9.363   0.947   8.547
52493W        W53357   9.748   2.457   9.615
52494W        W53358   7.911   3.098   9.953
52495W        W53359   8.383   2.776  10.644
52496W        W53360   8.284   0.707   7.821
52497W        W53361   9.633   0.840   8.093
52498W        W53362   9.711   2.914  10.241
52499W        W53363   8.397   1.616   8.829
52500W        W53364   7.999   3.473   9.609
52501W        W53365  10.739   3.452   7.210
52502W        W53366   7.703   2.085  10.465
52503W        W53367   9.322   2.375   9.266
52504W        W53368   7.928   2.154   8.286
52505W        W53369   8.375   3.026   9.702
52506W        W53370   8.901   0.375   8.886
52507W        W53371   7.478   2.141   7.747
52508W        W53372   8.926   1.241   7.547
52509W        W53373   7.646   1.752   8.560
52510W        W53374   8.820   0.576  10.184
52511W        W53375  10.595   0.382   7.288
52512W        W53376  10.735   1.990  10.663
52513W        W53377   9.425   3.197  10.569
52514W        W53378  10.857   2.389  10.362
52515W        W53379  10.222   2.966  10.940
52516W        W53380   8.079   3.711   9.161
52517W        W53381  11.002   2.190   8.417
52518W        W53382   9.415   1.471   8.708
52519W        W53383   9.150  28.987   8.618
52520W        W53384   8.333   3.096   8.459
52521W        W53385   8.860   1.001   9.720
52522W        W53386   8.500   0.259   9.200
52523W        W53387   7.432   3.207   7.700
52524W        W53388   8.935   2.277   8.468
52525W        W53389   8.393   3.093  10.216
52526W        W53390   7.722   1.754   8.022
52527W        W53391   7.533   0.711   9.078
52528W        W53392   8.894   2.506   8.930
52529W        W53393   7.413   0.394   7.989
52530W        W53394  10.072   1.441   9.826
52531W        W53395   9.894   0.948   7.595
52532W        W53396  10.515   2.628   9.219
52533W        W53397   9.094   2.956   9.048
52534W        W53398   8.523   3.363   8.041
52535W        W53399   9.712   0.118   7.353
52536W        W53400   7.618   3.353   9.282
52537W        W53401   9.623   1.127  10.775
52538W        W53402   7.802   0.978  10.825
52539W        W53403   7.610   1.247   7.913
52540W        W53404   8.137   1.197   7.987
52541W        W53405   9.835   1.589  10.631
52542W        W53406   8.181   1.916   9.243
52543W        W53407   9.646   0.154   8.625
52544W        W53408   8.951   3.454   8.970
52545W        W53409  10.083   2.909   9.846
52546W        W53410   9.914   3.143   8.974
52547W        W53411   9.780   2.096   8.653
52548W        W53412   9.190   0.503   7.807
52549W        W53413  10.856   0.148   8.550
52550W        W53414   8.522   1.614   7.496
52551W        W53415  10.637   0.969   8.568
52552W        W53416   9.121   2.283   7.593
52553W        W53417  10.360   2.269  10.421
52554W        W53418  10.546   3.061   7.539
52555W        W53419   8.674   0.867  10.634
52556W        W53420   8.558   1.412   9.736
52557W        W53421  10.490   2.693  10.125
52558W        W53422   9.640   0.734  10.416
52559W        W53423   7.322   1.370  10.195
52560W        W53424   9.272   1.785   9.994
52561W        W53425   7.597   2.322   8.683
52562W        W53426   7.702   1.695   9.476
52563W        W53427  10.045   2.026   9.878
52564W        W53428   9.974   3.271  10.583
52565W        W53429   9.736   1.100  10.060
52566W        W53430  10.340   3.272   8.697
52567W        W53431   8.851   3.084   9.907
52568W        W53432   8.334   3.267   9.251
52569W        W53433  10.290   2.467   9.661
52570W        W53434   9.400   2.509  10.966
52571W        W53435   7.899   2.419   9.102
52572W        W53436  10.266   2.232   8.932
52573W        W53437   9.867   3.318   9.455
52574W        W53438   7.916   2.971   9.426
52575W        W53439   9.079   1.179  10.724
52576W        W53440   9.059   3.164   8.057
52577W        W53441   8.761   2.373  10.665
52578W        W53442   8.643   2.869   8.102
52579W        W53443   8.031   1.458   7.441
52580W        W53444   7.403   3.574  14.421
52581W        W53445   7.786   2.532  13.904
52582W        W53446  10.443   2.193  11.623
52583W        W53447  10.697   3.327  13.585
52584W        W53448   8.469   3.243  11.182
52585W        W53449   8.634   1.405  12.049
52586W        W53450   8.168   1.355  12.283
52587W        W53451   8.885   2.036  11.837
52588W        W53452   8.845   3.243  14.022
52589W        W53453   7.407   0.766  13.839
52590W        W53454   7.989   0.153  13.641
52591W        W53455   9.932   0.475  12.658
52592W        W53456   9.575   1.247  11.286
52593W        W53457  10.138   0.783  14.387
52594W        W53458   7.653   0.507  13.458
52595W        W53459   7.639   3.124  14.515
52596W        W53460   9.292   2.698  11.465
52597W        W53461   7.600   1.221  12.947
52598W        W53462   8.456   1.354  14.235
52599W        W53463  10.782   1.015  12.636
52600W        W53464  10.514   1.982  13.413
52601W        W53465   9.098   1.387  12.633
52602W        W53466   9.577   2.834  13.022
52603W        W53467   7.983   2.145  13.154
52604W        W53468   7.292   1.631  12.868
52605W        W53469   8.469   1.736  13.840
52606W        W53470  10.657   1.556  14.127
52607W        W53471   8.190   2.929  12.563
52608W        W53472   9.312   2.682  13.742
52609W        W53473   8.716   1.272  12.967
52610W        W53474   8.737   2.079  12.534
52611W        W53475   9.632   2.900  14.523
52612W        W53476   8.993   2.028  14.525
52613W        W53477   8.958   1.881  14.005
52614W        W53478   7.473   1.113  14.571
52615W        W53479  10.064   2.664  14.246
52616W        W53480   7.755   0.229  11.915
52617W        W53481   8.298   2.556  13.155
52618W        W53482  10.713   2.453  12.492
52619W        W53483  10.380   0.801  12.914
52620W        W53484  10.508   0.871  10.960
52621W        W53485  10.992   1.558  13.309
52622W        W53486   8.884   3.277  13.098
52623W        W53487  10.634   2.685  11.650
52624W        W53488   7.829   3.605  11.620
52625W        W53489   8.147   3.411  11.978
52626W        W53490   8.164   0.432  13.228
52627W        W53491  10.545   1.473  13.566
52628W        W53492   9.916   1.674  12.089
52629W        W53493   9.886   1.631  11.150
52630W        W53494   9.169   2.583  13.229
52631W        W53495   9.150   0.878  12.475
52632W        W53496   9.654   3.007  13.505
52633W        W53497  10.472   1.808  11.986
52634W        W53498   9.056   0.486  12.101
52635W        W53499   8.071   3.133  11.531
52636W        W53500   7.437   0.598  12.129
52637W        W53501   9.901   1.391  12.524
52638W        W53502   7.683   2.900  12.588
52639W        W53503   8.934   3.108  11.360
52640W        W53504  10.231   1.337  10.867
52641W        W53505   7.478   2.924  13.123
52642W        W53506   8.231   2.613  13.671
52643W        W53507   8.450   1.878  12.152
52644W        W53508   8.671   0.537  13.340
52645W        W53509  10.856   0.260  12.810
52646W        W53510   7.998   1.908  10.875
52647W        W53511   7.839   1.012  11.331
52648W        W53512   7.930   2.930  12.108
52649W        W53513   8.607   2.387  12.095
52650W        W53514  10.206   3.093  14.000
52651W        W53515   9.223   1.069  11.629
52652W        W53516  10.519   3.515  12.646
52653W        W53517  10.131   1.341  13.859
52654W        W53518  10.875   2.770  12.094
52655W        W53519   9.529   2.199  13.786
52656W        W53520   7.575   1.561  12.043
52657W        W53521   8.395   2.156  13.474
52658W        W53522   9.555   1.437  11.781
52659W        W53523   9.396   1.918  11.915
52660W        W53524   7.930   1.288  13.375
52661W        W53525   7.723   1.078  14.129
52662W        W53526   7.636   0.192  12.429
52663W        W53527   9.439   0.565  12.914
52664W        W53528   9.227   0.638  14.295
52665W        W53529   9.666   0.456  11.393
52666W        W53530  10.703   3.196  14.110
52667W        W53531   9.566   0.219  14.182
52668W        W53532  10.577   2.705  14.242
52669W        W53533  10.152   0.787  13.816
52670W        W53534   9.890   0.590  12.127
52671W        W53535  10.300   1.766  14.429
52672W        W53536   7.907   3.359  12.434
52673W        W53537   8.688   1.185  11.575
52674W        W53538   8.283   0.393  14.257
52675W        W53539  10.237   0.936  11.850
52676W        W53540  10.647   1.359  11.785
52677W        W53541   8.425   3.405  14.291
52678W        W53542   8.508   0.068  11.663
52679W        W53543  10.615   0.560  12.484
52680W        W53544  10.835   2.829  11.196
52681W        W53545   7.712   2.036  12.727
52682W        W53546   9.679   0.627  10.917
52683W        W53547  10.750   2.972  12.732
52684W        W53548  10.701   0.314  13.336
52685W        W53549   9.313   1.503  14.082
52686W        W53550   9.719   2.920  11.718
52687W        W53551   9.839   1.883  14.605
52688W        W53552   9.462   0.057  12.783
52689W        W53553   7.966   1.032  12.619
52690W        W53554   7.692   2.118  13.610
52691W        W53555   9.347   3.095  12.314
52692W        W53556  10.654   1.199  13.122
52693W        W53557   9.330   3.265  13.845
52694W        W53558  10.571   2.114  11.134
52695W        W53559   8.990   1.734  12.249
52696W        W53560  10.909   0.319  13.861
52697W        W53561   9.043   2.235  13.618
52698W        W53562   9.377   1.084  12.978
52699W        W53563  10.038   1.362  11.641
52700W        W53564  10.445   1.227  11.333
52701W        W53565  10.281   2.985  11.949
52702W        W53566   9.939   2.660  12.708
52703W        W53567   9.828   1.863  11.620
52704W        W53568   9.249   1.991  12.651
52705W        W53569  10.333   1.758  12.495
52706W        W53570   7.881   0.830  13.098
52707W        W53571  10.303   1.833  13.892
52708W        W53572  10.791   3.394  13.074
52709W        W53573   8.702   2.998  12.575
52710W        W53574   9.846   3.408  13.800
52711W        W53575   9.698   0.790  13.520
52712W        W53576   8.988   3.559  13.561
52713W        W53577  10.516   0.507  11.963
52714W        W53578  10.390   1.653  13.039
52715W        W53579   7.502   1.027  13.421
52716W        W53580  10.200   0.882  12.411
52717W        W53581  10.569   1.085  13.935
52718W        W53582   9.466   2.616  12.474
52719W        W53583   8.852   3.263  12.151
52720W        W53584   7.868   0.513  11.465
52721W        W53585   9.039   0.245  13.072
52722W        W53586   7.979   3.486  11.144
52723W        W53587   8.524   1.723  11.637
52724W        W53588   9.089   2.365  14.108
52725W        W53589   8.893   0.953  12.008
52726W        W53590  10.256   0.239  12.323
52727W        W53591  10.007   3.600  12.727
52728W        W53592   9.380   3.318  12.999
52729W        W53593   8.714   2.239  13.070
52730W        W53594  10.572   2.949  13.232
52731W        W53595   8.215   0.447  11.839
52732W        W53596   8.736   2.786  13.029
52733W        W53597   8.277   0.836  10.988
52734W        W53598   9.105   1.442  13.261
52735W        W53599   9.873   0.199  13.100
52736W        W53600   7.452   2.033  13.173
52737W        W53601   8.912   1.903  11.321
52738W        W53602   8.342   0.379  11.248
52739W        W53603   9.243   1.282  12.147
52740W        W53604   9.851   0.334  13.722
52741W        W53605   8.606   2.259  13.926
52742W        W53606   9.447   1.980  14.252
52743W        W53607   9.947   2.129  14.143
52744W        W53608   9.255   0.342  14.702
52745W        W53609   8.420   0.848  12.893
52746W        W53610   7.943   0.707  12.202
52747W        W53611   7.596   3.333  12.008
52748W        W53612   9.192   2.887  14.206
52749W        W53613   8.023   1.851  11.392
52750W        W53614   9.878   1.876  12.745
52751W        W53615   9.941   1.386  13.025
52752W        W53616   9.205   2.061  13.165
52753W        W53617   9.804   2.629  11.267
52754W        W53618   9.468   0.452  12.411
52755W        W53619  10.974   0.950  11.718
52756W        W53620   7.536   3.347  13.953
52757W        W53621   7.781   2.570  13.357
52758W        W53622   7.159   3.243  11.628
52759W        W53623   9.195   0.694  13.365
52760W        W53624   8.467   2.733  11.261
52761W        W53625  10.291   3.050  11.436
52762W        W53626   9.396   1.712  11.385
52763W        W53627   8.391   0.923  12.029
52764W        W53628   9.261   0.874  11.122
52765W        W53629   9.569   2.496  14.202
52766W        W53630  10.098   0.478  11.666
52767W        W53631   7.543   0.196  11.191
52768W        W53632   8.703   2.575  13.487
52769W        W53633   8.497   2.519  12.646
52770W        W53634   8.390   2.255  11.009
52771W        W53635   7.601   2.916  11.705
52772W        W53636   8.059   1.694  14.242
52773W        W53637   8.756   0.387  14.485
52774W        W53638   9.328   0.485  13.811
52775W        W53639   8.623   0.218  12.139
52776W        W53640   9.504   0.305  11.887
52777W        W53641   7.718   0.321  12.984
52778W        W53642   7.597   1.091  12.257
52779W        W53643  10.359   0.281  12.916
52780W        W53644   7.959   1.125  11.843
52781W        W53645  10.171   0.555  13.336
52782W        W53646  10.662   1.611  11.034
52783W        W53647   8.078   0.539  12.698
52784W        W53648   9.139   0.990  13.908
52785W        W53649   7.452   0.696  11.185
52786W        W53650   8.113   2.115  13.920
52787W        W53651   9.467   1.613  12.931
52788W        W53652   9.329   3.465  11.329
52789W        W53653   7.500   1.941  11.069
52790W        W53654   8.272   2.625  14.181
52791W        W53655   7.736   1.651  13.837
52792W        W53656   8.789   1.830  13.428
52793W        W53657  10.377   0.303  13.737
52794W        W53658  10.878   1.870  13.766
52795W        W53659  10.810   1.808  11.521
52796W        W53660   9.649   2.371  11.762
52797W        W53661  10.148   3.487  11.033
52798W        W53662   9.394   1.583  14.599
52799W        W53663   7.820   2.626  14.440
52800W        W53664  11.001   0.623  14.327
52801W        W53665  10.363   1.281  12.696
52802W        W53666   8.887   3.410  14.510
52803W        W53667   8.848   0.245  11.335
52804W        W53668  10.348   2.569  11.240
52805W        W53669   8.202   0.893  14.163
52806W        W53670   8.753   2.742  13.968
52807W        W53671  10.613   0.786  13.520
52808W        W53672   9.998   3.398  11.713
52809W        W53673  10.070   2.246  13.066
52810W        W53674   8.307   0.556  13.747
52811W        W53675   8.895   1.545  14.404
52812W        W53676   8.243   2.659  11.745
52813W        W53677  10.063   2.147  11.987
52814W        W53678   7.912   0.879  13.698
52815W        W53679   8.974   2.744  12.225
52816W        W53680  10.748   1.443  12.353
52817W        W53681   9.042   0.175  14.118
52818W        W53682  10.049   2.791  13.200
52819W        W53683  10.247   3.114  12.843
52820W        W53684   9.334   3.013  11.050
52821W        W53685   7.427   2.818  14.148
52822W        W53686   8.312   0.929  13.380
52823W        W53687   8.128   0.236  12.293
52824W        W53688   9.869   0.860  13.023
52825W        W53689   8.914   2.448  11.180
52826W        W53690  10.561   2.097  12.849
52827W        W53691   7.897   3.002  14.065
52828W        W53692  10.424   3.557  11.967
52829W        W53693   8.516   0.613  12.433
52830W        W53694   8.224   2.056  12.623
52831W        W53695   8.527   3.563  13.328
52832W        W53696  10.352   3.568  14.197
52833W        W53697   9.684   1.936  13.284
52834W        W53698   7.715   1.459  11.042
52835W        W53699  10.663   3.204  12.257
52836W        W53700  10.523   0.725  11.469
52837W        W53701   8.544   0.116  13.881
52838W        W53702  10.348   2.819  12.434
52839W        W53703  10.289   1.341  12.167
52840W        W53704   8.667   1.102  12.474
52841W        W53705   8.891   1.430  13.758
52842W        W53706  10.024   2.683  13.719
52843W        W53707   8.557   1.035  13.827
52844W        W53708   8.427   3.398  12.425
52845W        W53709   7.926   3.471  14.286
52846W        W53710   8.056   3.006  10.980
52847W        W53711  10.434   2.478  12.069
52848W        W53712   8.130   1.328  13.845
52849W        W53713  10.959   1.317  11.339
52850W        W53714   8.556   2.263  11.513
52851W        W53715   9.753   1.740  13.819
52852W        W53716   9.610   1.402  13.419
52853W        W53717   8.082   1.762  13.494
52854W        W53718  10.302   3.540  13.153
52855W        W53719  10.082   0.310  14.186
52856W        W53720   7.819   0.485  14.030
52857W        W53721   8.211   1.329  12.949
52858W        W53722   8.610   1.225  11.033
52859W        W53723   7.436   2.898  13.642
52860W        W53724   8.879   1.760  12.919
52861W        W53725   8.762   0.768  11.250
52862W        W53726   8.068   1.634  11.865
52863W        W53727   7.534   3.391  13.424
52864W        W53728  10.317   1.732  11.419
52865W        W53729  10.541   0.603  14.117
52866W        W53730   9.923   2.622  12.175
52867W        W53731   7.559   1.551  14.310
52868W        W53732  10.497   0.205  11.446
52869W        W53733  10.109   2.581  11.682
52870W        W53734   9.036   1.551  11.736
52871W        W53735  10.149   0.503  11.137
52872W        W53736  10.196   1.099  13.385
52873W        W53737   7.725   1.535  12.543
52874W        W53738   8.128   2.465  12.269
52875W        W53739   9.823   1.134  12.094
52876W        W53740   8.928   0.782  12.934
52877W        W53741  10.890   2.548  13.385
52878W        W53742  10.883   0.714  13.062
52879W        W53743   7.389   3.352  12.525
52880W        W53744   7.758   2.462  11.896
52881W        W53745   7.837   0.222  14.504
52882W        W53746   8.665   2.944  14.441
52883W        W53747  10.833   1.955  12.410
52884W        W53748  10.047   2.153  11.269
52885W        W53749   9.495   3.540  13.441
52886W        W53750  10.353   2.277  14.453
52887W        W53751   9.008   0.097  11.795
52888W        W53752   9.667   0.916  12.539
52889W        W53753   7.443   2.469  12.872
52890W        W53754   8.697   0.562  11.727
52891W        W53755   8.531   1.920  14.314
52892W        W53756   9.428   0.814  12.031
52893W        W53757   9.670   2.472  13.377
52894W        W53758   7.926   3.024  13.561
52895W        W53759   8.149   3.031  14.497
52896W        W53760   8.298   0.843  11.512
52897W        W53761   9.749   0.903  11.639
52898W        W53762   9.695   2.958  14.018
52899W        W53763   8.530   1.593  12.581
52900W        W53764   8.048   3.420  13.274
52901W        W53765  10.622   3.272  11.032
52902W        W53766   7.640   2.070  14.140
52903W        W53767   9.576   2.313  12.887
52904W        W53768   8.164   2.145  11.827
52905W        W53769   8.432   3.025  13.385
52906W        W53770   8.981   0.399  12.590
52907W        W53771   7.343   2.266  11.456
52908W        W53772   9.060   1.354  11.238
52909W        W53773   7.871   1.968  12.230
52910W        W53774   8.816   0.577  13.859
52911W        W53775  10.646   0.365  10.999
52912W        W53776  10.771   2.052  14.239
52913W        W53777   9.371   3.353  14.367
52914W        W53778  10.910   2.451  13.906
52915W        W53779  10.334   3.114  14.486
52916W        W53780   8.123   3.650  12.823
52917W        W53781  10.842   2.184  11.948
52918W        W53782   9.495   1.656  12.376
52919W        W53783   9.230  29.000  12.293
52920W        W53784   8.467   2.901  12.132
52921W        W53785   8.827   1.032  13.404
52922W        W53786   8.540   0.306  12.876
52923W        W53787   7.570   3.255  11.332
52924W        W53788   9.141   2.257  12.230
52925W        W53789   8.366   3.089  13.890
52926W        W53790   7.658   1.965  11.744
52927W        W53791   7.594   0.674  12.609
52928W        W53792   9.033   2.448  12.724
52929W        W53793   7.380   0.444  11.638
52930W        W53794  10.084   1.655  13.444
52931W        W53795  10.006   0.990  11.190
52932W        W53796  10.426   2.593  12.896
52933W        W53797   9.160   2.927  12.767
52934W        W53798   8.569   3.194  11.717
52935W        W53799   9.710   0.076  11.036
52936W        W53800   7.697   3.351  12.917
52937W        W53801   9.689   1.072  14.452
52938W        W53802   7.876   0.735  14.532
52939W        W53803   7.682   1.464  11.555
52940W        W53804   8.209   1.358  11.405
52941W        W53805   9.842   1.518  14.259
52942W        W53806   8.384   1.810  13.065
52943W        W53807   9.770   0.064  12.266
52944W        W53808   9.035   3.394  12.616
52945W        W53809  10.198   3.171  13.504
52946W        W53810   9.743   3.153  12.643
52947W        W53811   9.671   2.153  12.337
52948W        W53812   9.188   0.560  11.564
52949W        W53813  10.805   0.129  12.177
52950W        W53814   8.446   1.726  11.122
52951W        W53815  10.657   0.973  12.142
52952W        W53816   9.364   2.203  11.364
52953W        W53817  10.392   2.345  13.923
52954W        W53818   9.802   3.163  11.245
52955W        W53819   8.739   0.877  14.287
52956W        W53820   8.467   1.417  13.420
52957W        W53821  10.560   2.827  13.738
52958W        W53822   9.714   0.704  14.070
52959W        W53823   7.366   1.305  13.832
52960W        W53824   9.283   1.772  13.612
52961W        W53825   7.619   2.399  12.390
52962W        W53826   7.835   1.668  13.044
52963W        W53827  10.023   2.159  13.605
52964W        W53828   9.883   3.352  14.316
52965W        W53829   9.650   1.175  13.890
52966W        W53830  10.157   3.295  12.342
52967W        W53831   8.955   3.022  13.548
52968W        W53832   8.403   3.233  12.922
52969W        W53833  10.387   2.475  13.407
52970W        W53834   9.189   2.517  14.585
52971W        W53835   7.963   2.498  12.770
52972W        W53836  10.198   2.269  12.498
52973W        W53837   9.859   3.298  13.136
52974W        W53838   7.989   2.947  13.046
52975W        W53839   9.172   1.121  14.449
52976W        W53840   9.186   3.062  11.816
52977W        W53841   8.680   2.424  14.426
52978W        W53842   8.782   2.712  11.701
52979W        W53843   8.163   1.370  10.817
52980W        W53844   7.355   3.625  18.034
52981W        W53845   7.794   2.546  17.599
52982W        W53846  10.618   2.042  15.256
52983W        W53847  10.579   3.353  17.352
52984W        W53848   8.457   3.284  14.803
52985W        W53849   8.523   1.454  15.686
52986W        W53850   8.148   1.414  16.044
52987W        W53851   8.736   2.010  15.537
52988W        W53852   8.835   3.294  17.780
52989W        W53853   7.362   0.764  17.545
52990W        W53854   7.987   0.147  17.372
52991W        W53855   9.914   0.446  16.287
52992W        W53856   9.596   1.289  14.982
52993W        W53857   9.952   0.988  18.063
52994W        W53858   7.645   0.503  17.171
52995W        W53859   7.629   3.211  18.144
52996W        W53860   8.783   2.676  14.893
52997W        W53861   7.567   1.221  16.642
52998W        W53862   8.497   1.364  17.878
52999W        W53863  10.822   0.983  16.369
53000W        W53864  10.508   1.972  17.132
53001W        W53865   9.072   1.404  16.337
53002W        W53866   9.564   2.804  16.683
53003W        W53867   7.961   2.149  16.840
53004W        W53868   7.271   1.617  16.537
53005W        W53869   8.470   1.762  17.516
53006W        W53870  10.629   1.492  17.840
53007W        W53871   8.216   2.819  16.286
53008W        W53872   9.367   2.645  17.382
53009W        W53873   8.684   1.297  16.655
53010W        W53874   8.742   2.101  16.253
53011W        W53875   9.646   2.941  18.128
53012W        W53876   9.033   2.070  18.150
53013W        W53877   8.962   1.899  17.645
53014W        W53878   7.278   1.086  17.973
53015W        W53879  10.069   2.763  17.871
53016W        W53880   7.802   0.219  15.609
53017W        W53881   8.266   2.579  16.872
53018W        W53882  10.589   2.462  16.213
53019W        W53883  10.440   0.744  16.662
53020W        W53884  10.621   0.885  14.578
53021W        W53885  10.993   1.537  17.061
53022W        W53886   8.945   3.159  16.866
53023W        W53887  10.833   2.502  15.414
53024W        W53888   7.794   3.636  15.300
53025W        W53889   8.129   3.576  15.700
53026W        W53890   8.157   0.435  16.924
53027W        W53891  10.555   1.436  17.308
53028W        W53892   9.868   1.608  15.694
53029W        W53893  10.024   1.417  14.740
53030W        W53894   9.130   2.643  16.904
53031W        W53895   9.195   0.921  16.220
53032W        W53896   9.432   3.066  17.114
53033W        W53897  10.559   1.731  15.705
53034W        W53898   9.006   0.588  15.718
53035W        W53899   7.972   3.161  15.421
53036W        W53900   7.484   0.583  15.814
53037W        W53901   9.945   1.392  16.221
53038W        W53902   7.641   2.927  16.357
53039W        W53903   8.854   3.183  15.118
53040W        W53904  10.309   1.253  14.351
53041W        W53905   7.524   2.981  16.865
53042W        W53906   8.232   2.696  17.370
53043W        W53907   8.367   1.912  15.918
53044W        W53908   8.643   0.581  17.026
53045W        W53909  10.920   0.253  16.481
53046W        W53910   8.099   2.179  14.450
53047W        W53911   7.779   0.993  14.977
53048W        W53912   7.791   2.885  15.861
53049W        W53913   8.573   2.401  15.841
53050W        W53914  10.271   3.223  17.768
53051W        W53915   9.064   0.988  15.373
53052W        W53916  10.493   3.414  16.301
53053W        W53917  10.177   1.330  17.659
53054W        W53918  10.853   2.844  15.986
53055W        W53919   9.533   2.170  17.449
53056W        W53920   7.483   1.637  15.714
53057W        W53921   8.396   2.181  17.158
53058W        W53922   9.458   1.329  15.480
53059W        W53923   9.349   1.769  15.734
53060W        W53924   7.880   1.307  17.049
53061W        W53925   7.757   1.236  17.794
53062W        W53926   7.700   0.214  16.141
53063W        W53927   9.460   0.581  16.555
53064W        W53928   9.156   0.618  17.921
53065W        W53929   9.705   0.432  15.051
53066W        W53930  10.820   3.231  17.792
53067W        W53931   9.571   0.217  17.859
53068W        W53932  10.764   2.434  18.121
53069W        W53933  10.128   0.795  17.550
53070W        W53934   9.883   0.601  15.779
53071W        W53935  10.222   1.844  18.152
53072W        W53936   7.966   3.295  16.197
53073W        W53937   8.610   1.223  15.214
53074W        W53938   8.253   0.369  17.908
53075W        W53939  10.281   0.907  15.536
53076W        W53940  10.602   1.294  15.410
53077W        W53941   8.388   3.561  17.951
53078W        W53942   8.509   0.087  15.386
53079W        W53943  10.670   0.535  16.145
53080W        W53944  10.788   2.903  14.658
53081W        W53945   7.592   2.073  16.434
53082W        W53946   9.723   0.543  14.552
53083W        W53947  10.734   2.963  16.480
53084W        W53948  10.634   0.302  16.950
53085W        W53949   9.315   1.470  17.706
53086W        W53950   8.973   2.482  15.462
53087W        W53951   9.713   1.958  18.315
53088W        W53952   9.531   0.082  16.409
53089W        W53953   7.921   1.050  16.313
53090W        W53954   7.669   2.134  17.306
53091W        W53955   9.312   3.210  16.086
53092W        W53956  10.683   1.153  16.859
53093W        W53957   9.309   3.382  17.576
53094W        W53958  10.670   1.945  14.750
53095W        W53959   8.884   1.712  15.944
53096W        W53960  10.862   0.303  17.422
53097W        W53961   9.051   2.252  17.255
53098W        W53962   9.441   1.076  16.685
53099W        W53963  10.019   1.287  15.292
53100W        W53964  10.389   1.128  14.962
53101W        W53965  10.474   2.794  15.645
53102W        W53966  10.008   2.641  16.436
53103W        W53967   9.838   1.740  15.108
53104W        W53968   9.244   1.904  16.281
53105W        W53969  10.386   1.707  16.241
53106W        W53970   7.845   0.817  16.785
53107W        W53971  10.317   1.821  17.608
53108W        W53972  10.683   3.379  16.790
53109W        W53973   8.687   3.017  16.130
53110W        W53974   9.752   3.459  17.317
53111W        W53975   9.699   0.803  17.192
53112W        W53976   8.825   3.487  17.299
53113W        W53977  10.605   0.517  15.623
53114W        W53978  10.440   1.595  16.779
53115W        W53979   7.463   0.991  17.096
53116W        W53980  10.233   0.832  16.091
53117W        W53981  10.584   1.026  17.655
53118W        W53982   9.528   2.658  16.193
53119W        W53983   8.901   3.469  15.904
53120W        W53984   7.898   0.446  14.989
53121W        W53985   9.084   0.267  16.681
53122W        W53986   7.947   3.454  14.816
53123W        W53987   8.419   1.756  15.230
53124W        W53988   9.112   2.388  17.747
53125W        W53989   8.611   0.938  15.663
53126W        W53990  10.267   0.270  15.952
53127W        W53991  10.026   3.538  16.470
53128W        W53992   9.375   3.312  16.622
53129W        W53993   8.755   2.264  16.783
53130W        W53994  10.553   2.943  17.044
53131W        W53995   8.287   0.529  15.571
53132W        W53996   8.665   2.760  16.622
53133W        W53997   8.383   0.737  14.650
53134W        W53998   9.123   1.429  16.913
53135W        W53999   9.931   0.210  16.743
53136W        W54000   7.373   2.020  16.902
53137W        W54001   8.816   1.685  14.903
53138W        W54002   8.329   0.221  14.760
53139W        W54003   9.021   1.227  15.826
53140W        W54004   9.852   0.345  17.435
53141W        W54005   8.623   2.291  17.598
53142W        W54006   9.432   1.927  17.883
53143W        W54007   9.909   2.090  17.826
53144W        W54008   9.219   0.237  18.264
53145W        W54009   8.370   0.902  16.555
53146W        W54010   7.965   0.717  15.923
53147W        W54011   7.640   3.427  15.806
53148W        W54012   9.214   2.904  17.803
53149W        W54013   8.006   1.913  14.929
53150W        W54014  10.001   1.781  16.585
53151W        W54015   9.952   1.292  16.728
53152W        W54016   9.252   2.066  16.820
53153W        W54017   9.849   2.392  14.625
53154W        W54018   9.443   0.475  16.056
53155W        W54019  10.964   0.911  15.437
53156W        W54020   7.568   3.310  17.623
53157W        W54021   7.784   2.586  17.062
53158W        W54022   7.323   3.705  15.469
53159W        W54023   9.192   0.700  17.003
53160W        W54024   8.391   2.931  15.169
53161W        W54025  10.601   2.927  15.140
53162W        W54026   9.313   1.712  15.104
53163W        W54027   8.119   1.112  15.591
53164W        W54028   9.410   0.837  14.833
53165W        W54029   9.605   2.510  17.845
53166W        W54030  10.152   0.447  15.347
53167W        W54031   7.442   0.124  14.837
53168W        W54032   8.696   2.616  17.177
53169W        W54033   8.333   2.307  16.452
53170W        W54034   8.290   2.596  14.738
53171W        W54035   7.435   3.080  15.486
53172W        W54036   8.062   1.684  17.875
53173W        W54037   8.730   0.265  18.102
53174W        W54038   9.346   0.463  17.459
53175W        W54039   8.676   0.210  15.868
53176W        W54040   9.486   0.360  15.552
53177W        W54041   7.727   0.299  16.697
53178W        W54042   7.621   1.120  15.858
53179W        W54043  10.385   0.261  16.502
53180W        W54044   7.819   0.726  15.426
53181W        W54045  10.173   0.536  17.074
53182W        W54046  10.698   1.445  14.648
53183W        W54047   8.060   0.540  16.392
53184W        W54048   9.259   1.070  17.360
53185W        W54049   7.435   0.649  14.837
53186W        W54050   8.115   2.131  17.590
53187W        W54051   9.519   1.583  16.579
53188W        W54052   9.251   3.491  14.924
53189W        W54053   7.553   1.955  14.643
53190W        W54054   8.257   2.567  17.856
53191W        W54055   7.709   1.642  17.473
53192W        W54056   8.789   1.841  17.116
53193W        W54057  10.343   0.162  17.390
53194W        W54058  10.888   1.832  17.481
53195W        W54059  10.921   1.625  15.126
53196W        W54060   9.425   2.103  14.786
53197W        W54061  10.145   3.546  14.716
53198W        W54062   9.393   1.550  18.268
53199W        W54063   7.809   2.606  18.126
53200W        W54064  10.966   0.623  18.082
53201W        W54065  10.379   1.218  16.422
53202W        W54066   8.804   3.495  18.248
53203W        W54067   8.830   0.199  14.984
53204W        W54068  10.696   2.436  14.902
53205W        W54069   8.151   0.901  17.812
53206W        W54070   8.690   2.799  17.700
53207W        W54071  10.632   0.744  17.224
53208W        W54072  10.259   3.338  15.183
53209W        W54073  10.092   2.235  16.811
53210W        W54074   8.273   0.580  17.416
53211W        W54075   8.935   1.569  18.045
53212W        W54076   8.180   2.663  15.564
53213W        W54077  10.158   1.969  15.449
53214W        W54078   7.870   0.918  17.387
53215W        W54079   9.058   2.720  15.946
53216W        W54080  10.799   1.434  16.096
53217W        W54081   9.089   0.101  17.771
53218W        W54082  10.012   2.744  16.937
53219W        W54083  10.258   3.087  16.633
53220W        W54084   9.139   3.016  14.708
53221W        W54085   7.433   2.839  17.862
53222W        W54086   8.274   0.959  17.053
53223W        W54087   8.173   0.233  15.972
53224W        W54088   9.914   0.777  16.699
53225W        W54089   8.497   2.104  14.806
53226W        W54090  10.563   2.077  16.590
53227W        W54091   7.955   3.001  17.788
53228W        W54092  10.361   3.656  15.591
53229W        W54093   8.476   0.648  16.084
53230W        W54094   8.067   1.874  16.345
53231W        W54095   8.634   3.584  16.829
53232W        W54096  10.532   3.635  17.889
53233W        W54097   9.696   1.880  16.985
53234W        W54098   7.667   1.499  14.863
53235W        W54099  10.613   3.267  15.803
53236W        W54100  10.586   0.682  15.127
53237W        W54101   8.645   0.276  17.590
53238W        W54102  10.351   2.933  16.145
53239W        W54103  10.319   1.318  15.877
53240W        W54104   8.630   1.142  16.155
53241W        W54105   8.872   1.435  17.423
53242W        W54106   9.899   2.577  17.417
53243W        W54107   8.533   1.032  17.494
53244W        W54108   8.440   3.485  16.102
53245W        W54109   7.872   3.632  17.934
53246W        W54110   7.904   2.946  14.943
53247W        W54111  10.513   2.254  15.742
53248W        W54112   8.145   1.352  17.486
53249W        W54113  10.906   1.111  14.979
53250W        W54114   8.510   2.406  15.244
53251W        W54115   9.748   1.701  17.510
53252W        W54116   9.607   1.371  17.104
53253W        W54117   8.079   1.777  17.166
53254W        W54118  10.218   3.508  16.998
53255W        W54119  10.059   0.405  17.920
53256W        W54120   7.797   0.510  17.694
53257W        W54121   8.170   1.393  16.617
53258W        W54122   8.634   1.193  14.696
53259W        W54123   7.450   2.864  17.352
53260W        W54124   8.886   1.780  16.625
53261W        W54125   8.902   0.763  14.807
53262W        W54126   8.039   1.624  15.589
53263W        W54127   7.587   3.513  17.135
53264W        W54128  10.374   1.631  15.067
53265W        W54129  10.543   0.525  17.741
53266W        W54130  10.111   2.534  15.925
53267W        W54131   7.422   1.604  17.899
53268W        W54132  10.554   0.162  15.037
53269W        W54133  10.325   2.468  15.270
53270W        W54134   8.958   1.541  15.421
53271W        W54135  10.191   0.481  14.822
53272W        W54136  10.216   1.067  17.113
53273W        W54137   7.678   1.553  16.217
53274W        W54138   8.070   2.403  16.005
53275W        W54139   9.867   1.109  15.768
53276W        W54140   8.881   0.808  16.608
53277W        W54141  10.863   2.518  17.106
53278W        W54142  10.952   0.677  16.781
53279W        W54143   7.375   3.348  16.251
53280W        W54144   7.718   2.430  15.581
53281W        W54145   7.816   0.367  18.183
53282W        W54146   8.883   2.976  18.195
53283W        W54147  10.820   1.980  16.122
53284W        W54148  10.202   2.101  14.916
53285W        W54149   9.297   3.554  17.078
53286W        W54150  10.216   2.372  18.178
53287W        W54151   9.016   0.127  15.478
53288W        W54152   9.713   0.919  16.225
53289W        W54153   7.383   2.504  16.689
53290W        W54154   8.700   0.604  15.275
53291W        W54155   8.554   1.951  17.991
53292W        W54156   9.414   0.888  15.760
53293W        W54157   9.621   2.399  16.999
53294W        W54158   7.909   3.088  17.256
53295W        W54159   8.388   3.043  18.085
53296W        W54160   8.251   0.846  15.146
53297W        W54161   9.673   0.867  15.325
53298W        W54162   9.680   3.006  17.593
53299W        W54163   8.529   1.626  16.303
53300W        W54164   8.131   3.466  16.976
53301W        W54165  10.632   3.385  14.807
53302W        W54166   7.662   2.055  17.840
53303W        W54167   9.654   2.216  16.511
53304W        W54168   8.163   2.140  15.518
53305W        W54169   8.458   3.059  17.040
53306W        W54170   8.955   0.463  16.223
53307W        W54171   7.406   2.223  15.085
53308W        W54172   9.088   1.256  14.941
53309W        W54173   7.787   1.991  15.908
53310W        W54174   8.902   0.695  17.461
53311W        W54175  10.639   0.366  14.579
53312W        W54176  10.698   1.976  17.937
53313W        W54177   9.288   3.308  18.119
53314W        W54178  10.822   2.349  17.592
53315W        W54179  10.531   2.897  18.092
53316W        W54180   8.159   3.675  16.507
53317W        W54181  10.967   2.023  15.623
53318W        W54182   9.479   1.359  16.024
53319W        W54183   9.182   0.024  15.995
53320W        W54184   8.264   3.084  15.840
53321W        W54185   8.818   1.052  17.077
53322W        W54186   8.542   0.397  16.555
53323W        W54187   7.468   3.335  14.983
53324W        W54188   9.084   2.203  15.889
53325W        W54189   8.379   3.193  17.541
53326W        W54190   7.717   1.929  15.358
53327W        W54191   7.574   0.675  16.315
53328W        W54192   9.136   2.395  16.429
53329W        W54193   7.421   0.405  15.296
53330W        W54194  10.092   1.590  17.154
53331W        W54195   9.932   0.910  14.881
53332W        W54196  10.460   2.581  16.696
53333W        W54197   9.115   2.907  16.439
53334W        W54198   8.567   3.350  15.521
53335W        W54199   9.681   0.047  14.672
53336W        W54200   7.724   3.405  16.637
53337W        W54201   9.430   1.079  18.042
53338W        W54202   7.726   0.859  18.126
53339W        W54203   7.655   1.312  15.362
53340W        W54204   8.115   1.365  15.102
53341W        W54205   9.822   1.524  17.987
53342W        W54206   8.393   1.856  16.753
53343W        W54207   9.764   0.096  15.905
53344W        W54208   8.900   3.398  16.405
53345W        W54209  10.117   3.080  17.303
53346W        W54210   9.785   3.111  16.329
53347W        W54211   9.733   1.850  16.137
53348W        W54212   9.196   0.531  15.182
53349W        W54213  10.889   0.125  15.810
53350W        W54214   8.345   1.615  14.689
53351W        W54215  10.697   0.976  15.864
53352W        W54216   8.956   2.169  15.038
53353W        W54217  10.327   2.339  17.686
53354W        W54218  10.273   2.685  14.761
53355W        W54219   8.627   0.737  17.932
53356W        W54220   8.459   1.440  17.089
53357W        W54221  10.528   2.814  17.569
53358W        W54222   9.659   0.716  17.742
53359W        W54223   7.340   1.283  17.497
53360W        W54224   9.281   1.758  17.270
53361W        W54225   7.546   2.445  16.077
53362W        W54226   7.763   1.693  16.732
53363W        W54227  10.025   2.099  17.304
53364W        W54228   9.799   3.411  17.886
53365W        W54229   9.714   1.181  17.575
53366W        W54230  10.098   3.351  15.966
53367W        W54231   8.986   3.006  17.350
53368W        W54232   8.422   3.221  16.541
53369W        W54233  10.365   2.477  17.197
53370W        W54234   9.236   2.586  18.210
53371W        W54235   7.869   2.512  16.508
53372W        W54236  10.152   2.168  16.284
53373W        W54237   9.824   3.233  16.848
53374W        W54238   8.013   2.992  16.738
53375W        W54239   8.968   1.096  17.796
53376W        W54240   9.100   3.135  15.584
53377W        W54241   8.727   2.478  18.092
53378W        W54242   8.664   2.856  15.611
53379W        W54243   8.012   1.240  14.545
53380W        W54244   7.380   3.745  21.620
53381W        W54245   7.775   2.616  21.177
53382W        W54246  10.514   2.196  18.913
53383W        W54247  10.718   3.291  20.943
53384W        W54248   8.363   3.406  18.509
53385W        W54249   8.722   1.396  19.408
53386W        W54250   8.306   1.371  19.869
53387W        W54251   9.112   2.059  19.018
53388W        W54252   8.875   3.255  21.337
53389W        W54253   7.386   0.815  21.244
53390W        W54254   8.038   0.080  21.037
53391W        W54255  10.002   0.540  19.971
53392W        W54256   9.628   1.038  18.533
53393W        W54257  10.223   0.704  21.626
53394W        W54258   7.507   0.558  20.801
53395W        W54259   7.539   3.287  21.795
53396W        W54260   8.867   2.647  18.592
53397W        W54261   7.505   1.253  20.322
53398W        W54262   8.502   1.335  21.478
53399W        W54263  10.750   1.123  19.985
53400W        W54264  10.633   2.113  20.906
53401W        W54265   9.132   1.367  19.998
53402W        W54266   9.620   2.786  20.250
53403W        W54267   7.907   2.188  20.512
53404W        W54268   7.230   1.671  20.205
53405W        W54269   8.476   1.748  21.156
53406W        W54270  10.678   1.469  21.493
53407W        W54271   8.228   2.957  19.958
53408W        W54272   9.432   2.633  21.037
53409W        W54273   8.679   1.375  20.259
53410W        W54274   8.900   2.144  19.884
53411W        W54275   9.637   2.881  21.767
53412W        W54276   8.803   1.945  21.654
53413W        W54277   9.004   1.871  21.199
53414W        W54278   7.255   1.151  21.618
53415W        W54279  10.079   2.689  21.567
53416W        W54280   7.867   0.250  19.330
53417W        W54281   8.359   2.743  20.452
53418W        W54282  10.840   2.459  19.872
53419W        W54283  10.362   0.893  20.225
53420W        W54284  10.459   0.862  18.141
53421W        W54285  11.198   1.562  20.621
53422W        W54286   8.984   3.265  20.524
53423W        W54287  10.691   2.661  19.016
53424W        W54288   7.757   3.548  18.986
53425W        W54289   8.096   3.454  19.369
53426W        W54290   7.962   0.379  20.621
53427W        W54291  10.719   1.322  20.985
53428W        W54292   9.940   1.680  19.460
53429W        W54293   9.883   1.492  18.510
53430W        W54294   9.248   2.645  20.563
53431W        W54295   9.225   0.858  19.865
53432W        W54296   9.567   3.038  20.746
53433W        W54297  10.546   1.823  19.255
53434W        W54298   9.186   0.446  19.279
53435W        W54299   7.997   3.079  18.999
53436W        W54300   7.457   0.595  19.480
53437W        W54301  10.088   1.362  19.870
53438W        W54302   7.713   2.958  20.029
53439W        W54303   8.836   3.202  18.674
53440W        W54304  10.293   1.348  18.206
53441W        W54305   7.499   3.037  20.490
53442W        W54306   8.281   2.687  20.953
53443W        W54307   8.768   1.990  19.411
53444W        W54308   8.447   0.553  20.492
53445W        W54309  10.948   0.285  20.111
53446W        W54310   8.094   2.152  18.124
53447W        W54311   7.860   0.937  18.620
53448W        W54312   7.886   2.975  19.524
53449W        W54313   8.702   2.512  19.509
53450W        W54314  10.270   3.232  21.213
53451W        W54315   9.327   0.857  18.931
53452W        W54316  10.527   3.362  19.755
53453W        W54317  10.245   1.328  21.189
53454W        W54318  10.991   2.672  19.424
53455W        W54319   9.582   2.145  21.040
53456W        W54320   7.141   1.826  19.257
53457W        W54321   8.411   2.250  20.650
53458W        W54322   9.582   1.340  19.031
53459W        W54323   9.515   1.864  19.262
53460W        W54324   7.802   1.330  20.731
53461W        W54325   7.760   1.165  21.457
53462W        W54326   7.699   0.235  19.824
53463W        W54327   9.505   0.551  20.240
53464W        W54328   9.199   0.576  21.530
53465W        W54329   9.663   0.474  18.731
53466W        W54330  10.747   3.177  21.471
53467W        W54331   9.541   0.163  21.493
53468W        W54332  10.590   2.679  21.622
53469W        W54333  10.120   0.821  21.114
53470W        W54334   9.979   0.566  19.425
53471W        W54335  10.351   1.733  21.815
53472W        W54336   7.938   3.381  19.850
53473W        W54337   8.818   0.918  18.867
53474W        W54338   8.281   0.362  21.470
53475W        W54339  10.337   0.910  19.168
53476W        W54340  10.636   1.369  19.014
53477W        W54341   8.470   3.380  21.763
53478W        W54342   8.263   0.152  18.947
53479W        W54343  10.707   0.644  19.820
53480W        W54344  10.949   2.833  18.394
53481W        W54345   7.649   2.107  20.047
53482W        W54346   9.610   0.608  18.229
53483W        W54347  10.843   2.922  20.119
53484W        W54348  10.711   0.299  20.711
53485W        W54349   9.366   1.496  21.235
53486W        W54350   9.201   2.578  19.000
53487W        W54351   9.773   1.915  21.914
53488W        W54352   9.542   0.032  20.052
53489W        W54353   7.905   1.079  20.018
53490W        W54354   7.579   2.178  20.900
53491W        W54355   9.287   3.353  19.645
53492W        W54356  10.774   1.210  20.489
53493W        W54357   9.389   3.339  21.154
53494W        W54358  10.585   2.075  18.430
53495W        W54359   9.154   1.717  19.593
53496W        W54360  10.998   0.315  21.175
53497W        W54361   9.097   2.253  20.863
53498W        W54362   9.407   1.057  20.345
53499W        W54363  10.113   1.318  18.969
53500W        W54364  10.630   1.145  18.543
53501W        W54365  10.297   2.971  19.123
53502W        W54366  10.025   2.781  19.906
53503W        W54367   9.923   1.775  18.944
53504W        W54368   9.414   1.979  19.946
53505W        W54369  10.337   1.844  19.735
53506W        W54370   7.767   0.842  20.468
53507W        W54371  10.368   1.819  21.271
53508W        W54372  10.758   3.388  20.315
53509W        W54373   8.733   2.952  19.818
53510W        W54374   9.873   3.432  20.919
53511W        W54375   9.564   0.847  20.858
53512W        W54376   8.935   3.564  20.943
53513W        W54377  10.591   0.466  19.229
53514W        W54378  10.699   1.696  20.619
53515W        W54379   7.366   1.059  20.777
53516W        W54380  10.279   0.909  19.697
53517W        W54381  10.602   0.977  21.365
53518W        W54382   9.572   2.638  19.716
53519W        W54383   8.831   3.293  19.431
53520W        W54384   7.876   0.414  18.683
53521W        W54385   9.103   0.224  20.288
53522W        W54386   7.863   3.544  18.465
53523W        W54387   8.622   1.857  18.936
53524W        W54388   9.100   2.357  21.366
53525W        W54389   8.815   0.782  19.403
53526W        W54390  10.371   0.286  19.668
53527W        W54391  10.053   3.479  19.985
53528W        W54392   9.431   3.289  20.307
53529W        W54393   8.862   2.284  20.388
53530W        W54394  10.572   2.942  20.593
53531W        W54395   8.321   0.517  19.320
53532W        W54396   8.853   2.819  20.299
53533W        W54397   8.213   0.734  18.292
53534W        W54398   9.071   1.382  20.595
53535W        W54399   9.923   0.288  20.428
53536W        W54400   7.316   2.109  20.453
53537W        W54401   8.982   1.754  18.562
53538W        W54402   8.305   0.257  18.431
53539W        W54403   9.202   1.216  19.482
53540W        W54404   9.835   0.419  20.920
53541W        W54405   8.626   2.255  21.137
53542W        W54406   9.441   1.939  21.495
53543W        W54407   9.945   2.089  21.432
53544W        W54408   9.234   0.302  21.955
53545W        W54409   8.387   0.959  20.185
53546W        W54410   7.948   0.686  19.641
53547W        W54411   7.587   3.392  19.462
53548W        W54412   9.250   2.904  21.433
53549W        W54413   8.245   2.284  18.782
53550W        W54414   9.918   1.817  20.062
53551W        W54415   9.950   1.361  20.368
53552W        W54416   9.375   2.142  20.436
53553W        W54417   9.741   2.476  18.384
53554W        W54418   9.520   0.448  19.739
53555W        W54419  10.835   0.895  18.979
53556W        W54420   7.625   3.369  21.301
53557W        W54421   7.841   2.678  20.661
53558W        W54422   7.257   3.441  19.073
53559W        W54423   9.146   0.617  20.631
53560W        W54424   8.425   2.916  18.699
53561W        W54425  10.591   3.069  18.700
53562W        W54426   9.459   1.758  18.741
53563W        W54427   8.340   1.013  19.493
53564W        W54428   9.174   0.795  18.420
53565W        W54429   9.589   2.455  21.489
53566W        W54430  10.151   0.488  18.923
53567W        W54431   7.449   0.161  18.508
53568W        W54432   8.758   2.624  20.765
53569W        W54433   8.545   2.516  20.025
53570W        W54434   8.301   2.574  18.358
53571W        W54435   7.501   2.971  19.144
53572W        W54436   8.059   1.631  21.493
53573W        W54437   8.749   0.407  21.727
53574W        W54438   9.331   0.384  21.069
53575W        W54439   8.655   0.129  19.449
53576W        W54440   9.549   0.104  19.110
53577W        W54441   7.551   0.343  20.321
53578W        W54442   7.570   1.091  19.600
53579W        W54443  10.451   0.372  20.211
53580W        W54444   7.854   0.727  19.119
53581W        W54445  10.286   0.585  20.673
53582W        W54446  10.769   1.594  18.327
53583W        W54447   8.049   0.567  20.128
53584W        W54448   9.098   0.892  21.094
53585W        W54449   7.395   0.668  18.517
53586W        W54450   8.093   2.191  21.060
53587W        W54451   9.482   1.591  20.298
53588W        W54452   9.192   3.563  18.581
53589W        W54453   7.444   1.895  18.316
53590W        W54454   8.250   2.579  21.439
53591W        W54455   7.770   1.715  21.074
53592W        W54456   8.775   1.862  20.730
53593W        W54457  10.262   0.131  20.945
53594W        W54458  10.918   1.774  21.146
53595W        W54459  10.863   1.825  18.789
53596W        W54460   9.672   2.231  18.911
53597W        W54461  10.200   3.423  18.248
53598W        W54462   9.497   1.486  21.766
53599W        W54463   7.816   2.528  21.711
53600W        W54464  10.946   0.649  21.575
53601W        W54465  10.437   1.521  20.205
53602W        W54466   8.973   3.434  21.807
53603W        W54467   8.777   0.084  18.592
53604W        W54468  10.506   2.580  18.544
53605W        W54469   8.185   0.880  21.402
53606W        W54470   8.751   2.745  21.259
53607W        W54471  10.733   0.815  20.857
53608W        W54472  10.156   3.375  18.776
53609W        W54473  10.213   2.141  20.408
53610W        W54474   8.275   0.553  20.991
53611W        W54475   8.990   1.459  21.603
53612W        W54476   8.306   2.670  19.126
53613W        W54477  10.122   2.129  19.242
53614W        W54478   7.842   0.888  21.007
53615W        W54479   9.127   2.836  19.478
53616W        W54480  10.754   1.526  19.688
53617W        W54481   9.025   0.098  21.440
53618W        W54482  10.122   2.679  20.377
53619W        W54483  10.359   3.088  20.148
53620W        W54484   9.286   2.986  18.545
53621W        W54485   7.428   2.868  21.492
53622W        W54486   8.223   0.987  20.680
53623W        W54487   8.200   0.218  19.734
53624W        W54488   9.890   0.838  20.439
53625W        W54489   8.664   2.164  18.501
53626W        W54490  10.638   2.011  20.118
53627W        W54491   7.923   3.010  21.537
53628W        W54492  10.400   3.461  19.240
53629W        W54493   8.496   0.623  19.804
53630W        W54494   8.390   2.089  19.801
53631W        W54495   8.663   3.662  20.518
53632W        W54496  10.460   3.606  21.521
53633W        W54497   9.791   1.878  20.579
53634W        W54498   7.584   1.336  18.311
53635W        W54499  10.758   3.107  19.325
53636W        W54500  10.551   0.647  18.650
53637W        W54501   8.554   0.008  21.140
53638W        W54502  10.510   2.828  19.694
53639W        W54503  10.344   1.379  19.430
53640W        W54504   8.748   1.082  19.826
53641W        W54505   8.885   1.381  21.096
53642W        W54506   9.936   2.543  21.105
53643W        W54507   8.569   0.979  21.083
53644W        W54508   8.454   3.408  19.798
53645W        W54509   8.009   3.534  21.605
53646W        W54510   7.989   3.012  18.445
53647W        W54511  10.548   2.366  19.427
53648W        W54512   8.151   1.315  21.098
53649W        W54513  11.056   1.350  18.721
53650W        W54514   8.712   2.372  19.003
53651W        W54515   9.818   1.689  21.073
53652W        W54516   9.598   1.351  20.752
53653W        W54517   8.157   1.777  20.730
53654W        W54518  10.304   3.404  20.613
53655W        W54519  10.050   0.277  21.389
53656W        W54520   7.758   0.443  21.291
53657W        W54521   8.158   1.402  20.361
53658W        W54522   8.790   1.115  18.280
53659W        W54523   7.404   3.020  20.996
53660W        W54524   9.010   1.799  20.266
53661W        W54525   8.696   0.608  18.476
53662W        W54526   8.310   1.705  19.468
53663W        W54527   7.617   3.469  20.790
53664W        W54528  10.367   1.656  18.658
53665W        W54529  10.510   0.498  21.204
53666W        W54530  10.082   2.603  19.437
53667W        W54531   7.543   1.629  21.600
53668W        W54532  10.528   0.136  18.801
53669W        W54533  10.122   2.542  18.897
53670W        W54534   9.099   1.556  19.082
53671W        W54535  10.086   0.514  18.415
53672W        W54536  10.301   1.110  20.703
53673W        W54537   7.625   1.530  19.902
53674W        W54538   8.197   2.558  19.630
53675W        W54539   9.888   1.160  19.434
53676W        W54540   8.854   0.684  20.184
53677W        W54541  10.885   2.552  20.758
53678W        W54542  10.883   0.733  20.344
53679W        W54543   7.396   3.353  19.933
53680W        W54544   7.825   2.543  19.238
53681W        W54545   7.844   0.261  21.783
53682W        W54546   8.827   2.937  21.730
53683W        W54547  10.849   2.009  19.639
53684W        W54548  10.100   2.116  18.608
53685W        W54549   9.415   3.602  20.715
53686W        W54550  10.303   2.245  21.781
53687W        W54551   9.031  28.999  19.056
53688W        W54552   9.731   0.975  19.916
53689W        W54553   7.512   2.554  20.272
53690W        W54554   8.720   0.415  19.007
53691W        W54555   8.319   2.081  21.529
53692W        W54556   9.515   0.824  19.409
53693W        W54557   9.751   2.438  20.641
53694W        W54558   7.953   3.101  20.980
53695W        W54559   8.342   2.878  21.847
53696W        W54560   8.303   0.658  18.816
53697W        W54561   9.839   0.884  18.997
53698W        W54562   9.771   3.011  21.267
53699W        W54563   8.713   1.672  19.844
53700W        W54564   8.220   3.485  20.707
53701W        W54565  10.725   3.348  18.287
53702W        W54566   7.709   2.114  21.406
53703W        W54567   9.790   2.320  20.132
53704W        W54568   8.315   2.188  19.286
53705W        W54569   8.578   3.123  20.836
53706W        W54570   8.980   0.395  19.772
53707W        W54571   7.346   2.080  18.821
53708W        W54572   9.171   1.272  18.646
53709W        W54573   7.910   2.094  19.592
53710W        W54574   8.767   0.495  21.205
53711W        W54575  10.554   0.372  18.232
53712W        W54576  10.752   1.998  21.595
53713W        W54577   9.455   3.364  21.670
53714W        W54578  10.891   2.420  21.265
53715W        W54579  10.305   3.133  21.734
53716W        W54580   8.206   3.628  20.216
53717W        W54581  10.964   2.166  19.167
53718W        W54582   9.586   1.478  19.779
53719W        W54583   9.285   0.015  19.563
53720W        W54584   8.387   3.028  19.459
53721W        W54585   8.753   0.971  20.601
53722W        W54586   8.569   0.208  20.118
53723W        W54587   7.547   3.203  18.681
53724W        W54588   9.233   2.268  19.501
53725W        W54589   8.376   3.088  21.325
53726W        W54590   7.612   1.702  19.417
53727W        W54591   7.544   0.716  19.980
53728W        W54592   9.241   2.467  20.068
53729W        W54593   7.493   0.364  19.012
53730W        W54594  10.216   1.621  20.748
53731W        W54595  10.142   0.994  18.573
53732W        W54596  10.605   2.491  20.324
53733W        W54597   9.220   2.963  19.975
53734W        W54598   8.468   3.303  19.034
53735W        W54599   9.724   0.122  18.343
53736W        W54600   7.714   3.516  20.294
53737W        W54601   9.796   1.037  21.745
53738W        W54602   7.890   0.771  21.824
53739W        W54603   7.376   1.314  19.145
53740W        W54604   8.394   1.114  18.604
53741W        W54605   9.944   1.574  21.544
53742W        W54606   8.479   1.864  20.290
53743W        W54607   9.816   0.061  19.591
53744W        W54608   8.928   3.393  20.020
53745W        W54609  10.088   2.953  20.823
53746W        W54610   9.686   3.152  19.881
53747W        W54611   9.802   2.158  19.642
53748W        W54612   9.160   0.397  18.750
53749W        W54613  10.946   0.231  19.606
53750W        W54614   8.520   1.579  18.363
53751W        W54615  10.740   1.069  19.459
53752W        W54616   9.281   2.226  18.568
53753W        W54617  10.379   2.345  21.286
53754W        W54618  10.111   2.890  18.400
53755W        W54619   8.815   0.926  21.557
53756W        W54620   8.519   1.411  20.744
53757W        W54621  10.545   2.815  21.123
53758W        W54622   9.676   0.675  21.353
53759W        W54623   7.383   1.370  21.170
53760W        W54624   9.314   1.780  20.792
53761W        W54625   7.695   2.534  19.743
53762W        W54626   7.738   1.719  20.383
53763W        W54627  10.096   2.094  20.923
53764W        W54628   9.934   3.471  21.515
53765W        W54629   9.757   1.176  21.239
53766W        W54630  10.102   3.161  19.564
53767W        W54631   9.078   2.991  20.938
53768W        W54632   8.516   3.218  20.296
53769W        W54633  10.350   2.506  20.781
53770W        W54634   9.187   2.565  21.835
53771W        W54635   8.021   2.516  20.135
53772W        W54636  10.295   2.345  19.900
53773W        W54637   9.918   3.170  20.382
53774W        W54638   8.012   3.118  20.419
53775W        W54639   9.326   1.064  21.537
53776W        W54640   9.200   3.198  19.061
53777W        W54641   8.687   2.440  21.675
53778W        W54642   8.775   2.884  19.096
53779W        W54643   8.096   1.246  18.196
53780W        W54644   7.447   3.605  25.282
53781W        W54645   7.681   2.556  24.739
53782W        W54646  10.564   2.155  22.645
53783W        W54647  10.698   3.357  24.581
53784W        W54648   8.276   3.433  22.304
53785W        W54649   8.642   1.375  22.882
53786W        W54650   8.231   1.288  23.226
53787W        W54651   9.084   1.960  22.476
53788W        W54652   8.788   3.288  24.962
53789W        W54653   7.364   0.801  24.866
53790W        W54654   8.029   0.242  24.618
53791W        W54655   9.922   0.460  23.592
53792W        W54656   9.626   1.186  22.242
53793W        W54657  10.148   0.864  25.290
53794W        W54658   7.629   0.566  24.457
53795W        W54659   7.508   3.103  25.423
53796W        W54660   8.720   2.624  22.157
53797W        W54661   7.462   1.209  23.903
53798W        W54662   8.428   1.444  25.169
53799W        W54663  10.792   1.024  23.653
53800W        W54664  10.461   1.886  24.387
53801W        W54665   8.995   1.564  23.441
53802W        W54666   9.529   2.810  23.844
53803W        W54667   7.879   2.118  24.119
53804W        W54668   7.193   1.647  23.834
53805W        W54669   8.443   1.788  24.771
53806W        W54670  10.635   1.586  25.041
53807W        W54671   8.179   2.873  23.613
53808W        W54672   9.423   2.675  24.626
53809W        W54673   8.915   1.221  23.822
53810W        W54674   8.809   2.044  23.543
53811W        W54675   9.729   3.045  25.323
53812W        W54676   8.986   2.078  25.399
53813W        W54677   8.941   2.023  24.891
53814W        W54678   7.409   1.207  25.414
53815W        W54679  10.120   2.760  25.122
53816W        W54680   7.754   0.249  22.963
53817W        W54681   8.274   2.647  24.070
53818W        W54682  10.754   2.389  23.498
53819W        W54683  10.368   0.788  23.883
53820W        W54684  10.612   0.891  21.913
53821W        W54685  10.928   1.546  24.338
53822W        W54686   8.864   3.179  24.170
53823W        W54687  10.799   2.643  22.488
53824W        W54688   7.841   3.678  22.577
53825W        W54689   8.225   3.552  22.914
53826W        W54690   8.165   0.525  24.196
53827W        W54691  10.498   1.372  24.587
53828W        W54692   9.930   1.642  22.978
53829W        W54693   9.985   1.472  22.058
53830W        W54694   9.142   2.720  24.166
53831W        W54695   9.180   0.907  23.474
53832W        W54696   9.428   3.122  24.385
53833W        W54697  10.565   1.713  22.953
53834W        W54698   9.098   0.260  22.963
53835W        W54699   7.942   3.164  22.595
53836W        W54700   7.452   0.627  23.107
53837W        W54701   9.887   1.383  23.454
53838W        W54702   7.653   2.877  23.668
53839W        W54703   8.704   3.158  22.177
53840W        W54704  10.278   1.218  21.705
53841W        W54705   7.437   2.972  24.156
53842W        W54706   8.175   2.622  24.591
53843W        W54707   8.527   1.778  23.183
53844W        W54708   8.680   0.476  24.290
53845W        W54709  10.924   0.231  23.769
53846W        W54710   7.939   1.982  21.860
53847W        W54711   8.005   0.993  22.282
53848W        W54712   7.722   2.868  23.155
53849W        W54713   8.592   2.296  23.131
53850W        W54714  10.271   3.190  24.836
53851W        W54715   9.246   0.992  22.517
53852W        W54716  10.538   3.425  23.647
53853W        W54717  10.032   1.230  24.842
53854W        W54718  10.988   2.827  23.376
53855W        W54719   9.498   2.183  24.789
53856W        W54720   7.373   1.508  22.960
53857W        W54721   8.346   2.205  24.338
53858W        W54722   9.513   1.415  22.702
53859W        W54723   9.502   1.932  22.832
53860W        W54724   7.809   1.314  24.370
53861W        W54725   7.853   1.279  25.138
53862W        W54726   7.607   0.250  23.455
53863W        W54727   9.426   0.558  23.846
53864W        W54728   9.192   0.746  25.172
53865W        W54729   9.695   0.413  22.301
53866W        W54730  10.684   3.301  25.134
53867W        W54731   9.565   0.276  25.143
53868W        W54732  10.578   2.868  25.414
53869W        W54733  10.165   0.738  24.785
53870W        W54734   9.875   0.598  23.080
53871W        W54735  10.309   1.882  25.370
53872W        W54736   7.917   3.280  23.468
53873W        W54737   8.722   1.013  22.497
53874W        W54738   8.166   0.448  25.116
53875W        W54739  10.236   0.888  22.843
53876W        W54740  10.582   1.266  22.694
53877W        W54741   8.426   3.555  25.195
53878W        W54742   8.295   0.095  22.463
53879W        W54743  10.666   0.561  23.479
53880W        W54744  10.778   2.935  22.030
53881W        W54745   7.596   2.040  23.675
53882W        W54746   9.796   0.475  21.809
53883W        W54747  10.782   2.999  23.804
53884W        W54748  10.661   0.307  24.323
53885W        W54749   9.304   1.717  25.061
53886W        W54750   8.856   2.375  22.671
53887W        W54751   9.698   1.998  25.769
53888W        W54752   9.520   0.049  23.760
53889W        W54753   7.915   1.127  23.624
53890W        W54754   7.571   2.101  24.553
53891W        W54755   9.659   3.243  23.539
53892W        W54756  10.613   1.184  24.116
53893W        W54757   9.459   3.453  24.784
53894W        W54758  10.633   2.026  22.137
53895W        W54759   9.021   1.731  22.952
53896W        W54760  10.859   0.262  24.799
53897W        W54761   9.095   2.306  24.468
53898W        W54762   9.384   1.050  24.002
53899W        W54763  10.048   1.289  22.577
53900W        W54764  10.451   1.307  22.190
53901W        W54765  10.534   3.027  22.744
53902W        W54766  10.177   2.334  23.583
53903W        W54767   9.845   1.750  22.471
53904W        W54768   9.344   1.968  23.527
53905W        W54769  10.293   1.742  23.445
53906W        W54770   7.810   0.883  24.083
53907W        W54771  10.189   1.727  24.884
53908W        W54772  10.839   3.462  24.058
53909W        W54773   8.601   2.807  23.348
53910W        W54774   9.909   3.436  24.515
53911W        W54775   9.678   0.805  24.471
53912W        W54776   9.003   3.511  24.547
53913W        W54777  10.610   0.532  22.865
53914W        W54778  10.270   1.641  23.969
53915W        W54779   7.375   1.075  24.437
53916W        W54780  10.218   0.838  23.376
53917W        W54781  10.551   1.068  25.003
53918W        W54782   9.489   2.544  23.342
53919W        W54783   8.855   3.213  23.131
53920W        W54784   7.914   0.456  22.268
53921W        W54785   9.057   0.230  23.998
53922W        W54786   7.843   3.609  22.076
53923W        W54787   8.598   1.921  22.682
53924W        W54788   9.021   2.542  24.927
53925W        W54789   8.900   0.733  23.076
53926W        W54790  10.289   0.294  23.257
53927W        W54791  10.046   3.540  23.724
53928W        W54792   9.297   3.279  23.908
53929W        W54793   8.765   2.271  24.026
53930W        W54794  10.594   2.959  24.275
53931W        W54795   8.207   0.445  22.819
53932W        W54796   8.729   2.786  23.854
53933W        W54797   8.406   0.768  21.848
53934W        W54798   9.071   1.396  24.288
53935W        W54799   9.894   0.238  24.049
53936W        W54800   7.341   2.048  24.118
53937W        W54801   8.905   1.656  22.073
53938W        W54802   8.318   0.260  21.978
53939W        W54803   9.125   1.212  23.009
53940W        W54804   9.834   0.353  24.698
53941W        W54805   8.538   2.308  24.803
53942W        W54806   9.492   2.135  25.312
53943W        W54807   9.955   2.166  25.057
53944W        W54808   9.258   0.394  25.548
53945W        W54809   8.432   0.982  23.824
53946W        W54810   7.958   0.774  23.210
53947W        W54811   7.735   3.377  23.006
53948W        W54812   9.265   3.009  25.055
53949W        W54813   8.177   1.910  22.337
53950W        W54814   9.821   1.810  23.715
53951W        W54815   9.847   1.329  23.975
53952W        W54816   9.246   2.053  24.036
53953W        W54817   9.832   2.425  21.946
53954W        W54818   9.437   0.446  23.348
53955W        W54819  10.970   0.924  22.716
53956W        W54820   7.657   3.399  24.841
53957W        W54821   7.780   2.600  24.220
53958W        W54822   7.343   3.598  22.742
53959W        W54823   9.163   0.677  24.296
53960W        W54824   8.315   2.877  22.373
53961W        W54825  10.344   3.175  22.259
53962W        W54826   9.407   1.649  22.236
53963W        W54827   8.427   0.897  22.923
53964W        W54828   9.421   0.773  22.011
53965W        W54829   9.608   2.594  25.099
53966W        W54830  10.123   0.437  22.631
53967W        W54831   7.442   0.253  22.129
53968W        W54832   8.678   2.620  24.400
53969W        W54833   8.441   2.401  23.638
53970W        W54834   8.266   2.377  21.971
53971W        W54835   7.433   3.048  22.753
53972W        W54836   8.037   1.769  25.144
53973W        W54837   8.657   0.558  25.221
53974W        W54838   9.344   0.511  24.745
53975W        W54839   8.591   0.237  23.104
53976W        W54840   9.578   0.292  22.786
53977W        W54841   7.714   0.376  23.978
53978W        W54842   7.515   1.104  23.269
53979W        W54843  10.404   0.280  23.869
53980W        W54844   7.797   0.745  22.705
53981W        W54845  10.196   0.531  24.315
53982W        W54846  10.828   1.579  21.969
53983W        W54847   8.066   0.623  23.699
53984W        W54848   9.155   1.041  24.675
53985W        W54849   7.514   0.787  22.251
53986W        W54850   8.041   2.127  24.757
53987W        W54851   9.358   1.554  23.855
53988W        W54852   9.246   3.537  22.242
53989W        W54853   7.617   1.706  22.152
53990W        W54854   8.149   2.507  25.101
53991W        W54855   7.739   1.664  24.750
53992W        W54856   8.771   1.917  24.407
53993W        W54857  10.331   0.227  24.722
53994W        W54858  10.869   1.914  24.712
53995W        W54859  10.879   1.666  22.501
53996W        W54860   9.569   2.156  22.336
53997W        W54861  10.211   3.664  21.960
53998W        W54862   9.338   1.695  25.569
53999W        W54863   7.748   2.584  25.440
54000W        W54864  11.030   0.585  25.306
54001W        W54865  10.336   1.253  23.659
54002W        W54866   8.916   3.448  25.444
54003W        W54867   8.778   0.239  22.222
54004W        W54868  10.294   2.689  22.059
54005W        W54869   8.275   0.954  25.111
54006W        W54870   8.565   2.818  24.882
54007W        W54871  10.601   0.794  24.522
54008W        W54872  10.005   3.568  22.415
54009W        W54873  10.073   2.114  24.047
54010W        W54874   8.341   0.653  24.677
54011W        W54875   8.883   1.587  25.327
54012W        W54876   7.995   2.657  22.743
54013W        W54877  10.066   2.106  22.791
54014W        W54878   7.875   0.918  24.748
54015W        W54879   9.006   2.701  23.062
54016W        W54880  10.725   1.417  23.353
54017W        W54881   9.042   0.246  25.074
54018W        W54882   9.990   2.623  24.024
54019W        W54883  10.255   3.045  23.861
54020W        W54884   9.219   3.046  22.046
54021W        W54885   7.361   2.719  25.112
54022W        W54886   8.243   1.025  24.339
54023W        W54887   8.118   0.287  23.316
54024W        W54888   9.862   0.794  23.987
54025W        W54889   8.669   2.098  22.158
54026W        W54890  10.542   2.055  23.823
54027W        W54891   7.836   2.935  25.053
54028W        W54892  10.419   3.564  22.924
54029W        W54893   8.483   0.664  23.392
54030W        W54894   8.130   2.037  23.434
54031W        W54895   8.490   3.585  24.321
54032W        W54896  10.368   3.690  25.276
54033W        W54897   9.668   1.807  24.209
54034W        W54898   7.619   1.213  21.972
54035W        W54899  10.707   3.213  23.199
54036W        W54900  10.533   0.814  22.419
54037W        W54901   8.547   0.178  24.776
54038W        W54902  10.458   2.805  23.432
54039W        W54903  10.280   1.307  23.128
54040W        W54904   8.714   1.127  23.346
54041W        W54905   8.898   1.514  24.786
54042W        W54906   9.933   2.549  24.682
54043W        W54907   8.607   1.097  24.737
54044W        W54908   8.424   3.301  23.411
54045W        W54909   7.944   3.394  25.270
54046W        W54910   7.937   3.103  22.068
54047W        W54911  10.709   2.563  22.999
54048W        W54912   8.166   1.357  24.736
54049W        W54913  10.934   1.170  22.266
54050W        W54914   8.371   2.370  22.490
54051W        W54915   9.703   1.703  24.754
54052W        W54916   9.570   1.320  24.427
54053W        W54917   8.103   1.744  24.381
54054W        W54918  10.322   3.439  24.193
54055W        W54919  10.083   0.352  25.186
54056W        W54920   7.680   0.420  24.953
54057W        W54921   8.161   1.404  23.994
54058W        W54922   8.643   1.210  21.972
54059W        W54923   7.352   2.968  24.656
54060W        W54924   8.855   1.723  23.943
54061W        W54925   8.899   0.742  22.089
54062W        W54926   8.179   1.616  22.794
54063W        W54927   7.447   3.469  24.377
54064W        W54928  10.353   1.714  22.477
54065W        W54929  10.553   0.560  25.070
54066W        W54930  10.135   2.554  23.098
54067W        W54931   7.517   1.695  25.259
54068W        W54932  10.612   0.294  22.395
54069W        W54933  10.284   2.577  22.586
54070W        W54934   9.017   1.445  22.525
54071W        W54935  10.215   0.475  22.117
54072W        W54936  10.151   1.047  24.343
54073W        W54937   7.589   1.562  23.488
54074W        W54938   8.129   2.535  23.230
54075W        W54939   9.792   1.120  23.024
54076W        W54940   8.888   0.707  23.853
54077W        W54941  10.858   2.518  24.362
54078W        W54942  10.857   0.687  24.039
54079W        W54943   7.418   3.236  23.379
54080W        W54944   7.512   2.462  22.857
54081W        W54945   7.760   0.275  25.428
54082W        W54946   8.810   2.952  25.363
54083W        W54947  10.830   1.897  23.399
54084W        W54948  10.135   2.143  22.267
54085W        W54949   9.460   3.624  24.283
54086W        W54950  10.413   2.380  25.334
54087W        W54951   8.772  28.978  22.666
54088W        W54952   9.692   0.904  23.497
54089W        W54953   7.389   2.490  23.867
54090W        W54954   8.723   0.494  22.673
54091W        W54955   8.503   1.987  25.233
54092W        W54956   9.397   0.765  22.954
54093W        W54957   9.619   2.333  24.287
54094W        W54958   7.842   3.009  24.536
54095W        W54959   8.305   2.997  25.288
54096W        W54960   8.387   0.635  22.338
54097W        W54961   9.767   0.831  22.593
54098W        W54962   9.762   3.028  24.809
54099W        W54963   8.505   1.506  23.626
54100W        W54964   7.971   3.468  24.374
54101W        W54965  10.679   3.428  21.954
54102W        W54966   7.627   2.174  25.091
54103W        W54967   9.664   2.303  23.766
54104W        W54968   8.141   2.128  22.896
54105W        W54969   8.385   3.055  24.390
54106W        W54970   8.944   0.386  23.463
54107W        W54971   7.316   2.171  22.397
54108W        W54972   9.150   1.207  22.043
54109W        W54973   7.683   1.986  23.160
54110W        W54974   8.851   0.630  24.750
54111W        W54975  10.661   0.363  21.882
54112W        W54976  10.791   2.040  25.215
54113W        W54977   9.426   3.453  25.305
54114W        W54978  10.901   2.425  24.871
54115W        W54979  10.211   3.226  25.389
54116W        W54980   8.037   3.550  23.879
54117W        W54981  10.964   2.074  22.946
54118W        W54982   9.466   1.563  23.211
54119W        W54983   9.247  28.938  23.347
54120W        W54984   8.180   3.048  23.054
54121W        W54985   8.755   0.986  24.265
54122W        W54986   8.510   0.345  23.808
54123W        W54987   7.491   3.332  22.316
54124W        W54988   9.115   2.203  23.130
54125W        W54989   8.215   3.219  24.838
54126W        W54990   7.702   1.833  22.654
54127W        W54991   7.559   0.733  23.626
54128W        W54992   9.129   2.444  23.699
54129W        W54993   7.402   0.418  22.618
54130W        W54994  10.051   1.547  24.416
54131W        W54995  10.083   0.956  22.166
54132W        W54996  10.510   2.575  23.917
54133W        W54997   9.124   2.943  23.525
54134W        W54998   8.540   3.217  22.697
54135W        W54999   9.648  28.995  22.004
54136W        W55000   7.544   3.366  23.860
54137W        W55001   9.762   1.189  25.430
54138W        W55002   7.865   0.799  25.390
54139W        W55003   7.608   1.296  22.500
54140W        W55004   8.509   1.501  22.383
54141W        W55005   9.799   1.696  25.271
54142W        W55006   8.359   1.924  23.908
54143W        W55007   9.787   0.102  23.231
54144W        W55008   8.859   3.369  23.659
54145W        W55009  10.097   2.962  24.399
54146W        W55010   9.938   2.793  23.527
54147W        W55011   9.822   2.084  23.270
54148W        W55012   9.197   0.494  22.465
54149W        W55013  10.829   0.163  23.160
54150W        W55014   8.407   1.694  21.890
54151W        W55015  10.668   0.961  23.138
54152W        W55016   9.222   2.053  21.953
54153W        W55017  10.430   2.190  24.837
54154W        W55018   9.879   3.266  22.001
54155W        W55019   8.779   1.068  25.219
54156W        W55020   8.547   1.459  24.351
54157W        W55021  10.495   2.732  24.753
54158W        W55022   9.705   0.783  25.001
54159W        W55023   7.403   1.312  24.899
54160W        W55024   9.259   1.807  24.524
54161W        W55025   7.517   2.443  23.371
54162W        W55026   7.705   1.654  23.998
54163W        W55027   9.991   2.063  24.545
54164W        W55028   9.916   3.497  25.029
54165W        W55029   9.529   1.264  24.955
54166W        W55030  10.179   3.244  23.321
54167W        W55031   8.991   2.967  24.616
54168W        W55032   8.426   3.217  23.911
54169W        W55033  10.338   2.421  24.373
54170W        W55034   9.177   2.564  25.421
54171W        W55035   7.922   2.440  23.720
54172W        W55036  10.438   2.153  23.165
54173W        W55037   9.803   3.234  24.049
54174W        W55038   7.950   3.065  24.040
54175W        W55039   9.249   1.215  25.382
54176W        W55040   8.915   2.886  22.565
54177W        W55041   8.655   2.474  25.289
54178W        W55042   8.507   2.718  22.847
54179W        W55043   8.133   1.233  21.828
54180W        W55044   7.423   3.706  28.808
54181W        W55045   7.818   2.577  28.472
54182W        W55046  10.540   2.164  26.261
54183W        W55047  10.780   3.275  28.168
54184W        W55048   8.425   3.339  25.658
54185W        W55049   8.513   1.552  26.530
54186W        W55050   8.048   1.457  26.906
54187W        W55051   8.951   2.019  26.302
54188W        W55052   8.845   3.403  28.254
54189W        W55053   7.568   0.894  28.476
54190W        W55054   8.051   0.126  28.252
54191W        W55055  10.003   0.511  27.218
54192W        W55056   9.640   1.380  25.917
54193W        W55057  10.101   0.846  28.793
54194W        W55058   7.537   0.542  28.070
54195W        W55059   7.590   3.080  28.856
54196W        W55060   8.806   2.643  25.805
54197W        W55061   7.479   1.221  27.505
54198W        W55062   8.280   1.337  28.728
54199W        W55063  10.727   1.026  27.184
54200W        W55064  10.519   1.981  27.965
54201W        W55065   8.957   1.445  27.181
54202W        W55066   9.583   2.869  27.555
54203W        W55067   7.879   2.183  27.810
54204W        W55068   7.128   1.616  27.484
54205W        W55069   8.458   1.645  28.362
54206W        W55070  10.638   1.513  28.639
54207W        W55071   8.192   2.932  27.191
54208W        W55072   9.323   2.639  28.257
54209W        W55073   8.513   1.219  27.385
54210W        W55074   8.774   2.090  27.158
54211W        W55075   9.631   3.047   0.067
54212W        W55076   8.792   2.107  28.899
54213W        W55077   8.979   1.807  28.426
54214W        W55078   7.309   1.157  28.944
54215W        W55079  10.057   2.812  28.790
54216W        W55080   7.421   0.664  26.686
54217W        W55081   8.271   2.765  27.696
54218W        W55082  10.827   2.399  27.121
54219W        W55083  10.356   0.747  27.517
54220W        W55084  10.615   0.855  25.500
54221W        W55085  10.973   1.525  27.842
54222W        W55086   8.871   3.421  27.708
54223W        W55087  10.753   2.693  26.294
54224W        W55088   7.748   3.661  26.194
54225W        W55089   8.125   3.530  26.577
54226W        W55090   8.005   0.388  27.815
54227W        W55091  10.594   1.361  28.141
54228W        W55092   9.851   1.770  26.801
54229W        W55093  10.046   1.615  25.729
54230W        W55094   9.199   2.577  27.745
54231W        W55095   9.619   3.026  28.028
54232W        W55096  10.297   1.699  26.529
54233W        W55097   9.437   0.570  26.465
54234W        W55098   8.004   3.200  26.186
54235W        W55099   9.802   1.440  27.206
54236W        W55100   7.660   2.842  27.081
54237W        W55101   8.853   3.169  25.901
54238W        W55102  10.240   1.375  25.302
54239W        W55103   7.404   3.085  27.897
54240W        W55104   8.212   2.822  28.217
54241W        W55105   8.585   2.053  26.660
54242W        W55106   8.816   0.419  27.885
54243W        W55107  10.796   0.095  27.248
54244W        W55108   8.041   2.141  25.488
54245W        W55109   7.736   1.096  25.823
54246W        W55110   7.847   2.964  26.627
54247W        W55111   8.587   2.560  26.743
54248W        W55112  10.314   3.176  28.519
54249W        W55113   9.181   1.005  26.269
54250W        W55114  10.546   3.432  27.099
54251W        W55115  10.214   1.260  28.492
54252W        W55116  10.995   2.722  26.748
54253W        W55117   9.518   2.140  28.260
54254W        W55118   7.401   1.669  26.637
54255W        W55119   8.324   2.353  28.017
54256W        W55120   9.481   1.414  26.413
54257W        W55121   9.405   1.908  26.581
54258W        W55122   8.012   1.246  27.793
54259W        W55123   7.786   1.232  28.820
54260W        W55124   7.704   0.254  26.906
54261W        W55125   9.537   0.636  27.413
54262W        W55126   9.255   0.623  28.672
54263W        W55127   9.681   0.486  25.994
54264W        W55128  10.803   3.094  28.674
54265W        W55129   9.610   0.183  28.587
54266W        W55130  10.587   2.619  28.783
54267W        W55131  10.174   0.785  28.291
54268W        W55132   9.890   0.701  26.670
54269W        W55133  10.262   1.805  28.960
54270W        W55134   7.903   3.304  27.018
54271W        W55135   8.632   1.083  26.335
54272W        W55136   8.271   0.395  28.659
54273W        W55137  10.282   0.957  26.463
54274W        W55138  10.629   1.278  26.268
54275W        W55139   8.313   3.568  28.795
54276W        W55140   8.262   0.252  26.128
54277W        W55141  10.720   0.527  26.984
54278W        W55142  10.893   2.930  25.841
54279W        W55143   7.806   2.009  27.333
54280W        W55144   9.724   0.640  25.488
54281W        W55145  10.977   2.834  27.431
54282W        W55146  10.671   0.309  27.928
54283W        W55147   9.344   1.419  28.480
54284W        W55148   9.080   2.530  26.287
54285W        W55149   9.788   1.993   0.094
54286W        W55150   9.520   0.027  27.286
54287W        W55151   7.964   1.096  27.288
54288W        W55152   7.512   2.260  28.156
54289W        W55153   9.278   3.259  26.888
54290W        W55154  10.645   1.164  27.666
54291W        W55155   9.362   3.398  28.274
54292W        W55156  10.683   2.033  25.718
54293W        W55157   8.960   1.738  26.765
54294W        W55158  10.885   0.259  28.416
54295W        W55159   9.047   2.217  28.081
54296W        W55160   9.338   1.107  27.302
54297W        W55161  10.091   1.343  26.188
54298W        W55162  10.408   1.245  25.779
54299W        W55163  10.403   2.973  26.579
54300W        W55164   9.956   2.660  27.259
54301W        W55165   9.840   1.791  26.246
54302W        W55166   9.300   1.970  27.098
54303W        W55167  10.249   1.713  27.160
54304W        W55168   7.715   0.803  27.659
54305W        W55169  10.398   1.931  28.466
54306W        W55170  10.835   3.325  27.626
54307W        W55171   8.702   2.986  27.099
54308W        W55172   9.897   3.402  28.281
54309W        W55173   9.672   0.717  27.937
54310W        W55174   9.108   3.786  28.010
54311W        W55175  10.598   0.529  26.471
54312W        W55176  10.369   1.597  27.669
54313W        W55177   7.526   1.138  28.011
54314W        W55178  10.304   0.832  26.964
54315W        W55179  10.666   0.993  28.512
54316W        W55180   9.485   2.775  27.050
54317W        W55181   8.795   3.301  26.696
54318W        W55182   7.808   0.567  25.864
54319W        W55183   9.260   0.273  27.662
54320W        W55184   7.963   3.536  25.759
54321W        W55185   8.444   1.885  26.147
54322W        W55186   9.158   2.269  28.585
54323W        W55187   8.929   0.692  26.595
54324W        W55188  10.234   0.332  26.791
54325W        W55189  10.086   3.609  27.284
54326W        W55190   9.380   3.377  27.726
54327W        W55191   8.722   2.362  27.696
54328W        W55192  10.632   2.894  27.802
54329W        W55193   7.898   0.437  26.451
54330W        W55194   8.773   2.854  27.597
54331W        W55195   8.435   0.821  25.611
54332W        W55196   8.972   1.284  27.666
54333W        W55197   9.835   0.287  27.647
54334W        W55198   7.391   2.031  27.683
54335W        W55199   8.863   1.765  25.831
54336W        W55200   8.226   0.354  25.624
54337W        W55201   8.968   1.208  26.721
54338W        W55202   9.959   0.331  28.146
54339W        W55203   8.622   2.186  28.417
54340W        W55204   9.421   1.863  28.741
54341W        W55205   9.906   1.994  28.585
54342W        W55206   9.270   0.281   0.045
54343W        W55207   8.367   0.775  27.144
54344W        W55208   7.911   0.782  26.851
54345W        W55209   7.602   3.403  26.607
54346W        W55210   9.084   3.018  28.492
54347W        W55211   8.108   2.278  25.997
54348W        W55212   9.789   1.937  27.295
54349W        W55213   9.857   1.568  27.703
54350W        W55214   9.112   2.068  27.566
54351W        W55215   9.914   2.416  25.503
54352W        W55216   9.257   0.526  26.983
54353W        W55217  10.993   0.855  26.249
54354W        W55218   7.370   3.330  28.447
54355W        W55219   7.768   2.673  27.963
54356W        W55220   7.236   3.468  26.223
54357W        W55221   9.194   0.807  27.774
54358W        W55222   8.393   2.931  25.955
54359W        W55223  10.678   3.239  26.207
54360W        W55224   9.339   1.775  26.073
54361W        W55225   8.081   1.141  26.492
54362W        W55226   9.448   0.915  25.811
54363W        W55227   9.728   2.491  28.561
54364W        W55228  10.131   0.511  26.245
54365W        W55229   7.345   0.277  25.712
54366W        W55230   8.758   2.654  28.155
54367W        W55231   8.510   2.525  27.256
54368W        W55232   8.267   2.590  25.605
54369W        W55233   7.474   2.958  26.282
54370W        W55234   7.903   1.700  28.656
54371W        W55235   8.777   0.415  28.842
54372W        W55236   9.287   0.442  28.166
54373W        W55237   8.582   0.229  26.558
54374W        W55238   9.594   0.089  26.354
54375W        W55239   7.549   0.296  27.603
54376W        W55240   7.512   1.102  26.983
54377W        W55241  10.364   0.211  27.519
54378W        W55242   7.683   0.859  26.276
54379W        W55243  10.745   1.548  25.527
54380W        W55244   7.955   0.533  27.312
54381W        W55245   9.287   0.950  28.271
54382W        W55246   7.334   0.765  25.874
54383W        W55247   8.079   2.104  28.392
54384W        W55248   9.375   1.608  27.473
54385W        W55249   9.236   3.529  25.853
54386W        W55250   7.483   2.112  25.611
54387W        W55251   8.306   2.538  28.627
54388W        W55252   7.701   1.782  28.194
54389W        W55253   8.649   1.920  27.974
54390W        W55254  10.388   0.137  28.329
54391W        W55255  10.884   1.823  28.288
54392W        W55256  10.973   1.663  25.968
54393W        W55257   9.543   2.239  26.218
54394W        W55258  10.237   3.668  25.804
54395W        W55259   9.367   1.423   0.006
54396W        W55260   7.919   2.604  28.984
54397W        W55261  10.950   0.637  28.830
54398W        W55262  10.242   1.213  27.338
54399W        W55263   8.806   3.445  28.795
54400W        W55264   8.741   0.390  25.703
54401W        W55265  10.554   2.518  25.835
54402W        W55266   8.066   0.861  28.606
54403W        W55267   8.575   3.039  28.537
54404W        W55268  10.597   0.807  28.026
54405W        W55269  10.210   3.907  26.318
54406W        W55270  10.048   2.268  27.593
54407W        W55271   8.378   0.560  28.144
54408W        W55272   8.765   1.524  28.805
54409W        W55273   8.190   2.685  26.352
54410W        W55274  10.083   2.170  26.546
54411W        W55275   7.955   0.838  28.109
54412W        W55276   9.043   2.810  26.754
54413W        W55277  10.906   1.444  26.845
54414W        W55278   9.106   0.154  28.551
54415W        W55279  10.063   2.819  27.740
54416W        W55280  10.338   3.157  27.476
54417W        W55281   9.259   3.056  25.591
54418W        W55282   7.418   2.576  28.824
54419W        W55283   8.265   0.815  27.658
54420W        W55284   8.214   0.327  26.924
54421W        W55285   9.792   1.069  27.585
54422W        W55286   8.573   2.184  25.726
54423W        W55287  10.565   2.050  27.437
54424W        W55288   8.090   3.044  28.718
54425W        W55289  10.477   3.550  26.592
54426W        W55290   8.376   0.707  26.604
54427W        W55291   8.236   2.111  27.036
54428W        W55292   8.421   3.604  27.888
54429W        W55293  10.536   3.555  28.776
54430W        W55294   9.584   2.008  27.770
54431W        W55295   7.640   1.623  25.781
54432W        W55296  10.834   3.206  26.705
54433W        W55297  10.518   0.797  26.018
54434W        W55298   8.632   0.167  28.356
54435W        W55299  10.605   2.900  27.064
54436W        W55300  10.408   1.321  26.853
54437W        W55301   8.467   1.168  26.850
54438W        W55302   8.893   1.312  28.232
54439W        W55303  10.024   2.827  28.257
54440W        W55304   8.406   1.087  28.288
54441W        W55305   8.402   3.423  27.028
54442W        W55306   7.841   3.528  28.579
54443W        W55307   7.964   3.023  25.669
54444W        W55308  10.512   2.466  26.711
54445W        W55309   7.933   1.316  28.312
54446W        W55310  10.915   1.144  25.828
54447W        W55311   8.582   2.381  26.225
54448W        W55312   9.651   1.666  28.170
54449W        W55313   9.434   1.274  27.888
54450W        W55314   8.152   1.767  27.946
54451W        W55315  10.384   3.624  27.711
54452W        W55316  10.086   0.234  28.772
54453W        W55317   7.753   0.415  28.558
54454W        W55318   8.151   1.601  27.416
54455W        W55319   8.650   1.290  25.683
54456W        W55320   7.376   2.787  28.316
54457W        W55321   8.698   1.719  27.517
54458W        W55322   8.962   0.851  25.655
54459W        W55323   8.028   1.657  26.416
54460W        W55324   7.660   3.538  28.054
54461W        W55325  10.454   1.700  26.033
54462W        W55326  10.485   0.532  28.657
54463W        W55327  10.028   2.648  26.754
54464W        W55328   7.450   1.673  28.887
54465W        W55329  10.532   0.265  25.993
54466W        W55330  10.241   2.587  26.254
54467W        W55331   8.964   1.503  26.300
54468W        W55332  10.188   0.513  25.695
54469W        W55333  10.182   1.152  27.908
54470W        W55334   7.620   1.567  27.163
54471W        W55335   8.084   2.569  26.848
54472W        W55336   9.907   1.261  26.687
54473W        W55337   8.822   0.777  27.418
54474W        W55338  10.955   2.520  27.898
54475W        W55339  10.858   0.692  27.587
54476W        W55340   7.371   3.285  27.077
54477W        W55341   7.717   2.490  26.457
54478W        W55342   7.923   0.278   0.082
54479W        W55343   8.963   3.011  28.992
54480W        W55344  10.652   1.939  26.905
54481W        W55345  10.191   2.124  25.863
54482W        W55346   9.624   3.749  28.006
54483W        W55347  10.188   2.318  28.942
54484W        W55348   8.868   0.114  26.134
54485W        W55349   9.807   0.955  27.095
54486W        W55350   7.546   2.475  27.503
54487W        W55351   8.655   0.595  26.164
54488W        W55352   8.348   1.872  28.825
54489W        W55353   9.438   0.996  26.743
54490W        W55354   9.700   2.503  27.924
54491W        W55355   7.790   3.090  28.293
54492W        W55356   8.464   2.842   0.027
54493W        W55357   8.193   0.826  26.093
54494W        W55358   9.714   0.971  26.271
54495W        W55359   9.625   3.015  28.543
54496W        W55360   8.507   1.661  27.036
54497W        W55361   8.052   3.237  27.862
54498W        W55362  10.670   3.407  25.663
54499W        W55363   7.602   2.127  28.653
54500W        W55364   9.528   2.372  27.399
54501W        W55365   8.130   2.179  26.501
54502W        W55366   8.555   3.103  27.983
54503W        W55367   8.732   0.436  27.004
54504W        W55368   7.348   2.372  26.079
54505W        W55369   9.131   1.320  25.863
54506W        W55370   7.807   1.914  26.808
54507W        W55371   8.841   0.670  28.363
54508W        W55372  10.659   0.322  25.510
54509W        W55373  10.808   2.039  28.759
54510W        W55374   9.321   3.354  28.801
54511W        W55375  10.730   2.322  28.331
54512W        W55376  10.428   3.071   0.029
54513W        W55377   8.060   3.587  27.440
54514W        W55378  10.955   2.241  26.573
54515W        W55379   9.395   1.488  26.914
54516W        W55380   9.113   0.196  26.596
54517W        W55381   8.345   3.041  26.694
54518W        W55382   8.706   0.919  27.913
54519W        W55383   8.484   0.375  27.463
54520W        W55384   7.563   3.272  25.895
54521W        W55385   9.054   2.280  26.756
54522W        W55386   8.255   3.368  28.318
54523W        W55387   7.693   2.006  26.259
54524W        W55388   7.467   0.643  27.213
54525W        W55389   9.037   2.546  27.240
54526W        W55390   7.413   0.379  26.224
54527W        W55391  10.153   1.621  28.139
54528W        W55392   9.985   0.955  25.838
54529W        W55393  10.446   2.576  27.436
54530W        W55394   9.160   3.071  27.359
54531W        W55395   8.514   3.354  26.257
54532W        W55396   9.743   0.139  25.612
54533W        W55397   7.574   3.409  27.531
54534W        W55398   9.587   1.037  28.757
54535W        W55399   7.694   0.734  28.975
54536W        W55400   7.609   1.379  26.264
54537W        W55401   8.283   1.369  26.056
54538W        W55402   9.838   1.507  28.778
54539W        W55403   8.320   2.082  27.546
54540W        W55404   9.689   0.269  26.853
54541W        W55405   8.889   3.479  27.182
54542W        W55406  10.289   3.198  28.005
54543W        W55407   9.659   3.281  27.257
54544W        W55408   9.685   2.273  26.901
54545W        W55409   9.157   0.528  26.037
54546W        W55410  10.866   0.112  26.673
54547W        W55411   8.347   1.717  25.642
54548W        W55412  10.761   0.971  26.683
54549W        W55413   9.149   2.219  25.857
54550W        W55414  10.232   2.413  28.449
54551W        W55415  10.366   3.008  25.868
54552W        W55416   8.570   0.893  28.759
54553W        W55417   8.507   1.403  27.881
54554W        W55418  10.560   2.805  28.295
54555W        W55419   9.706   0.662  28.442
54556W        W55420   7.420   1.382  28.457
54557W        W55421   9.151   1.709  27.947
54558W        W55422   7.637   2.352  26.983
54559W        W55423   7.710   1.642  27.689
54560W        W55424  10.009   2.109  28.086
54561W        W55425   9.943   3.358  28.805
54562W        W55426   9.773   1.153  28.258
54563W        W55427  10.115   3.114  27.015
54564W        W55428   9.092   3.029  27.974
54565W        W55429   8.443   3.245  27.501
54566W        W55430  10.376   2.470  27.952
54567W        W55431   9.320   2.691  28.818
54568W        W55432   8.017   2.476  27.355
54569W        W55433  10.203   2.230  27.072
54570W        W55434   9.899   3.375  27.725
54571W        W55435   7.797   2.946  27.542
54572W        W55436   9.046   1.085  28.732
54573W        W55437   9.144   3.143  26.343
54574W        W55438   8.809   2.612  28.678
54575W        W55439   8.703   2.880  26.353
54576W        W55440   8.145   1.242  25.555
54577W        W55441   7.293   7.322   3.410
54578W        W55442   7.745   6.206   2.927
54579W        W55443  10.441   5.897   0.681
54580W        W55444  10.673   6.930   2.721
54581W        W55445   8.568   6.879   0.287
54582W        W55446   8.431   5.173   1.088
54583W        W55447   8.178   4.882   1.441
54584W        W55448   9.055   5.749   0.747
54585W        W55449   8.784   6.934   3.045
54586W        W55450   7.394   4.454   2.830
54587W        W55451   8.102   3.549   2.821
54588W        W55452   9.840   4.076   1.631
54589W        W55453   9.457   4.818   0.576
54590W        W55454  10.124   4.344   3.303
54591W        W55455   7.466   4.049   2.524
54592W        W55456   7.462   6.845   3.542
54593W        W55457   8.896   6.118   0.328
54594W        W55458   7.464   4.909   1.948
54595W        W55459   8.464   4.985   3.259
54596W        W55460  10.584   4.544   1.885
54597W        W55461  10.509   5.650   2.428
54598W        W55462   9.047   5.199   1.452
54599W        W55463   9.499   6.455   1.996
54600W        W55464   7.916   5.784   2.217
54601W        W55465   7.170   5.398   1.922
54602W        W55466   8.508   5.457   3.064
54603W        W55467  10.572   5.098   3.123
54604W        W55468   8.115   6.522   1.721
54605W        W55469   9.334   6.257   2.672
54606W        W55470   8.874   4.873   1.819
54607W        W55471   8.810   5.662   1.651
54608W        W55472   9.543   6.528   3.430
54609W        W55473   8.865   5.718   3.368
54610W        W55474   8.972   5.555   2.899
54611W        W55475   7.093   4.564   3.244
54612W        W55476  10.001   6.302   3.246
54613W        W55477   7.740   3.804   1.049
54614W        W55478   8.218   6.193   2.146
54615W        W55479  10.619   6.075   1.519
54616W        W55480  10.211   4.201   1.954
54617W        W55481  10.634   4.451   0.164
54618W        W55482  10.940   5.149   2.366
54619W        W55483   8.841   6.936   2.149
54620W        W55484  10.565   6.417   0.582
54621W        W55485   7.894   7.247   0.597
54622W        W55486   8.184   7.190   1.065
54623W        W55487   8.001   3.898   2.412
54624W        W55488  10.458   4.959   2.633
54625W        W55489   9.883   5.342   1.261
54626W        W55490   9.968   4.998   0.358
54627W        W55491   9.078   6.300   2.215
54628W        W55492   9.216   4.713   1.427
54629W        W55493   9.462   6.709   2.469
54630W        W55494  10.497   5.497   1.012
54631W        W55495   9.259   4.018   0.976
54632W        W55496   7.795   6.774   0.826
54633W        W55497   7.467   4.208   1.229
54634W        W55498  10.156   4.815   1.785
54635W        W55499   7.595   6.614   1.810
54636W        W55500   8.859   6.756   0.690
54637W        W55501  10.349   4.864   0.022
54638W        W55502   7.421   6.672   2.312
54639W        W55503   8.161   6.321   2.644
54640W        W55504   8.357   5.652   1.384
54641W        W55505   8.437   4.037   2.148
54642W        W55506  10.798   3.631   1.746
54643W        W55507   7.926   5.711   0.066
54644W        W55508   7.966   4.708   0.298
54645W        W55509   7.649   6.645   1.295
54646W        W55510   8.718   6.041   1.266
54647W        W55511  10.197   6.879   2.927
54648W        W55512   9.036   4.468   0.662
54649W        W55513  10.482   7.030   1.532
54650W        W55514  10.092   4.929   2.997
54651W        W55515  10.748   6.349   1.077
54652W        W55516   9.451   5.728   2.736
54653W        W55517   7.375   5.335   1.098
54654W        W55518   8.372   5.816   2.463
54655W        W55519   9.586   4.990   1.042
54656W        W55520   9.356   5.451   1.068
54657W        W55521   7.878   4.909   2.293
54658W        W55522   7.781   4.793   2.785
54659W        W55523   7.660   3.738   1.570
54660W        W55524   9.433   4.206   1.948
54661W        W55525   9.191   4.258   3.313
54662W        W55526   9.684   4.162   0.700
54663W        W55527  10.777   6.674   3.193
54664W        W55528   9.544   3.819   3.222
54665W        W55529  10.509   6.184   3.329
54666W        W55530  10.073   4.417   2.784
54667W        W55531   9.851   4.328   1.175
54668W        W55532  10.161   5.326   3.331
54669W        W55533   7.915   6.990   1.593
54670W        W55534   8.624   4.729   0.821
54671W        W55535   8.205   3.981   3.111
54672W        W55536  10.371   4.597   1.009
54673W        W55537  10.683   5.024   0.969
54674W        W55538   8.337   7.159   3.299
54675W        W55539   8.485   3.589   0.695
54676W        W55540  10.623   4.087   1.643
54677W        W55541  10.913   6.449   0.196
54678W        W55542   7.411   5.800   1.715
54679W        W55543   9.641   4.113   0.182
54680W        W55544  10.762   6.571   1.740
54681W        W55545  10.667   3.758   2.510
54682W        W55546   9.283   4.805   3.257
54683W        W55547   8.979   6.252   0.812
54684W        W55548   9.751   5.548   3.622
54685W        W55549   9.442   3.755   1.653
54686W        W55550   7.936   4.681   1.844
54687W        W55551   7.617   5.785   2.660
54688W        W55552   9.455   6.886   1.506
54689W        W55553  10.335   4.523   2.339
54690W        W55554   9.335   7.026   2.880
54691W        W55555  10.587   5.770   0.207
54692W        W55556   8.817   5.540   1.147
54693W        W55557  10.917   3.793   2.956
54694W        W55558   8.982   5.887   2.523
54695W        W55559   9.352   4.731   1.940
54696W        W55560  10.161   5.090   0.899
54697W        W55561  10.457   4.834   0.536
54698W        W55562  10.279   6.596   0.952
54699W        W55563  10.086   6.119   1.632
54700W        W55564   9.754   5.331   0.683
54701W        W55565   9.329   5.616   1.571
54702W        W55566  10.285   5.345   1.847
54703W        W55567   7.683   4.412   2.221
54704W        W55568  10.271   5.407   2.834
54705W        W55569  10.729   6.951   2.109
54706W        W55570   8.590   6.550   1.519
54707W        W55571   9.811   7.055   2.648
54708W        W55572   9.613   4.348   2.543
54709W        W55573   8.933   7.224   2.615
54710W        W55574  10.598   4.138   1.132
54711W        W55575  10.133   5.299   2.332
54712W        W55576   7.269   4.685   2.370
54713W        W55577  10.248   4.398   1.480
54714W        W55578  10.500   4.590   3.021
54715W        W55579   9.468   6.340   1.492
54716W        W55580   8.789   6.917   1.190
54717W        W55581   7.849   4.103   0.432
54718W        W55582   8.893   3.780   2.001
54719W        W55583   8.015   6.963   0.103
54720W        W55584   8.271   5.567   0.466
54721W        W55585   9.053   6.057   3.041
54722W        W55586   8.920   4.358   1.163
54723W        W55587  10.231   3.858   1.396
54724W        W55588   9.918   7.118   1.718
54725W        W55589   9.342   6.950   2.016
54726W        W55590   8.712   5.954   2.077
54727W        W55591  10.525   6.564   2.386
54728W        W55592   8.172   3.971   0.837
54729W        W55593   8.620   6.475   2.021
54730W        W55594   8.227   4.289   0.083
54731W        W55595   8.910   4.932   2.342
54732W        W55596   9.828   3.866   2.104
54733W        W55597   7.392   5.796   2.214
54734W        W55598   9.069   5.350   0.018
54735W        W55599   8.284   3.821   0.288
54736W        W55600   9.079   4.943   0.958
54737W        W55601   9.829   3.929   2.795
54738W        W55602   8.577   5.946   2.922
54739W        W55603   9.355   5.579   3.239
54740W        W55604   9.842   5.654   3.082
54741W        W55605   9.250   3.883   3.671
54742W        W55606   8.423   4.500   1.677
54743W        W55607   7.944   4.408   1.382
54744W        W55608   7.678   7.148   1.154
54745W        W55609   9.192   6.565   3.049
54746W        W55610   8.013   6.023   0.476
54747W        W55611   9.803   5.499   1.748
54748W        W55612   9.772   5.048   2.032
54749W        W55613   9.199   5.759   2.062
54750W        W55614   9.715   6.015   0.128
54751W        W55615   9.391   4.223   1.423
54752W        W55616  10.907   4.565   0.928
54753W        W55617   7.482   7.005   3.027
54754W        W55618   7.698   6.230   2.394
54755W        W55619   7.328   7.104   0.774
54756W        W55620   9.155   4.461   2.330
54757W        W55621   8.492   6.389   0.504
54758W        W55622  10.506   6.922   0.626
54759W        W55623   9.258   5.311   0.535
54760W        W55624   8.106   4.754   0.957
54761W        W55625   9.282   4.491   0.203
54762W        W55626   9.540   6.074   3.165
54763W        W55627  10.157   4.026   0.895
54764W        W55628   7.502   3.713   0.317
54765W        W55629   8.642   6.265   2.491
54766W        W55630   8.395   6.078   1.677
54767W        W55631   8.412   5.990   0.135
54768W        W55632   7.312   6.581   0.710
54769W        W55633   8.140   5.160   2.859
54770W        W55634   8.674   3.995   3.445
54771W        W55635   9.282   4.008   2.804
54772W        W55636   8.577   3.844   1.139
54773W        W55637   9.502   3.654   0.689
54774W        W55638   7.638   3.909   2.059
54775W        W55639   7.602   4.792   1.462
54776W        W55640  10.372   3.723   2.029
54777W        W55641   7.796   4.354   0.870
54778W        W55642  10.203   4.010   2.439
54779W        W55643  10.712   5.248   0.182
54780W        W55644   8.036   4.184   1.855
54781W        W55645   9.189   4.519   2.844
54782W        W55646   7.330   4.245   0.282
54783W        W55647   8.084   5.789   2.916
54784W        W55648   9.272   5.242   1.951
54785W        W55649   9.255   7.052   0.470
54786W        W55650   7.393   5.811   0.145
54787W        W55651   8.239   6.294   3.151
54788W        W55652   7.694   5.281   2.620
54789W        W55653   8.630   5.382   2.551
54790W        W55654  10.288   3.690   2.851
54791W        W55655  10.809   5.414   2.788
54792W        W55656  10.836   5.509   0.611
54793W        W55657   9.570   5.813   0.734
54794W        W55658  10.316   7.161   0.218
54795W        W55659   9.380   5.137   3.649
54796W        W55660   7.853   6.118   3.427
54797W        W55661  10.969   4.092   3.383
54798W        W55662  10.508   4.978   2.133
54799W        W55663   8.814   7.103   3.539
54800W        W55664   8.798   3.724   0.281
54801W        W55665  10.225   6.195   0.289
54802W        W55666   8.281   4.604   2.905
54803W        W55667   8.692   6.446   2.965
54804W        W55668  10.600   4.233   2.677
54805W        W55669  10.049   7.229   0.650
54806W        W55670  10.084   5.803   2.070
54807W        W55671   8.387   4.142   2.654
54808W        W55672   8.960   5.216   3.313
54809W        W55673   8.096   6.336   0.871
54810W        W55674  10.037   5.689   0.927
54811W        W55675   7.893   4.301   2.703
54812W        W55676   9.034   6.469   1.269
54813W        W55677  10.895   5.058   1.448
54814W        W55678   9.040   3.748   3.178
54815W        W55679   9.973   6.320   2.102
54816W        W55680  10.293   6.746   1.936
54817W        W55681   9.382   6.231   0.483
54818W        W55682   7.402   6.372   3.298
54819W        W55683   8.190   4.479   2.291
54820W        W55684   8.118   3.913   1.392
54821W        W55685   9.834   4.518   2.108
54822W        W55686   8.764   5.631   0.347
54823W        W55687  10.589   5.761   1.922
54824W        W55688   7.834   6.653   3.188
54825W        W55689  10.377   7.222   1.043
54826W        W55690   8.401   4.349   1.140
54827W        W55691   7.927   5.703   1.683
54828W        W55692   8.508   7.300   2.325
54829W        W55693  10.505   7.162   3.215
54830W        W55694   9.628   5.498   2.248
54831W        W55695   7.592   5.382   0.365
54832W        W55696  10.749   6.857   1.092
54833W        W55697  10.548   4.283   0.632
54834W        W55698   8.612   3.705   2.844
54835W        W55699  10.348   6.525   1.450
54836W        W55700  10.383   5.147   1.384
54837W        W55701   8.698   4.794   1.335
54838W        W55702   8.797   5.007   2.858
54839W        W55703   9.839   6.163   2.764
54840W        W55704   8.724   4.535   2.637
54841W        W55705   8.418   7.046   1.503
54842W        W55706   7.827   7.180   3.373
54843W        W55707   7.984   6.543   0.404
54844W        W55708  10.299   6.086   1.131
54845W        W55709   8.403   4.909   2.505
54846W        W55710  10.958   4.964   0.531
54847W        W55711   8.558   5.933   0.744
54848W        W55712   9.290   5.164   2.884
54849W        W55713   9.434   4.943   2.415
54850W        W55714   8.155   5.337   2.333
54851W        W55715  10.264   7.029   2.391
54852W        W55716  10.056   3.838   3.292
54853W        W55717   7.711   3.863   2.943
54854W        W55718   8.032   5.213   1.805
54855W        W55719   8.500   4.699   0.218
54856W        W55720   7.365   6.538   2.815
54857W        W55721   8.777   5.347   2.058
54858W        W55722   8.800   4.279   0.209
54859W        W55723   7.961   5.331   1.264
54860W        W55724   7.539   7.151   2.541
54861W        W55725  10.350   5.367   0.530
54862W        W55726  10.515   4.050   3.157
54863W        W55727   9.886   6.377   1.207
54864W        W55728   7.616   5.177   3.121
54865W        W55729  10.577   3.766   0.560
54866W        W55730   9.969   6.176   0.728
54867W        W55731   8.755   5.270   0.701
54868W        W55732  10.084   3.963   0.392
54869W        W55733   9.960   4.842   2.486
54870W        W55734   7.567   5.322   1.592
54871W        W55735   7.962   6.178   1.363
54872W        W55736   9.995   4.820   1.291
54873W        W55737   8.959   4.355   1.708
54874W        W55738  10.789   6.099   2.361
54875W        W55739  10.697   4.139   2.170
54876W        W55740   7.397   7.017   1.573
54877W        W55741   7.596   6.218   0.962
54878W        W55742   7.665   3.942   3.584
54879W        W55743   8.974   6.624   3.494
54880W        W55744  10.747   5.562   1.449
54881W        W55745  10.017   5.729   0.417
54882W        W55746   9.402   7.258   2.412
54883W        W55747  10.160   5.838   3.473
54884W        W55748   8.983   3.647   0.762
54885W        W55749   9.708   4.573   1.617
54886W        W55750   7.267   6.246   1.963
54887W        W55751   8.687   4.084   0.691
54888W        W55752   8.335   5.840   3.390
54889W        W55753   9.415   4.513   0.994
54890W        W55754   9.605   6.016   2.318
54891W        W55755   7.822   6.721   2.679
54892W        W55756   8.476   6.684   3.430
54893W        W55757   8.277   4.408   0.595
54894W        W55758   9.903   4.655   0.778
54895W        W55759   9.694   6.624   2.937
54896W        W55760   8.535   5.222   1.606
54897W        W55761   8.037   7.092   2.381
54898W        W55762  10.804   6.990   0.203
54899W        W55763   7.624   5.718   3.168
54900W        W55764   9.621   5.976   1.817
54901W        W55765   8.093   5.819   0.968
54902W        W55766   8.441   6.746   2.457
54903W        W55767   8.997   3.901   1.423
54904W        W55768   7.250   6.067   0.585
54905W        W55769   8.963   4.903   0.406
54906W        W55770   7.657   5.762   1.259
54907W        W55771   8.862   4.039   2.465
54908W        W55772  10.502   3.964   0.086
54909W        W55773  10.578   5.616   3.223
54910W        W55774   9.319   7.002   3.419
54911W        W55775  10.750   5.943   2.846
54912W        W55776  10.305   6.687   3.405
54913W        W55777   8.071   7.340   1.929
54914W        W55778  10.873   5.853   1.038
54915W        W55779   9.558   5.076   1.555
54916W        W55780   9.276   3.525   1.185
54917W        W55781   8.156   6.696   1.230
54918W        W55782   8.682   4.494   2.129
54919W        W55783   8.550   4.006   1.651
54920W        W55784   7.573   6.878   0.367
54921W        W55785   9.230   5.962   1.193
54922W        W55786   8.282   6.774   2.944
54923W        W55787   7.628   5.743   0.738
54924W        W55788   7.538   4.313   1.729
54925W        W55789   9.057   6.105   1.693
54926W        W55790   7.401   4.008   0.737
54927W        W55791   9.765   5.269   2.714
54928W        W55792  10.144   4.469   0.358
54929W        W55793  10.459   6.246   1.984
54930W        W55794   9.056   6.609   1.767
54931W        W55795   8.307   6.826   0.728
54932W        W55796   9.690   3.593   0.189
54933W        W55797   7.629   7.074   2.035
54934W        W55798   9.780   4.702   3.370
54935W        W55799   7.807   4.323   3.212
54936W        W55800   7.566   4.847   0.951
54937W        W55801   8.297   5.040   0.571
54938W        W55802   9.679   5.178   3.225
54939W        W55803   8.354   5.616   1.941
54940W        W55804   9.720   3.826   1.171
54941W        W55805   8.955   7.100   1.660
54942W        W55806  10.028   6.582   2.540
54943W        W55807   9.875   6.603   1.672
54944W        W55808   9.739   5.859   1.318
54945W        W55809   9.200   4.026   0.465
54946W        W55810  10.903   3.713   1.190
54947W        W55811   8.589   5.192   0.168
54948W        W55812  10.737   4.566   1.405
54949W        W55813   9.274   5.766   0.282
54950W        W55814  10.253   5.921   2.956
54951W        W55815  10.054   6.680   0.475
54952W        W55816   8.803   4.158   2.972
54953W        W55817   8.389   4.913   2.002
54954W        W55818  10.400   6.415   2.883
54955W        W55819   9.635   4.314   3.062
54956W        W55820   7.277   4.959   2.796
54957W        W55821   9.151   5.393   2.438
54958W        W55822   7.436   6.222   1.451
54959W        W55823   7.654   5.362   2.108
54960W        W55824   9.964   5.720   2.568
54961W        W55825   9.839   6.976   3.286
54962W        W55826   9.629   4.779   2.868
54963W        W55827  10.012   6.910   1.262
54964W        W55828   8.962   6.684   2.591
54965W        W55829   8.342   6.914   1.983
54966W        W55830  10.278   6.115   2.468
54967W        W55831   9.189   6.153   3.565
54968W        W55832   7.775   6.148   1.874
54969W        W55833  10.239   5.670   1.445
54970W        W55834   9.833   6.833   2.142
54971W        W55835   7.948   6.631   2.190
54972W        W55836   8.804   4.609   3.200
54973W        W55837   9.274   6.865   0.996
54974W        W55838   8.700   6.199   3.408
54975W        W55839   8.567   6.469   1.014
54976W        W55840   8.042   5.217   0.155
54977W        W55841   7.244   7.315   7.095
54978W        W55842   7.773   6.208   6.458
54979W        W55843  10.512   5.865   4.378
54980W        W55844  10.664   6.997   6.408
54981W        W55845   8.372   7.075   3.822
54982W        W55846   8.598   5.314   4.727
54983W        W55847   8.311   5.054   5.516
54984W        W55848   9.103   5.761   4.221
54985W        W55849   8.798   6.893   6.720
54986W        W55850   7.336   4.329   6.612
54987W        W55851   7.980   3.513   6.541
54988W        W55852   9.871   4.220   5.303
54989W        W55853   9.638   4.884   4.072
54990W        W55854   9.987   4.562   6.899
54991W        W55855   7.422   3.975   6.235
54992W        W55856   7.427   6.857   7.241
54993W        W55857   8.780   6.373   3.904
54994W        W55858   7.486   4.808   5.664
54995W        W55859   8.462   4.959   6.817
54996W        W55860  10.698   4.673   5.368
54997W        W55861  10.553   5.692   6.263
54998W        W55862   9.151   4.954   5.225
54999W        W55863   9.574   6.438   5.640
55000W        W55864   7.838   5.778   5.870
55001W        W55865   7.183   5.255   5.642
55002W        W55866   8.427   5.365   6.415
55003W        W55867  10.638   5.158   6.831
55004W        W55868   8.225   6.564   5.314
55005W        W55869   9.396   6.282   6.425
55006W        W55870   8.784   4.881   5.600
55007W        W55871   8.909   5.718   5.264
55008W        W55872   9.748   6.730   7.094
55009W        W55873   8.967   5.704   7.151
55010W        W55874   8.994   5.541   6.597
55011W        W55875   7.407   4.698   6.972
55012W        W55876  10.104   6.397   6.832
55013W        W55877   7.680   3.768   4.798
55014W        W55878   8.399   6.355   5.762
55015W        W55879  10.684   6.086   5.250
55016W        W55880  10.253   4.590   5.625
55017W        W55881  10.562   4.357   3.588
55018W        W55882  10.970   5.197   6.087
55019W        W55883   9.032   6.870   5.854
55020W        W55884  10.627   6.385   4.170
55021W        W55885   7.728   7.237   4.402
55022W        W55886   8.083   7.128   4.780
55023W        W55887   8.107   3.956   6.028
55024W        W55888  10.525   5.157   6.332
55025W        W55889   9.907   5.286   4.628
55026W        W55890   9.921   5.067   3.696
55027W        W55891   9.222   6.272   5.948
55028W        W55892   9.032   4.462   5.087
55029W        W55893   9.492   6.698   6.113
55030W        W55894  10.361   5.349   4.325
55031W        W55895   9.513   4.053   4.507
55032W        W55896   7.980   6.761   4.435
55033W        W55897   7.324   4.153   5.010
55034W        W55898   9.947   4.891   5.287
55035W        W55899   7.718   6.593   5.470
55036W        W55900   8.814   6.881   4.021
55037W        W55901  10.309   4.805   3.453
55038W        W55902   7.509   6.628   5.938
55039W        W55903   8.269   6.335   6.282
55040W        W55904   8.865   5.750   4.700
55041W        W55905   8.607   4.078   5.943
55042W        W55906  10.838   3.901   5.503
55043W        W55907   8.053   5.403   3.304
55044W        W55908   7.360   4.372   3.640
55045W        W55909   7.865   6.606   4.936
55046W        W55910   8.646   6.205   4.819
55047W        W55911  10.232   6.871   6.670
55048W        W55912   9.339   4.414   4.175
55049W        W55913  10.506   7.042   5.310
55050W        W55914  10.173   4.992   6.692
55051W        W55915  10.932   6.491   5.027
55052W        W55916   9.545   5.788   6.441
55053W        W55917   7.467   5.375   4.825
55054W        W55918   8.354   5.881   5.940
55055W        W55919   9.452   5.039   4.550
55056W        W55920   9.476   5.576   4.584
55057W        W55921   7.595   4.889   6.141
55058W        W55922   7.735   4.674   6.567
55059W        W55923   7.641   3.806   5.296
55060W        W55924   9.381   4.197   5.514
55061W        W55925   9.177   4.256   6.818
55062W        W55926   9.734   4.089   4.039
55063W        W55927  10.701   6.853   6.922
55064W        W55928   9.481   3.839   6.875
55065W        W55929  10.549   6.267   7.065
55066W        W55930  10.168   4.317   6.501
55067W        W55931   9.849   4.297   4.812
55068W        W55932  10.278   5.299   7.190
55069W        W55933   7.922   7.012   5.261
55070W        W55934   8.842   4.480   4.276
55071W        W55935   8.086   3.944   6.827
55072W        W55936  10.261   4.522   4.593
55073W        W55937  10.594   4.863   4.371
55074W        W55938   8.354   7.046   6.972
55075W        W55939   8.213   3.713   4.170
55076W        W55940  10.687   4.206   5.128
55077W        W55941  10.797   6.441   3.669
55078W        W55942   7.585   5.718   5.398
55079W        W55943   9.692   4.192   3.549
55080W        W55944  10.814   6.609   5.522
55081W        W55945  10.699   3.875   5.986
55082W        W55946   9.303   5.120   6.679
55083W        W55947   9.153   6.287   4.275
55084W        W55948   9.813   5.523   7.222
55085W        W55949   9.500   3.726   5.356
55086W        W55950   7.916   4.614   5.451
55087W        W55951   7.549   5.742   6.290
55088W        W55952   9.605   6.912   5.090
55089W        W55953  10.607   4.899   5.852
55090W        W55954   9.392   7.057   6.546
55091W        W55955  10.592   5.957   3.818
55092W        W55956   9.132   5.374   4.934
55093W        W55957  10.833   3.790   6.470
55094W        W55958   9.088   5.876   6.226
55095W        W55959   9.239   4.669   5.653
55096W        W55960  10.075   4.919   4.330
55097W        W55961  10.369   4.949   3.927
55098W        W55962  10.275   6.724   4.482
55099W        W55963  10.158   6.116   5.339
55100W        W55964   9.908   5.380   4.107
55101W        W55965   9.412   5.565   5.326
55102W        W55966  10.201   5.414   5.022
55103W        W55967   7.774   4.390   5.922
55104W        W55968  10.276   5.489   6.691
55105W        W55969  10.789   7.058   5.765
55106W        W55970   8.726   6.590   5.162
55107W        W55971   9.866   7.068   6.299
55108W        W55972   9.796   4.493   6.157
55109W        W55973   8.956   7.148   6.290
55110W        W55974  10.609   4.148   4.602
55111W        W55975  10.374   5.378   5.882
55112W        W55976   7.292   4.473   6.111
55113W        W55977  10.259   4.517   5.106
55114W        W55978  10.565   4.689   6.585
55115W        W55979   9.637   6.250   5.150
55116W        W55980   8.835   6.915   4.786
55117W        W55981   7.766   3.991   4.105
55118W        W55982   9.036   3.792   5.665
55119W        W55983   7.794   7.173   3.887
55120W        W55984   8.617   5.552   4.252
55121W        W55985   9.035   6.038   6.709
55122W        W55986   9.023   4.161   4.664
55123W        W55987  10.247   4.005   4.954
55124W        W55988   9.971   7.122   5.407
55125W        W55989   9.457   6.948   5.591
55126W        W55990   8.842   5.919   5.753
55127W        W55991  10.651   6.614   6.060
55128W        W55992   8.102   4.011   4.595
55129W        W55993   8.879   6.435   5.625
55130W        W55994   8.344   4.406   3.383
55131W        W55995   9.065   5.001   6.011
55132W        W55996   9.815   3.977   5.741
55133W        W55997   7.312   5.717   5.830
55134W        W55998   8.932   5.312   3.908
55135W        W55999   8.193   3.878   3.635
55136W        W56000   8.961   4.865   4.728
55137W        W56001   9.840   3.996   6.244
55138W        W56002   8.605   5.859   6.405
55139W        W56003   9.407   5.664   6.909
55140W        W56004   9.900   5.845   6.806
55141W        W56005   9.053   3.861   7.192
55142W        W56006   8.404   4.524   5.651
55143W        W56007   7.821   4.251   5.071
55144W        W56008   7.563   7.019   4.872
55145W        W56009   9.225   6.602   6.816
55146W        W56010   8.274   5.926   4.076
55147W        W56011   9.927   5.422   5.445
55148W        W56012  10.008   5.017   5.786
55149W        W56013   9.314   5.718   5.805
55150W        W56014   9.728   6.077   3.656
55151W        W56015   9.412   4.115   5.011
55152W        W56016  10.930   4.471   4.348
55153W        W56017   7.447   7.004   6.737
55154W        W56018   7.907   6.289   5.937
55155W        W56019   7.225   7.170   4.508
55156W        W56020   9.324   4.297   6.020
55157W        W56021   8.348   6.628   4.073
55158W        W56022  10.358   6.787   3.983
55159W        W56023   9.408   5.344   4.114
55160W        W56024   8.595   4.423   4.736
55161W        W56025   9.408   4.598   3.708
55162W        W56026   9.602   6.249   6.898
55163W        W56027  10.111   4.069   4.419
55164W        W56028   7.385   3.667   3.965
55165W        W56029   8.748   6.259   6.123
55166W        W56030   8.575   6.120   5.337
55167W        W56031   8.283   6.279   3.691
55168W        W56032   7.283   6.663   4.580
55169W        W56033   8.095   5.330   6.804
55170W        W56034   8.554   3.803   6.955
55171W        W56035   9.351   3.941   6.393
55172W        W56036   8.576   3.792   4.825
55173W        W56037   9.533   3.641   4.194
55174W        W56038   7.654   3.859   5.803
55175W        W56039   7.457   4.646   5.170
55176W        W56040  10.345   4.093   5.490
55177W        W56041   7.584   4.212   4.557
55178W        W56042  10.242   4.210   5.986
55179W        W56043  10.725   5.164   3.613
55180W        W56044   8.053   4.121   5.535
55181W        W56045   9.219   4.652   6.403
55182W        W56046   7.208   4.144   4.076
55183W        W56047   8.072   5.757   6.352
55184W        W56048   9.531   5.098   5.561
55185W        W56049   9.260   7.134   3.988
55186W        W56050   7.281   5.412   3.442
55187W        W56051   8.252   6.065   6.715
55188W        W56052   7.818   5.308   6.338
55189W        W56053   8.806   5.466   6.071
55190W        W56054  10.312   3.827   6.345
55191W        W56055  10.917   5.485   6.540
55192W        W56056  10.777   5.530   4.063
55193W        W56057   9.610   5.818   4.108
55194W        W56058  10.201   7.135   3.637
55195W        W56059   9.373   5.214   7.185
55196W        W56060   7.840   6.194   6.986
55197W        W56061  11.039   4.287   7.182
55198W        W56062  10.376   5.114   5.431
55199W        W56063   8.817   7.098   7.200
55200W        W56064   8.680   3.793   3.916
55201W        W56065  10.217   6.317   3.760
55202W        W56066   8.199   4.481   6.707
55203W        W56067   8.670   6.396   6.621
55204W        W56068  10.640   4.256   6.328
55205W        W56069   9.993   7.186   4.124
55206W        W56070  10.163   5.843   5.818
55207W        W56071   8.411   4.083   6.444
55208W        W56072   8.889   5.217   6.984
55209W        W56073   8.245   6.296   4.469
55210W        W56074  10.005   5.763   4.501
55211W        W56075   7.863   4.198   6.415
55212W        W56076   9.100   6.445   4.792
55213W        W56077  10.758   5.109   5.102
55214W        W56078   8.974   3.774   6.686
55215W        W56079  10.035   6.339   5.817
55216W        W56080  10.345   6.728   5.670
55217W        W56081   9.289   6.621   3.891
55218W        W56082   7.377   6.437   6.924
55219W        W56083   8.244   4.461   6.140
55220W        W56084   8.121   3.837   5.089
55221W        W56085   9.738   4.577   5.661
55222W        W56086   8.746   5.855   3.838
55223W        W56087  10.413   5.653   5.413
55224W        W56088   7.837   6.661   6.754
55225W        W56089  10.313   7.230   4.577
55226W        W56090   8.479   4.212   5.196
55227W        W56091   8.045   5.506   5.466
55228W        W56092   8.656   7.237   5.900
55229W        W56093  10.385   7.264   6.971
55230W        W56094   9.757   5.491   5.921
55231W        W56095   7.261   4.907   3.572
55232W        W56096  10.632   6.853   4.832
55233W        W56097  10.433   4.412   4.111
55234W        W56098   8.503   3.582   6.475
55235W        W56099  10.435   6.532   5.187
55236W        W56100  10.333   4.986   4.806
55237W        W56101   8.592   4.727   5.160
55238W        W56102   8.843   5.073   6.462
55239W        W56103   9.908   6.204   6.417
55240W        W56104   8.619   4.618   6.447
55241W        W56105   8.441   7.045   5.137
55242W        W56106   7.851   7.101   7.041
55243W        W56107   8.007   6.749   3.658
55244W        W56108  10.550   6.347   4.695
55245W        W56109   8.157   4.918   6.402
55246W        W56110  10.828   4.700   3.879
55247W        W56111   8.694   6.063   4.322
55248W        W56112   9.766   5.355   6.687
55249W        W56113   9.573   4.947   6.058
55250W        W56114   8.184   5.374   5.961
55251W        W56115  10.308   7.099   6.027
55252W        W56116   9.982   3.906   6.771
55253W        W56117   7.582   3.872   6.714
55254W        W56118   8.031   4.867   5.894
55255W        W56119   8.935   4.829   3.664
55256W        W56120   7.388   6.601   6.435
55257W        W56121   9.045   5.329   5.606
55258W        W56122   8.974   4.305   3.791
55259W        W56123   8.407   5.681   5.120
55260W        W56124   7.482   7.124   6.237
55261W        W56125  10.330   5.451   3.795
55262W        W56126  10.588   4.293   6.907
55263W        W56127  10.064   6.360   4.869
55264W        W56128   7.613   5.129   6.784
55265W        W56129  10.571   3.900   4.140
55266W        W56130  10.157   6.242   4.342
55267W        W56131   9.029   5.309   4.444
55268W        W56132  10.177   4.051   3.761
55269W        W56133  10.247   4.729   6.176
55270W        W56134   7.572   5.183   5.301
55271W        W56135   8.171   6.169   4.986
55272W        W56136   9.847   4.797   4.788
55273W        W56137   8.866   4.289   5.542
55274W        W56138  10.899   6.158   6.147
55275W        W56139  10.722   4.353   5.779
55276W        W56140   7.378   6.984   5.358
55277W        W56141   7.757   6.171   4.664
55278W        W56142   7.682   3.962   7.286
55279W        W56143   8.781   6.584   7.137
55280W        W56144  10.865   5.613   5.170
55281W        W56145  10.109   5.859   3.995
55282W        W56146   9.415   7.211   6.052
55283W        W56147  10.254   5.830   7.172
55284W        W56148   8.670   3.494   4.341
55285W        W56149   9.532   4.604   5.180
55286W        W56150   7.507   6.161   5.662
55287W        W56151   8.597   4.026   4.369
55288W        W56152   8.549   5.615   6.857
55289W        W56153   9.387   4.539   4.682
55290W        W56154   9.671   6.027   6.011
55291W        W56155   7.886   6.721   6.253
55292W        W56156   8.298   6.520   6.965
55293W        W56157   8.467   4.256   3.895
55294W        W56158   9.809   4.489   4.347
55295W        W56159   9.729   6.664   6.583
55296W        W56160   8.711   5.235   5.217
55297W        W56161   8.216   7.125   6.130
55298W        W56162  10.692   6.951   3.643
55299W        W56163   7.731   5.709   6.766
55300W        W56164   9.731   5.908   5.527
55301W        W56165   8.339   5.810   4.624
55302W        W56166   8.575   6.745   6.092
55303W        W56167   8.955   3.919   5.163
55304W        W56168   7.297   6.170   4.397
55305W        W56169   9.140   4.890   4.143
55306W        W56170   7.885   5.731   4.968
55307W        W56171   8.911   4.198   6.371
55308W        W56172  10.631   3.814   3.638
55309W        W56173  10.687   5.648   6.979
55310W        W56174   9.315   7.074   7.050
55311W        W56175  10.883   6.019   6.648
55312W        W56176  10.284   6.726   7.177
55313W        W56177   8.193   7.237   5.631
55314W        W56178  10.858   5.958   4.771
55315W        W56179   9.610   5.191   5.039
55316W        W56180   9.110   3.662   4.630
55317W        W56181   8.362   6.666   4.800
55318W        W56182   8.838   4.542   5.991
55319W        W56183   8.524   3.795   5.488
55320W        W56184   7.362   6.836   4.073
55321W        W56185   9.289   5.911   4.950
55322W        W56186   8.313   6.794   6.530
55323W        W56187   7.563   5.719   4.452
55324W        W56188   7.469   4.256   5.515
55325W        W56189   9.235   6.084   5.445
55326W        W56190   7.255   3.811   4.482
55327W        W56191  10.011   5.202   6.260
55328W        W56192   9.992   4.550   3.834
55329W        W56193  10.524   6.232   5.708
55330W        W56194   9.236   6.589   5.278
55331W        W56195   8.469   7.034   4.414
55332W        W56196   9.741   3.681   3.689
55333W        W56197   7.711   7.075   5.754
55334W        W56198   9.432   4.713   6.988
55335W        W56199   7.745   4.314   6.921
55336W        W56200   7.278   4.897   4.747
55337W        W56201   8.659   4.997   4.288
55338W        W56202   9.842   5.017   7.083
55339W        W56203   8.549   5.519   5.613
55340W        W56204   9.784   3.782   4.875
55341W        W56205   8.981   7.053   5.300
55342W        W56206  10.153   6.632   6.229
55343W        W56207   9.954   6.606   5.354
55344W        W56208   9.802   5.744   5.012
55345W        W56209   9.093   3.965   4.187
55346W        W56210  10.882   3.784   4.861
55347W        W56211   8.531   5.396   3.589
55348W        W56212  10.704   4.629   4.828
55349W        W56213   9.256   5.670   3.732
55350W        W56214  10.370   5.987   6.664
55351W        W56215   9.878   6.748   3.759
55352W        W56216   8.662   4.288   6.852
55353W        W56217   8.530   4.978   6.041
55354W        W56218  10.563   6.471   6.570
55355W        W56219   9.641   4.309   6.613
55356W        W56220   7.246   4.858   6.508
55357W        W56221   9.325   5.386   6.220
55358W        W56222   7.688   6.173   5.179
55359W        W56223   7.690   5.287   5.802
55360W        W56224  10.037   5.722   6.302
55361W        W56225   9.851   7.170   6.817
55362W        W56226   9.710   4.832   6.548
55363W        W56227  10.123   6.892   4.955
55364W        W56228   9.033   6.638   6.329
55365W        W56229   8.571   6.849   5.586
55366W        W56230  10.370   6.165   6.185
55367W        W56231   9.152   6.194   7.174
55368W        W56232   8.076   6.038   5.489
55369W        W56233  10.343   5.899   4.894
55370W        W56234   9.886   6.842   5.833
55371W        W56235   8.100   6.754   5.787
55372W        W56236   8.940   4.724   6.842
55373W        W56237   9.185   6.806   4.399
55374W        W56238   8.637   6.100   7.053
55375W        W56239   8.719   6.562   4.428
55376W        W56240   7.975   4.827   3.264
55377W        W56241   7.532   7.294  10.758
55378W        W56242   7.875   6.099  10.238
55379W        W56243  10.482   5.804   8.019
55380W        W56244  10.820   6.874   9.996
55381W        W56245   8.343   6.856   7.463
55382W        W56246   8.684   5.054   8.163
55383W        W56247   8.220   4.642   8.882
55384W        W56248   9.079   5.366   8.055
55385W        W56249   8.933   6.951  10.368
55386W        W56250   7.336   4.260  10.330
55387W        W56251   8.112   3.547  10.118
55388W        W56252   9.890   4.102   9.043
55389W        W56253   9.505   4.750   7.539
55390W        W56254  10.091   4.363  10.667
55391W        W56255   7.440   4.024   9.881
55392W        W56256   7.592   6.724  10.785
55393W        W56257   8.818   6.255   7.565
55394W        W56258   7.410   4.748   9.373
55395W        W56259   8.613   4.799  10.416
55396W        W56260  10.573   4.515   9.221
55397W        W56261  10.645   5.678   9.900
55398W        W56262   8.983   5.077   8.932
55399W        W56263   9.510   6.410   9.312
55400W        W56264   7.921   5.726   9.369
55401W        W56265   7.220   5.237   9.281
55402W        W56266   8.480   5.262  10.242
55403W        W56267  10.640   5.107  10.503
55404W        W56268   8.168   6.641   8.987
55405W        W56269   9.426   6.293   9.997
55406W        W56270   8.681   4.703   9.143
55407W        W56271   8.772   5.558   9.029
55408W        W56272   9.774   6.612  10.800
55409W        W56273   9.045   5.671  10.731
55410W        W56274   8.938   5.462  10.278
55411W        W56275   7.334   4.673  10.667
55412W        W56276  10.131   6.464  10.451
55413W        W56277   7.702   3.901   8.427
55414W        W56278   8.454   6.339   9.558
55415W        W56279  10.646   6.011   8.903
55416W        W56280  10.088   4.418   9.424
55417W        W56281  10.527   4.419   7.447
55418W        W56282  10.985   5.267   9.829
55419W        W56283   9.044   6.910   9.484
55420W        W56284  10.694   6.293   8.021
55421W        W56285   7.621   7.071   8.037
55422W        W56286   8.114   7.119   8.419
55423W        W56287   7.938   3.950   9.842
55424W        W56288  10.541   5.021   9.964
55425W        W56289   9.933   5.316   8.567
55426W        W56290   9.929   5.129   7.581
55427W        W56291   9.250   6.062   9.555
55428W        W56292   8.967   4.476   8.756
55429W        W56293   9.609   6.730   9.754
55430W        W56294  10.423   5.455   8.408
55431W        W56295   9.510   4.036   8.256
55432W        W56296   8.035   6.763   8.062
55433W        W56297   7.329   4.256   8.561
55434W        W56298   9.949   4.933   9.045
55435W        W56299   7.669   6.572   9.094
55436W        W56300   8.833   6.774   7.622
55437W        W56301  10.390   4.797   7.121
55438W        W56302   7.460   6.546   9.581
55439W        W56303   8.262   6.390  10.025
55440W        W56304   8.930   5.422   8.555
55441W        W56305   8.290   4.043   9.490
55442W        W56306  10.947   3.770   9.258
55443W        W56307   8.136   5.770   7.121
55444W        W56308   7.640   4.474   7.399
55445W        W56309   7.850   6.557   8.589
55446W        W56310   8.706   5.934   8.689
55447W        W56311  10.365   6.915  10.275
55448W        W56312   9.294   4.431   7.932
55449W        W56313  10.486   7.162   8.871
55450W        W56314  10.177   4.956  10.334
55451W        W56315  10.805   6.344   8.532
55452W        W56316   9.599   5.824  10.127
55453W        W56317   7.306   5.289   8.450
55454W        W56318   8.263   5.897   9.748
55455W        W56319   9.522   4.923   8.118
55456W        W56320   9.437   5.381   8.438
55457W        W56321   7.748   4.803   9.790
55458W        W56322   7.850   4.802  10.401
55459W        W56323   7.629   3.725   8.906
55460W        W56324   9.479   4.199   9.359
55461W        W56325   9.229   4.116  10.548
55462W        W56326   9.725   4.252   7.643
55463W        W56327  10.780   6.725  10.524
55464W        W56328   9.659   3.621  10.375
55465W        W56329  10.565   6.223  10.607
55466W        W56330  10.180   4.302  10.141
55467W        W56331   9.859   4.262   8.561
55468W        W56332  10.246   5.302  10.756
55469W        W56333   7.827   7.027   8.859
55470W        W56334   8.810   4.493   7.692
55471W        W56335   8.284   3.906  10.465
55472W        W56336  10.276   4.541   8.356
55473W        W56337  10.539   4.977   8.190
55474W        W56338   8.478   7.159  10.500
55475W        W56339   8.155   3.696   7.918
55476W        W56340  10.793   4.140   8.933
55477W        W56341  10.741   6.595   7.427
55478W        W56342   7.513   5.630   9.044
55479W        W56343   9.637   4.273   7.131
55480W        W56344  10.772   6.558   9.015
55481W        W56345  10.761   3.756   9.769
55482W        W56346   9.466   4.954  10.475
55483W        W56347   9.062   6.179   8.053
55484W        W56348   9.861   5.518  11.016
55485W        W56349   9.570   3.699   9.168
55486W        W56350   7.917   4.721   9.298
55487W        W56351   7.774   5.726   9.874
55488W        W56352   9.543   6.932   8.746
55489W        W56353  10.514   4.544   9.752
55490W        W56354   9.408   7.106  10.125
55491W        W56355  10.561   5.595   7.527
55492W        W56356   9.122   4.962   8.441
55493W        W56357  10.866   3.737  10.299
55494W        W56358   9.133   5.734   9.907
55495W        W56359   9.205   4.676   9.175
55496W        W56360  10.045   4.908   8.049
55497W        W56361  10.414   4.903   7.645
55498W        W56362  10.371   6.596   8.285
55499W        W56363   9.954   6.128   9.067
55500W        W56364   9.786   5.366   8.051
55501W        W56365   9.283   5.507   8.920
55502W        W56366  10.281   5.326   9.127
55503W        W56367   7.683   4.337   9.551
55504W        W56368  10.324   5.440  10.235
55505W        W56369  10.797   6.981   9.430
55506W        W56370   8.659   6.462   8.877
55507W        W56371   9.913   7.093  10.041
55508W        W56372   9.728   4.328   9.827
55509W        W56373   8.933   7.234   9.917
55510W        W56374  10.694   4.190   8.386
55511W        W56375  10.329   5.373   9.650
55512W        W56376   7.307   4.526   9.855
55513W        W56377  10.172   4.510   8.891
55514W        W56378  10.569   4.604  10.308
55515W        W56379   9.481   6.237   8.836
55516W        W56380   8.836   6.862   8.585
55517W        W56381   7.751   4.003   7.795
55518W        W56382   9.106   3.752   9.380
55519W        W56383   7.807   7.058   7.552
55520W        W56384   8.590   5.469   7.861
55521W        W56385   9.147   6.012  10.344
55522W        W56386   9.025   4.120   8.381
55523W        W56387  10.308   4.044   8.707
55524W        W56388   9.950   7.170   9.022
55525W        W56389   9.537   6.912   9.265
55526W        W56390   8.757   5.898   9.567
55527W        W56391  10.544   6.590   9.640
55528W        W56392   8.132   4.121   8.211
55529W        W56393   8.918   6.404   9.361
55530W        W56394   8.173   4.304   7.200
55531W        W56395   9.110   4.697   9.685
55532W        W56396   9.924   3.877   9.493
55533W        W56397   7.374   5.639   9.563
55534W        W56398   8.944   5.324   7.508
55535W        W56399   8.201   3.796   7.332
55536W        W56400   8.883   4.574   8.221
55537W        W56401   9.909   3.869   9.998
55538W        W56402   8.660   5.895  10.123
55539W        W56403   9.528   5.731  10.631
55540W        W56404   9.827   5.349  10.485
55541W        W56405   9.207   3.823  10.965
55542W        W56406   8.474   4.223   9.044
55543W        W56407   7.871   4.349   8.614
55544W        W56408   7.472   6.893   8.499
55545W        W56409   9.229   6.523  10.456
55546W        W56410   8.491   6.014   7.891
55547W        W56411   9.772   5.414   9.050
55548W        W56412   9.882   5.171   9.493
55549W        W56413   9.124   5.585   9.402
55550W        W56414  10.037   6.275   7.323
55551W        W56415   9.354   4.110   8.833
55552W        W56416  10.689   4.525   7.969
55553W        W56417   7.532   6.997  10.333
55554W        W56418   7.862   6.248   9.731
55555W        W56419   7.098   7.009   8.151
55556W        W56420   9.081   4.169   9.721
55557W        W56421   8.468   6.538   7.896
55558W        W56422  10.643   6.831   7.908
55559W        W56423   9.431   5.254   7.696
55560W        W56424   8.404   4.580   8.037
55561W        W56425   9.162   4.364   7.326
55562W        W56426   9.643   6.209  10.496
55563W        W56427  10.202   4.063   8.185
55564W        W56428   7.341   3.712   7.618
55565W        W56429   8.907   6.270   9.871
55566W        W56430   8.528   6.044   9.148
55567W        W56431   8.324   6.302   7.432
55568W        W56432   7.250   6.513   8.204
55569W        W56433   8.049   5.275  10.515
55570W        W56434   8.773   3.787  10.667
55571W        W56435   9.389   3.946  10.066
55572W        W56436   8.510   3.777   8.362
55573W        W56437  10.204   3.969   7.646
55574W        W56438   7.633   3.847   9.420
55575W        W56439   7.573   4.639   8.899
55576W        W56440  10.384   4.027   9.224
55577W        W56441   7.642   4.362   8.149
55578W        W56442  10.337   4.052   9.726
55579W        W56443  10.770   5.169   7.320
55580W        W56444   7.957   4.221   9.120
55581W        W56445   9.322   4.459  10.145
55582W        W56446   7.254   4.210   7.643
55583W        W56447   8.178   5.684  10.210
55584W        W56448   9.387   5.148   9.311
55585W        W56449   9.189   7.150   7.569
55586W        W56450   7.390   5.445   7.131
55587W        W56451   8.339   6.142  10.459
55588W        W56452   7.755   5.230  10.081
55589W        W56453   8.688   5.462   9.817
55590W        W56454  10.378   3.710  10.123
55591W        W56455  10.919   5.463  10.282
55592W        W56456  10.785   5.388   7.970
55593W        W56457   9.412   5.758   8.079
55594W        W56458  10.024   7.143   7.318
55595W        W56459   9.421   5.284  10.872
55596W        W56460   7.964   6.319  10.772
55597W        W56461  10.948   4.055  10.735
55598W        W56462  10.335   4.911   9.427
55599W        W56463   8.977   7.120  10.862
55600W        W56464   8.616   3.737   7.681
55601W        W56465  10.479   6.114   7.574
55602W        W56466   8.232   4.427  10.310
55603W        W56467   8.721   6.474  10.288
55604W        W56468  10.705   4.174  10.054
55605W        W56469  10.192   7.108   7.819
55606W        W56470  10.044   5.717   9.373
55607W        W56471   8.430   4.062   9.985
55608W        W56472   8.990   5.114  10.646
55609W        W56473   8.117   6.278   8.217
55610W        W56474  10.015   5.762   8.279
55611W        W56475   7.766   4.384  10.087
55612W        W56476   9.056   6.365   8.564
55613W        W56477  10.672   4.994   9.023
55614W        W56478   9.156   3.611  10.399
55615W        W56479   9.994   6.498   9.463
55616W        W56480  10.328   6.806   9.206
55617W        W56481   9.259   6.666   7.346
55618W        W56482   7.490   6.232  10.563
55619W        W56483   8.152   4.470   9.747
55620W        W56484   8.166   3.946   8.712
55621W        W56485   9.652   4.702   9.447
55622W        W56486   8.552   5.773   7.438
55623W        W56487  10.565   5.814   9.396
55624W        W56488   7.874   6.603  10.364
55625W        W56489  10.428   7.180   8.299
55626W        W56490   8.525   4.304   8.519
55627W        W56491   8.265   5.683   8.901
55628W        W56492   8.567   7.224   9.546
55629W        W56493  10.451   7.247  10.635
55630W        W56494   9.580   5.560   9.664
55631W        W56495   7.517   4.995   7.359
55632W        W56496  10.744   6.851   8.557
55633W        W56497  10.204   4.451   7.840
55634W        W56498   8.628   3.553  10.228
55635W        W56499  10.330   6.464   8.782
55636W        W56500  10.314   4.987   8.661
55637W        W56501   8.632   4.841   8.626
55638W        W56502   9.066   4.930  10.171
55639W        W56503   9.930   6.202  10.078
55640W        W56504   8.801   4.477  10.071
55641W        W56505   8.424   7.050   8.840
55642W        W56506   7.998   7.032  10.692
55643W        W56507   7.904   6.631   7.275
55644W        W56508  10.390   6.067   8.450
55645W        W56509   8.195   4.891  10.042
55646W        W56510  10.915   4.728   7.536
55647W        W56511   8.808   5.774   8.215
55648W        W56512   9.423   5.355  10.168
55649W        W56513   9.533   4.896   9.919
55650W        W56514   8.175   5.364   9.809
55651W        W56515  10.394   7.076   9.793
55652W        W56516  10.054   3.817  10.650
55653W        W56517   7.731   3.898  10.326
55654W        W56518   8.315   4.964   9.499
55655W        W56519   8.571   4.647   7.223
55656W        W56520   7.475   6.384  10.070
55657W        W56521   8.800   5.161   9.399
55658W        W56522   8.649   4.136   7.353
55659W        W56523   8.434   5.345   8.532
55660W        W56524   7.548   7.218   9.856
55661W        W56525  10.280   5.344   7.906
55662W        W56526  10.487   4.052  10.501
55663W        W56527   9.920   6.236   8.551
55664W        W56528   7.538   5.183  10.576
55665W        W56529  10.663   4.013   7.890
55666W        W56530  10.157   6.198   8.001
55667W        W56531   9.081   4.899   7.853
55668W        W56532  10.161   4.164   7.177
55669W        W56533  10.047   4.763   9.834
55670W        W56534   7.663   5.124   9.043
55671W        W56535   8.225   6.190   8.730
55672W        W56536   9.847   4.790   8.528
55673W        W56537   8.963   4.216   9.207
55674W        W56538  10.805   6.164   9.808
55675W        W56539  10.845   4.200   9.514
55676W        W56540   7.315   6.983   8.988
55677W        W56541   7.629   6.146   8.358
55678W        W56542   7.848   3.892  10.837
55679W        W56543   8.832   6.631  10.772
55680W        W56544  10.685   5.500   8.865
55681W        W56545  10.078   5.761   7.672
55682W        W56546   9.418   7.235   9.644
55683W        W56547  10.048   5.829  10.590
55684W        W56548   8.946   3.685   8.096
55685W        W56549   9.636   4.535   8.942
55686W        W56550   7.544   6.093   9.343
55687W        W56551   8.653   4.128   8.026
55688W        W56552   8.545   5.659  10.583
55689W        W56553   9.393   4.516   8.462
55690W        W56554   9.757   6.066   9.624
55691W        W56555   7.785   6.770   9.902
55692W        W56556   8.338   6.657  10.579
55693W        W56557   8.257   4.165   7.700
55694W        W56558   9.778   4.471   8.110
55695W        W56559   9.693   6.678  10.267
55696W        W56560   8.440   5.151   9.017
55697W        W56561   8.051   7.177   9.729
55698W        W56562  10.569   7.086   7.444
55699W        W56563   7.648   5.652  10.374
55700W        W56564   9.546   5.850   9.202
55701W        W56565   8.310   5.823   8.369
55702W        W56566   8.646   6.754   9.803
55703W        W56567   8.795   3.916   8.788
55704W        W56568   7.262   5.993   8.029
55705W        W56569   9.031   4.853   7.338
55706W        W56570   7.834   5.696   8.608
55707W        W56571   8.892   3.992  10.183
55708W        W56572  10.634   3.948   7.320
55709W        W56573  10.594   5.681  10.597
55710W        W56574   9.431   6.990  10.618
55711W        W56575  10.899   5.978  10.273
55712W        W56576  10.333   6.768  10.799
55713W        W56577   8.137   7.186   9.237
55714W        W56578  10.826   5.804   8.448
55715W        W56579   9.487   5.023   8.814
55716W        W56580   9.213   3.676   8.568
55717W        W56581   8.352   6.666   8.491
55718W        W56582   8.643   4.435   9.579
55719W        W56583   8.605   3.731   9.238
55720W        W56584   7.278   6.763   7.739
55721W        W56585   9.203   5.867   8.549
55722W        W56586   8.262   6.889  10.115
55723W        W56587   7.595   5.624   8.158
55724W        W56588   7.450   4.182   9.060
55725W        W56589   9.063   6.002   9.059
55726W        W56590   7.312   3.969   8.105
55727W        W56591   9.908   5.242   9.992
55728W        W56592   9.998   4.629   7.409
55729W        W56593  10.409   6.284   9.255
55730W        W56594   9.160   6.658   8.987
55731W        W56595   8.542   7.013   8.147
55732W        W56596   9.776   3.823   7.314
55733W        W56597   7.668   6.991   9.393
55734W        W56598   9.564   4.512  10.706
55735W        W56599   7.775   4.349  10.621
55736W        W56600   7.405   4.759   8.418
55737W        W56601   8.601   4.964   7.652
55738W        W56602   9.890   4.915  10.763
55739W        W56603   8.410   5.538   9.385
55740W        W56604   9.734   3.762   8.679
55741W        W56605   8.908   7.112   9.029
55742W        W56606  10.113   6.643   9.927
55743W        W56607   9.875   6.627   8.982
55744W        W56608   9.691   5.778   8.695
55745W        W56609   9.052   4.025   7.704
55746W        W56610  10.993   3.772   8.612
55747W        W56611   8.456   5.285   7.251
55748W        W56612  10.646   4.582   8.712
55749W        W56613   8.993   5.785   7.722
55750W        W56614  10.371   5.969  10.214
55751W        W56615  10.268   6.591   7.675
55752W        W56616   8.670   4.279  10.551
55753W        W56617   8.673   4.939   9.859
55754W        W56618  10.545   6.447  10.140
55755W        W56619   9.725   4.137  10.394
55756W        W56620   7.396   4.866  10.204
55757W        W56621   9.149   5.224   9.765
55758W        W56622   7.706   6.112   8.864
55759W        W56623   7.739   5.260   9.540
55760W        W56624  10.046   5.722   9.895
55761W        W56625   9.959   7.052  10.568
55762W        W56626   9.803   4.627  10.271
55763W        W56627  10.104   6.915   8.607
55764W        W56628   9.134   6.716   9.962
55765W        W56629   8.568   6.787   9.278
55766W        W56630  10.293   6.137   9.725
55767W        W56631   9.258   6.165  10.860
55768W        W56632   8.049   6.215   9.246
55769W        W56633  10.197   5.732   8.811
55770W        W56634   9.965   7.029   9.525
55771W        W56635   8.087   6.697   9.496
55772W        W56636   9.075   4.608  10.578
55773W        W56637   8.923   6.669   8.122
55774W        W56638   8.781   6.124  10.696
55775W        W56639   8.620   6.270   8.322
55776W        W56640   7.943   4.796   7.036
55777W        W56641   7.338   7.394  14.366
55778W        W56642   7.766   6.175  13.921
55779W        W56643  10.620   5.779  11.735
55780W        W56644  10.775   6.981  13.640
55781W        W56645   8.486   6.934  11.003
55782W        W56646   8.811   4.990  12.107
55783W        W56647   8.273   4.948  12.671
55784W        W56648   9.308   5.659  11.735
55785W        W56649   8.861   6.861  13.947
55786W        W56650   7.323   4.336  13.940
55787W        W56651   8.023   3.512  13.784
55788W        W56652   9.875   4.096  12.628
55789W        W56653   9.703   5.025  11.228
55790W        W56654   9.953   4.525  14.257
55791W        W56655   7.438   3.958  13.585
55792W        W56656   7.537   6.930  14.494
55793W        W56657   8.905   6.405  11.245
55794W        W56658   7.339   4.712  13.021
55795W        W56659   8.504   4.873  14.145
55796W        W56660  10.579   4.670  12.647
55797W        W56661  10.615   5.751  13.429
55798W        W56662   9.120   5.003  12.540
55799W        W56663   9.581   6.417  12.928
55800W        W56664   7.895   5.681  13.199
55801W        W56665   7.190   5.213  12.921
55802W        W56666   8.512   5.287  13.820
55803W        W56667  10.605   5.082  14.148
55804W        W56668   8.209   6.494  12.728
55805W        W56669   9.328   6.254  13.681
55806W        W56670   8.724   4.860  12.937
55807W        W56671   8.910   5.701  12.624
55808W        W56672   9.782   6.573  14.452
55809W        W56673   9.024   5.644  14.470
55810W        W56674   8.993   5.490  13.945
55811W        W56675   6.930   4.657  14.159
55812W        W56676  10.101   6.273  14.164
55813W        W56677   7.716   3.822  12.086
55814W        W56678   8.361   6.199  13.174
55815W        W56679  10.757   6.101  12.566
55816W        W56680  10.190   4.460  12.919
55817W        W56681  10.552   4.316  10.935
55818W        W56682  10.852   5.178  13.354
55819W        W56683   8.877   7.034  13.099
55820W        W56684  10.519   6.148  11.335
55821W        W56685   7.835   7.301  11.712
55822W        W56686   8.148   7.214  12.132
55823W        W56687   7.933   3.908  13.408
55824W        W56688  10.518   4.859  13.644
55825W        W56689  10.099   5.336  12.298
55826W        W56690  10.211   4.990  11.201
55827W        W56691   9.160   6.217  13.190
55828W        W56692   9.099   4.372  12.405
55829W        W56693   9.627   6.568  13.435
55830W        W56694  10.518   5.329  11.987
55831W        W56695   9.549   3.833  11.798
55832W        W56696   7.981   6.826  11.814
55833W        W56697   7.379   4.232  12.097
55834W        W56698   9.999   4.805  12.578
55835W        W56699   7.681   6.570  12.801
55836W        W56700   8.873   6.911  11.349
55837W        W56701  10.383   4.771  10.781
55838W        W56702   7.486   6.661  13.290
55839W        W56703   8.202   6.334  13.648
55840W        W56704   8.906   5.664  12.103
55841W        W56705   8.393   4.019  13.133
55842W        W56706  10.883   3.835  12.829
55843W        W56707   8.033   5.797  10.688
55844W        W56708   7.674   4.293  11.145
55845W        W56709   7.865   6.535  12.287
55846W        W56710   8.926   6.145  12.287
55847W        W56711  10.322   6.932  13.871
55848W        W56712   9.453   4.605  11.417
55849W        W56713  10.530   7.070  12.622
55850W        W56714  10.130   4.919  13.967
55851W        W56715  11.010   6.504  12.349
55852W        W56716   9.558   5.761  13.708
55853W        W56717   7.025   5.359  11.996
55854W        W56718   8.407   5.734  13.409
55855W        W56719   9.567   5.030  11.776
55856W        W56720   9.686   5.477  12.040
55857W        W56721   7.727   4.762  13.458
55858W        W56722   7.792   4.766  14.005
55859W        W56723   7.657   3.785  12.597
55860W        W56724   9.382   4.146  12.806
55861W        W56725   9.154   4.196  14.192
55862W        W56726   9.798   4.222  11.518
55863W        W56727  10.739   6.848  14.170
55864W        W56728   9.593   3.753  14.113
55865W        W56729  10.587   6.183  14.303
55866W        W56730  10.100   4.296  13.820
55867W        W56731   9.897   4.154  12.051
55868W        W56732  10.192   5.388  14.166
55869W        W56733   8.004   6.954  12.585
55870W        W56734   8.930   4.454  11.429
55871W        W56735   8.192   3.912  14.149
55872W        W56736  10.267   4.450  11.858
55873W        W56737  10.451   4.903  11.653
55874W        W56738   8.511   6.974  14.322
55875W        W56739   8.350   3.608  11.515
55876W        W56740  10.670   4.175  12.515
55877W        W56741  10.735   6.512  11.011
55878W        W56742   7.482   5.641  12.797
55879W        W56743   9.673   4.060  10.933
55880W        W56744  10.850   6.547  12.835
55881W        W56745  10.653   3.872  13.286
55882W        W56746   9.340   5.099  14.087
55883W        W56747   9.321   6.274  11.960
55884W        W56748   9.828   5.523  14.546
55885W        W56749   9.499   3.662  12.643
55886W        W56750   7.824   4.616  12.879
55887W        W56751   7.660   5.738  13.681
55888W        W56752   9.524   6.850  12.614
55889W        W56753  10.506   4.848  13.128
55890W        W56754   9.382   6.934  13.758
55891W        W56755  10.340   5.753  11.026
55892W        W56756   9.230   5.274  12.095
55893W        W56757  10.783   3.807  13.769
55894W        W56758   9.084   5.823  13.550
55895W        W56759   9.179   4.616  12.862
55896W        W56760  10.050   5.160  11.821
55897W        W56761  10.328   4.482  11.355
55898W        W56762  10.339   6.690  11.847
55899W        W56763  10.200   6.151  12.661
55900W        W56764   9.756   5.468  11.524
55901W        W56765   9.370   5.472  12.599
55902W        W56766  10.265   5.655  12.655
55903W        W56767   7.592   4.315  13.255
55904W        W56768  10.491   5.372  13.741
55905W        W56769  10.811   6.972  13.108
55906W        W56770   8.682   6.644  12.562
55907W        W56771   9.875   7.070  13.623
55908W        W56772   9.649   4.369  13.484
55909W        W56773   8.974   7.205  13.566
55910W        W56774  10.600   4.072  11.960
55911W        W56775  10.386   5.369  13.159
55912W        W56776   7.152   4.571  13.486
55913W        W56777  10.222   4.394  12.375
55914W        W56778  10.479   4.568  14.072
55915W        W56779   9.614   6.295  12.419
55916W        W56780   8.813   6.938  12.142
55917W        W56781   8.059   3.981  11.309
55918W        W56782   9.120   3.767  13.053
55919W        W56783   7.895   7.219  11.179
55920W        W56784   8.880   5.349  11.685
55921W        W56785   9.098   5.986  14.048
55922W        W56786   9.036   3.994  11.991
55923W        W56787  10.274   3.873  12.342
55924W        W56788   9.978   7.154  12.695
55925W        W56789   9.368   6.875  13.111
55926W        W56790   8.818   5.815  13.117
55927W        W56791  10.645   6.561  13.383
55928W        W56792   8.159   3.959  11.834
55929W        W56793   8.714   6.546  13.103
55930W        W56794   8.249   4.229  10.866
55931W        W56795   9.109   4.876  13.311
55932W        W56796   9.726   3.856  13.095
55933W        W56797   7.379   5.569  13.293
55934W        W56798   8.903   5.356  11.100
55935W        W56799   8.377   3.735  10.973
55936W        W56800   9.301   4.756  12.131
55937W        W56801   9.817   3.897  13.648
55938W        W56802   8.633   5.855  13.853
55939W        W56803   9.448   5.601  14.192
55940W        W56804   9.906   5.797  14.080
55941W        W56805   9.156   3.852  14.567
55942W        W56806   8.343   4.464  12.855
55943W        W56807   7.817   4.246  12.413
55944W        W56808   7.658   7.054  12.200
55945W        W56809   9.199   6.524  14.121
55946W        W56810   8.505   6.152  11.462
55947W        W56811   9.854   5.378  12.752
55948W        W56812  10.005   4.983  13.048
55949W        W56813   9.320   5.696  13.080
55950W        W56814   9.746   6.035  10.983
55951W        W56815   9.469   4.045  12.292
55952W        W56816  10.768   4.484  11.646
55953W        W56817   7.552   7.055  13.995
55954W        W56818   7.705   6.204  13.412
55955W        W56819   7.342   7.175  11.791
55956W        W56820   9.162   4.286  13.266
55957W        W56821   8.426   6.658  11.463
55958W        W56822  10.733   6.612  11.523
55959W        W56823   9.295   5.254  11.400
55960W        W56824   8.875   4.482  11.955
55961W        W56825   9.215   4.336  11.026
55962W        W56826   9.573   6.182  14.130
55963W        W56827  10.178   3.919  11.680
55964W        W56828   7.519   3.754  11.210
55965W        W56829   8.752   6.219  13.506
55966W        W56830   8.713   6.166  12.761
55967W        W56831   8.436   6.385  11.001
55968W        W56832   7.484   6.657  11.918
55969W        W56833   8.085   5.195  14.106
55970W        W56834   8.692   3.837  14.306
55971W        W56835   9.310   3.976  13.670
55972W        W56836   8.584   3.696  12.015
55973W        W56837   9.795   3.721  11.348
55974W        W56838   7.530   3.810  13.100
55975W        W56839   7.369   4.650  12.486
55976W        W56840  10.353   3.968  12.856
55977W        W56841   7.662   4.100  11.639
55978W        W56842  10.152   4.099  13.312
55979W        W56843  10.673   5.294  11.024
55980W        W56844   7.930   4.113  12.916
55981W        W56845   9.193   4.509  13.748
55982W        W56846   7.201   4.106  11.386
55983W        W56847   8.140   5.651  13.849
55984W        W56848   9.486   5.049  12.917
55985W        W56849   9.280   7.237  11.285
55986W        W56850   7.258   5.068  10.999
55987W        W56851   8.241   6.088  14.114
55988W        W56852   7.711   5.215  13.707
55989W        W56853   8.832   5.400  13.439
55990W        W56854  10.292   3.688  13.669
55991W        W56855  10.977   5.544  13.739
55992W        W56856  10.795   5.305  11.548
55993W        W56857   9.728   5.967  11.842
55994W        W56858  10.146   7.201  11.046
55995W        W56859   9.371   5.213  14.585
55996W        W56860   7.820   6.175  14.435
55997W        W56861  10.867   4.221  14.425
55998W        W56862  10.360   5.145  12.695
55999W        W56863   8.991   7.019  14.458
56000W        W56864   8.811   3.631  11.251
56001W        W56865  10.192   6.265  10.939
56002W        W56866   8.207   4.446  14.028
56003W        W56867   8.644   6.390  13.978
56004W        W56868  10.546   4.312  13.569
56005W        W56869  10.234   7.086  11.538
56006W        W56870  10.152   5.837  13.119
56007W        W56871   8.338   4.095  13.669
56008W        W56872   8.888   5.172  14.332
56009W        W56873   8.204   6.366  11.858
56010W        W56874  10.136   5.664  11.875
56011W        W56875   7.807   4.302  13.735
56012W        W56876   9.167   6.614  12.306
56013W        W56877  10.750   5.063  12.370
56014W        W56878   9.097   3.684  14.057
56015W        W56879  10.040   6.341  13.116
56016W        W56880  10.375   6.708  12.968
56017W        W56881   9.277   6.705  11.019
56018W        W56882   7.362   6.324  14.247
56019W        W56883   8.108   4.411  13.329
56020W        W56884   8.164   3.835  12.344
56021W        W56885   9.687   4.557  13.003
56022W        W56886   8.881   5.893  11.170
56023W        W56887  10.686   5.736  12.921
56024W        W56888   7.800   6.622  14.165
56025W        W56889  10.451   7.252  11.975
56026W        W56890   8.626   4.135  12.326
56027W        W56891   8.357   5.784  12.888
56028W        W56892   8.530   7.354  13.349
56029W        W56893  10.436   7.275  14.236
56030W        W56894   9.741   5.440  13.261
56031W        W56895   7.744   4.792  10.928
56032W        W56896  10.726   6.871  12.158
56033W        W56897  10.619   4.050  11.423
56034W        W56898   8.539   3.629  13.844
56035W        W56899  10.487   6.546  12.477
56036W        W56900  10.309   4.881  12.173
56037W        W56901   8.685   4.650  12.480
56038W        W56902   8.940   4.995  13.795
56039W        W56903   9.875   6.181  13.711
56040W        W56904   8.655   4.556  13.772
56041W        W56905   8.489   7.117  12.506
56042W        W56906   8.009   7.066  14.315
56043W        W56907   8.024   6.717  11.111
56044W        W56908  10.667   6.341  12.017
56045W        W56909   8.191   4.842  13.700
56046W        W56910  10.711   4.793  11.198
56047W        W56911   8.960   6.040  11.683
56048W        W56912   9.764   5.308  13.875
56049W        W56913   9.632   4.911  13.403
56050W        W56914   8.144   5.297  13.454
56051W        W56915  10.327   7.065  13.344
56052W        W56916  10.027   3.979  14.266
56053W        W56917   7.682   3.857  14.028
56054W        W56918   8.167   4.883  13.162
56055W        W56919   8.708   4.620  10.936
56056W        W56920   7.408   6.529  13.787
56057W        W56921   9.014   5.294  12.966
56058W        W56922   8.751   4.109  11.064
56059W        W56923   8.450   5.731  12.389
56060W        W56924   7.584   7.205  13.498
56061W        W56925  10.298   5.434  11.443
56062W        W56926  10.494   4.059  14.092
56063W        W56927  10.089   6.364  12.203
56064W        W56928   7.541   5.245  14.191
56065W        W56929  10.457   3.551  11.440
56066W        W56930  10.252   6.162  11.769
56067W        W56931   9.095   4.872  11.682
56068W        W56932  10.151   4.039  11.140
56069W        W56933  10.103   4.627  13.418
56070W        W56934   7.468   5.185  12.484
56071W        W56935   8.419   6.254  12.338
56072W        W56936   9.834   4.681  12.079
56073W        W56937   8.825   4.222  12.838
56074W        W56938  10.978   6.130  13.429
56075W        W56939  10.692   4.340  13.055
56076W        W56940   7.361   7.012  12.641
56077W        W56941   7.989   6.013  12.178
56078W        W56942   7.806   3.886  14.541
56079W        W56943   8.792   6.534  14.451
56080W        W56944  10.714   5.570  12.434
56081W        W56945  10.025   5.890  11.399
56082W        W56946   9.459   7.293  13.381
56083W        W56947  10.266   5.818  14.439
56084W        W56948   8.988   3.546  11.722
56085W        W56949   9.580   4.523  12.499
56086W        W56950   7.395   6.111  12.991
56087W        W56951   8.677   4.009  11.597
56088W        W56952   8.528   5.554  14.257
56089W        W56953   9.410   4.339  11.860
56090W        W56954   9.649   6.036  13.283
56091W        W56955   7.839   6.746  13.659
56092W        W56956   8.271   6.524  14.391
56093W        W56957   8.414   4.393  11.332
56094W        W56958   9.938   4.727  11.578
56095W        W56959   9.785   6.645  13.937
56096W        W56960   8.673   5.253  12.556
56097W        W56961   8.103   7.069  13.362
56098W        W56962  10.636   7.022  11.149
56099W        W56963   7.531   5.785  14.197
56100W        W56964   9.738   5.902  12.794
56101W        W56965   8.521   5.962  11.938
56102W        W56966   8.557   6.839  13.499
56103W        W56967   9.034   3.880  12.512
56104W        W56968   6.916   5.576  11.517
56105W        W56969   9.176   4.859  11.061
56106W        W56970   7.945   5.708  12.598
56107W        W56971   8.829   4.065  13.811
56108W        W56972  10.579   3.793  10.979
56109W        W56973  10.703   5.601  14.199
56110W        W56974   9.461   6.959  14.263
56111W        W56975  10.904   6.035  13.923
56112W        W56976  10.284   6.726  14.366
56113W        W56977   8.141   7.354  12.934
56114W        W56978  10.951   5.918  12.121
56115W        W56979   9.626   5.077  12.371
56116W        W56980   9.278   3.574  12.165
56117W        W56981   8.334   6.740  12.191
56118W        W56982   8.656   4.456  13.273
56119W        W56983   8.650   3.690  12.814
56120W        W56984   7.584   6.889  11.424
56121W        W56985   9.377   5.844  12.244
56122W        W56986   8.269   6.769  13.929
56123W        W56987   7.497   5.688  12.277
56124W        W56988   7.439   4.228  12.765
56125W        W56989   9.249   6.067  12.704
56126W        W56990   7.330   3.716  11.731
56127W        W56991  10.092   5.145  13.516
56128W        W56992   9.882   4.529  11.107
56129W        W56993  10.547   6.199  13.041
56130W        W56994   9.115   6.559  12.805
56131W        W56995   8.489   7.065  11.767
56132W        W56996   9.636   3.529  10.894
56133W        W56997   7.724   7.038  13.017
56134W        W56998   9.466   4.678  14.399
56135W        W56999   7.773   4.311  14.253
56136W        W57000   7.258   4.908  12.027
56137W        W57001   8.724   4.937  11.338
56138W        W57002   9.811   5.050  14.345
56139W        W57003   8.487   5.313  13.054
56140W        W57004   9.813   3.659  12.219
56141W        W57005   9.025   7.043  12.612
56142W        W57006  10.132   6.620  13.529
56143W        W57007   9.982   6.616  12.651
56144W        W57008   9.913   5.854  12.317
56145W        W57009   9.187   3.994  11.458
56146W        W57010  10.831   3.734  12.264
56147W        W57011   8.503   5.166  10.780
56148W        W57012  10.683   4.542  12.155
56149W        W57013   9.377   5.711  11.165
56150W        W57014  10.393   5.890  13.924
56151W        W57015  10.278   6.630  11.296
56152W        W57016   8.644   4.325  14.235
56153W        W57017   8.598   4.951  13.423
56154W        W57018  10.525   6.455  13.880
56155W        W57019   9.614   4.252  13.981
56156W        W57020   7.326   4.868  13.877
56157W        W57021   9.325   5.308  13.573
56158W        W57022   7.628   6.122  12.529
56159W        W57023   7.721   5.180  13.106
56160W        W57024  10.070   5.668  13.597
56161W        W57025   9.946   7.093  14.168
56162W        W57026   9.655   4.751  13.888
56163W        W57027  10.178   6.925  12.275
56164W        W57028   9.055   6.661  13.475
56165W        W57029   8.391   6.914  12.969
56166W        W57030  10.334   6.157  13.500
56167W        W57031   9.183   6.143  14.534
56168W        W57032   7.919   6.121  12.939
56169W        W57033  10.416   5.931  12.217
56170W        W57034   9.891   6.854  13.109
56171W        W57035   8.016   6.589  13.199
56172W        W57036   8.995   4.688  14.203
56173W        W57037   9.128   6.754  11.780
56174W        W57038   8.697   6.035  14.364
56175W        W57039   8.713   6.464  11.920
56176W        W57040   8.225   4.725  10.742
56177W        W57041   7.313   7.339  17.963
56178W        W57042   7.826   6.238  17.493
56179W        W57043  10.390   5.903  15.396
56180W        W57044  10.554   6.948  17.202
56181W        W57045   8.340   6.879  14.791
56182W        W57046   8.679   5.026  15.563
56183W        W57047   8.064   4.810  16.094
56184W        W57048   9.000   5.411  15.370
56185W        W57049   8.825   6.936  17.619
56186W        W57050   7.383   4.467  17.520
56187W        W57051   8.144   3.662  17.472
56188W        W57052   9.949   4.082  16.417
56189W        W57053   9.479   4.778  14.921
56190W        W57054   9.850   4.586  17.862
56191W        W57055   7.404   4.095  17.177
56192W        W57056   7.501   6.867  18.119
56193W        W57057   8.752   6.183  14.896
56194W        W57058   7.499   4.949  16.650
56195W        W57059   8.567   4.978  17.735
56196W        W57060  10.698   4.619  16.436
56197W        W57061  10.543   5.754  17.063
56198W        W57062   8.931   4.768  16.402
56199W        W57063   9.573   6.460  16.507
56200W        W57064   7.968   5.845  16.799
56201W        W57065   7.201   5.409  16.614
56202W        W57066   8.510   5.412  17.429
56203W        W57067  10.623   5.075  17.868
56204W        W57068   8.085   6.588  16.235
56205W        W57069   9.367   6.279  17.296
56206W        W57070   8.431   4.844  16.512
56207W        W57071   8.594   5.699  16.234
56208W        W57072   9.673   6.670  18.002
56209W        W57073   9.055   5.720  18.090
56210W        W57074   9.003   5.506  17.585
56211W        W57075   7.253   4.470  18.197
56212W        W57076  10.072   6.398  17.747
56213W        W57077   7.746   3.935  15.747
56214W        W57078   8.199   6.331  16.821
56215W        W57079  10.780   5.915  16.240
56216W        W57080  10.313   4.353  16.705
56217W        W57081  10.359   4.345  14.518
56218W        W57082  10.981   5.059  17.059
56219W        W57083   8.863   6.886  16.745
56220W        W57084  10.516   6.357  15.130
56221W        W57085   7.760   7.264  15.286
56222W        W57086   8.144   7.091  15.646
56223W        W57087   7.912   3.938  17.073
56224W        W57088  10.558   4.983  17.362
56225W        W57089   9.791   5.295  15.855
56226W        W57090   9.872   5.109  14.879
56227W        W57091   9.178   6.319  16.814
56228W        W57092   9.195   4.422  16.119
56229W        W57093   9.524   6.675  17.003
56230W        W57094  10.238   5.474  15.676
56231W        W57095   9.529   4.024  15.457
56232W        W57096   7.982   6.796  15.225
56233W        W57097   7.396   4.307  15.834
56234W        W57098   9.846   5.036  16.313
56235W        W57099   7.554   6.622  16.276
56236W        W57100   8.820   6.727  14.921
56237W        W57101  10.279   4.861  14.489
56238W        W57102   7.349   6.669  16.800
56239W        W57103   8.312   6.272  17.310
56240W        W57104   8.691   5.509  15.774
56241W        W57105   8.382   4.038  16.814
56242W        W57106  10.851   3.745  16.459
56243W        W57107   8.029   5.679  14.358
56244W        W57108   7.660   4.324  14.761
56245W        W57109   7.765   6.580  15.791
56246W        W57110   8.529   6.110  15.871
56247W        W57111  10.179   6.872  17.541
56248W        W57112   9.293   4.464  15.283
56249W        W57113  10.458   7.227  16.143
56250W        W57114  10.131   4.975  17.656
56251W        W57115  11.035   6.542  15.972
56252W        W57116   9.533   5.788  17.392
56253W        W57117   7.341   5.331  15.840
56254W        W57118   8.433   5.850  17.048
56255W        W57119   9.515   4.961  15.489
56256W        W57120   9.293   5.360  15.776
56257W        W57121   7.926   4.946  16.970
56258W        W57122   7.735   4.819  17.604
56259W        W57123   7.713   3.763  16.241
56260W        W57124   9.439   4.135  16.498
56261W        W57125   9.078   4.225  17.844
56262W        W57126   9.619   4.206  14.989
56263W        W57127  10.660   6.861  17.740
56264W        W57128   9.600   3.855  17.728
56265W        W57129  10.535   6.352  17.943
56266W        W57130   9.988   4.199  17.550
56267W        W57131  10.014   4.277  15.907
56268W        W57132  10.169   5.339  18.043
56269W        W57133   7.840   7.023  16.079
56270W        W57134   8.840   4.485  15.073
56271W        W57135   8.193   4.045  17.834
56272W        W57136  10.270   4.595  15.529
56273W        W57137  10.548   5.053  15.561
56274W        W57138   8.381   7.132  17.887
56275W        W57139   8.306   3.628  15.181
56276W        W57140  10.598   4.160  16.253
56277W        W57141  10.706   6.519  14.653
56278W        W57142   7.585   5.770  16.440
56279W        W57143   9.612   4.188  14.482
56280W        W57144  10.798   6.510  16.432
56281W        W57145  10.637   3.808  17.098
56282W        W57146   9.329   5.068  17.600
56283W        W57147   9.128   6.191  15.352
56284W        W57148   9.801   5.677  18.212
56285W        W57149   9.555   3.640  16.274
56286W        W57150   7.918   4.642  16.550
56287W        W57151   7.710   5.770  17.269
56288W        W57152   9.419   6.835  16.067
56289W        W57153  10.564   4.755  16.905
56290W        W57154   9.358   7.047  17.448
56291W        W57155  10.623   5.974  14.795
56292W        W57156   8.929   5.114  16.023
56293W        W57157  10.891   3.725  17.545
56294W        W57158   9.107   5.843  17.129
56295W        W57159   9.354   4.629  16.661
56296W        W57160  10.034   5.054  15.432
56297W        W57161  10.317   4.888  15.027
56298W        W57162  10.424   6.809  15.399
56299W        W57163   9.852   6.048  16.286
56300W        W57164   9.862   5.497  15.252
56301W        W57165   9.105   5.585  16.208
56302W        W57166  10.103   5.525  16.217
56303W        W57167   7.509   4.429  16.792
56304W        W57168  10.342   5.437  17.549
56305W        W57169  10.764   6.982  16.714
56306W        W57170   8.603   6.568  16.184
56307W        W57171   9.858   7.058  17.191
56308W        W57172   9.718   4.437  17.006
56309W        W57173   8.929   7.205  17.158
56310W        W57174  10.467   4.131  15.727
56311W        W57175  10.526   5.267  16.937
56312W        W57176   7.449   4.821  17.139
56313W        W57177  10.199   4.617  16.264
56314W        W57178  10.476   4.584  17.671
56315W        W57179   9.406   6.271  16.049
56316W        W57180   8.734   6.904  15.788
56317W        W57181   7.993   4.001  15.000
56318W        W57182   9.107   3.781  16.663
56319W        W57183   7.893   7.135  14.818
56320W        W57184   8.515   5.422  15.214
56321W        W57185   9.129   6.013  17.657
56322W        W57186   9.058   4.134  15.649
56323W        W57187  10.254   3.825  16.092
56324W        W57188   9.959   7.214  16.285
56325W        W57189   9.352   6.922  16.575
56326W        W57190   8.807   5.885  16.690
56327W        W57191  10.515   6.564  16.872
56328W        W57192   8.185   4.055  15.487
56329W        W57193   8.686   6.401  16.657
56330W        W57194   8.202   4.255  14.547
56331W        W57195   9.067   5.038  16.852
56332W        W57196   9.673   3.747  16.773
56333W        W57197   7.392   5.823  16.896
56334W        W57198   8.919   5.301  14.865
56335W        W57199   8.321   3.768  14.657
56336W        W57200   9.046   4.685  15.696
56337W        W57201   9.645   3.965  17.231
56338W        W57202   8.654   5.904  17.522
56339W        W57203   9.459   5.537  17.833
56340W        W57204   9.936   5.756  17.715
56341W        W57205   9.134   4.019  18.334
56342W        W57206   8.346   4.349  16.387
56343W        W57207   7.864   4.318  16.115
56344W        W57208   7.362   7.009  15.531
56345W        W57209   9.231   6.580  17.708
56346W        W57210   8.317   5.919  15.134
56347W        W57211   9.633   5.529  16.407
56348W        W57212  10.034   5.332  16.704
56349W        W57213   9.192   5.534  16.708
56350W        W57214   9.799   6.037  14.559
56351W        W57215   9.558   4.067  16.005
56352W        W57216  10.742   4.418  15.402
56353W        W57217   7.579   7.138  17.443
56354W        W57218   7.678   6.262  16.980
56355W        W57219   7.004   7.119  15.163
56356W        W57220   9.246   4.193  16.975
56357W        W57221   8.305   6.431  15.021
56358W        W57222  10.820   6.806  15.064
56359W        W57223   9.414   5.297  15.090
56360W        W57224   8.603   4.447  15.554
56361W        W57225   9.184   4.359  14.704
56362W        W57226   9.603   6.175  17.787
56363W        W57227  10.051   4.132  15.399
56364W        W57228   7.378   3.853  14.883
56365W        W57229   8.784   6.226  17.121
56366W        W57230   8.345   6.127  16.371
56367W        W57231   8.276   6.073  14.643
56368W        W57232   8.130   5.369  17.771
56369W        W57233   8.666   4.007  18.116
56370W        W57234   9.173   3.896  17.434
56371W        W57235   8.599   3.838  15.730
56372W        W57236   9.869   3.724  15.149
56373W        W57237   7.505   3.853  16.742
56374W        W57238   7.524   4.697  16.207
56375W        W57239  10.390   3.850  16.635
56376W        W57240   7.853   4.445  15.616
56377W        W57241  10.139   4.025  17.074
56378W        W57242  10.300   5.348  14.676
56379W        W57243   7.911   4.128  16.590
56380W        W57244   9.248   4.687  17.181
56381W        W57245   7.148   4.363  14.819
56382W        W57246   8.159   5.810  17.495
56383W        W57247   9.318   5.126  16.423
56384W        W57248   9.224   7.109  14.916
56385W        W57249   7.227   5.987  14.616
56386W        W57250   8.277   6.288  17.804
56387W        W57251   7.712   5.261  17.345
56388W        W57252   8.783   5.462  17.001
56389W        W57253  10.172   3.682  17.504
56390W        W57254  10.826   5.439  17.344
56391W        W57255  10.740   5.580  15.577
56392W        W57256   9.412   5.732  15.430
56393W        W57257  10.133   7.176  14.640
56394W        W57258   9.383   5.294  18.296
56395W        W57259   7.814   6.299  18.022
56396W        W57260  10.870   4.059  17.996
56397W        W57261  10.402   5.057  16.478
56398W        W57262   8.847   7.141  18.105
56399W        W57263   8.768   3.671  14.925
56400W        W57264  10.227   6.293  14.679
56401W        W57265   8.134   4.513  17.609
56402W        W57266   8.754   6.423  17.581
56403W        W57267  10.565   4.312  17.200
56404W        W57268  10.191   7.209  15.155
56405W        W57269  10.077   5.838  16.691
56406W        W57270   8.340   4.150  17.320
56407W        W57271   9.001   5.111  17.985
56408W        W57272   8.132   6.229  15.498
56409W        W57273   9.906   5.856  15.614
56410W        W57274   7.819   4.445  17.209
56411W        W57275   8.955   6.423  15.828
56412W        W57276  10.776   5.012  16.097
56413W        W57277   9.107   3.729  17.910
56414W        W57278  10.078   6.391  16.621
56415W        W57279  10.353   6.820  16.440
56416W        W57280   9.281   6.641  14.643
56417W        W57281   7.349   6.454  17.839
56418W        W57282   8.259   4.533  16.920
56419W        W57283   8.207   3.949  16.060
56420W        W57284  10.035   4.791  16.747
56421W        W57285   8.601   5.688  14.763
56422W        W57286  10.515   5.593  16.554
56423W        W57287   7.784   6.721  17.675
56424W        W57288  10.474   7.261  15.619
56425W        W57289   8.714   4.239  16.035
56426W        W57290   8.067   5.671  16.273
56427W        W57291   8.392   7.191  16.999
56428W        W57292  10.354   7.290  17.828
56429W        W57293   9.646   5.615  16.914
56430W        W57294   7.394   4.640  14.377
56431W        W57295  10.586   6.783  15.902
56432W        W57296  10.338   4.376  15.049
56433W        W57297   8.673   3.864  17.621
56434W        W57298  10.359   6.367  16.178
56435W        W57299  10.271   5.069  15.990
56436W        W57300   8.581   4.733  16.010
56437W        W57301   8.878   5.065  17.322
56438W        W57302   9.873   6.161  17.358
56439W        W57303   8.540   4.668  17.329
56440W        W57304   8.365   7.033  16.129
56441W        W57305   7.848   7.179  17.906
56442W        W57306   7.884   6.622  14.722
56443W        W57307  10.377   6.360  15.649
56444W        W57308   8.169   5.008  17.412
56445W        W57309  10.723   4.638  14.731
56446W        W57310   8.744   5.853  15.390
56447W        W57311   9.762   5.329  17.469
56448W        W57312   9.605   5.056  16.896
56449W        W57313   8.119   5.438  17.103
56450W        W57314  10.247   7.201  16.796
56451W        W57315  10.074   3.900  18.000
56452W        W57316   7.733   4.000  17.568
56453W        W57317   8.026   5.164  16.503
56454W        W57318   8.559   4.638  14.622
56455W        W57319   7.436   6.597  17.322
56456W        W57320   8.789   5.271  16.497
56457W        W57321   8.702   4.138  14.725
56458W        W57322   7.945   5.289  15.917
56459W        W57323   7.364   7.216  16.985
56460W        W57324  10.372   5.403  15.189
56461W        W57325  10.485   4.069  17.639
56462W        W57326   9.909   6.309  15.849
56463W        W57327   7.636   5.282  17.860
56464W        W57328  10.414   3.837  15.109
56465W        W57329  10.027   6.244  15.261
56466W        W57330   9.072   4.926  15.221
56467W        W57331  10.049   4.045  14.781
56468W        W57332  10.162   4.608  17.239
56469W        W57333   7.586   5.288  16.282
56470W        W57334   7.986   6.138  15.992
56471W        W57335   9.898   4.779  15.842
56472W        W57336   8.925   4.259  16.533
56473W        W57337  10.808   6.194  17.083
56474W        W57338  10.808   4.189  16.771
56475W        W57339   7.324   7.048  16.065
56476W        W57340   7.642   6.096  15.592
56477W        W57341   7.642   3.987  18.251
56478W        W57342   8.621   6.659  18.034
56479W        W57343  10.586   5.478  16.061
56480W        W57344  10.132   5.819  14.937
56481W        W57345   9.433   7.215  16.974
56482W        W57346  10.332   5.844  18.029
56483W        W57347   8.984   3.639  15.408
56484W        W57348   9.688   4.526  16.254
56485W        W57349   7.281   6.205  16.548
56486W        W57350   8.656   4.031  15.258
56487W        W57351   8.619   5.479  17.941
56488W        W57352   9.530   4.471  15.719
56489W        W57353   9.685   6.136  16.886
56490W        W57354   7.979   6.658  17.196
56491W        W57355   8.104   6.730  18.060
56492W        W57356   8.338   4.386  15.046
56493W        W57357   9.819   4.592  15.282
56494W        W57358   9.699   6.649  17.489
56495W        W57359   8.412   5.224  16.143
56496W        W57360   7.869   7.115  16.974
56497W        W57361  10.634   7.025  14.651
56498W        W57362   7.730   5.809  17.793
56499W        W57363   9.361   5.970  16.478
56500W        W57364   8.197   5.729  15.746
56501W        W57365   8.526   6.689  17.095
56502W        W57366   9.092   3.892  16.150
56503W        W57367   7.175   5.917  15.176
56504W        W57368   9.020   4.836  14.703
56505W        W57369   7.661   5.719  15.940
56506W        W57370   8.868   4.283  17.314
56507W        W57371  10.523   3.868  14.600
56508W        W57372  10.756   5.681  17.783
56509W        W57373   9.340   7.112  17.954
56510W        W57374  10.861   6.149  17.593
56511W        W57375  10.218   6.791  18.047
56512W        W57376   8.052   7.262  16.508
56513W        W57377  10.797   6.093  15.773
56514W        W57378   9.418   4.896  15.993
56515W        W57379   9.364   3.643  15.773
56516W        W57380   8.307   6.613  15.770
56517W        W57381   8.790   4.610  16.887
56518W        W57382   8.630   3.862  16.384
56519W        W57383   7.473   6.912  15.009
56520W        W57384   9.058   5.893  15.793
56521W        W57385   8.337   6.728  17.576
56522W        W57386   7.521   5.604  15.438
56523W        W57387   7.425   4.184  16.344
56524W        W57388   8.904   6.103  16.240
56525W        W57389   7.551   4.143  15.295
56526W        W57390  10.093   5.114  17.157
56527W        W57391   9.933   4.574  14.767
56528W        W57392  10.530   6.108  16.631
56529W        W57393   9.086   6.554  16.356
56530W        W57394   8.496   6.821  15.324
56531W        W57395   9.656   3.708  14.648
56532W        W57396   7.548   7.072  16.536
56533W        W57397   9.358   4.712  17.988
56534W        W57398   7.742   4.384  17.918
56535W        W57399   7.473   4.823  15.720
56536W        W57400   8.587   4.931  15.047
56537W        W57401   9.721   5.096  17.948
56538W        W57402   8.374   5.512  16.663
56539W        W57403   9.880   3.773  15.739
56540W        W57404   8.933   7.033  16.248
56541W        W57405  10.043   6.602  17.100
56542W        W57406   9.915   6.681  16.204
56543W        W57407   9.540   5.774  15.967
56544W        W57408   9.142   4.008  15.079
56545W        W57409  10.758   3.748  15.950
56546W        W57410   8.448   5.163  14.595
56547W        W57411  10.591   4.578  15.926
56548W        W57412   9.085   5.778  14.991
56549W        W57413  10.371   5.969  17.524
56550W        W57414  10.284   6.754  14.902
56551W        W57415   8.595   4.370  17.749
56552W        W57416   8.466   5.056  16.977
56553W        W57417  10.459   6.463  17.407
56554W        W57418   9.469   4.362  17.537
56555W        W57419   7.293   5.053  17.555
56556W        W57420   9.296   5.359  17.188
56557W        W57421   7.440   6.170  16.062
56558W        W57422   7.686   5.402  16.823
56559W        W57423  10.052   5.683  17.202
56560W        W57424   9.845   7.146  17.810
56561W        W57425   9.714   4.809  17.386
56562W        W57426  10.106   6.980  15.830
56563W        W57427   9.043   6.683  17.207
56564W        W57428   8.359   6.822  16.613
56565W        W57429  10.257   6.155  17.049
56566W        W57430   9.217   6.216  18.130
56567W        W57431   7.814   6.219  16.473
56568W        W57432  10.319   5.916  15.936
56569W        W57433   9.863   6.883  16.681
56570W        W57434   7.858   6.691  16.690
56571W        W57435   8.989   4.680  17.631
56572W        W57436   9.017   6.720  15.396
56573W        W57437   8.725   6.121  17.990
56574W        W57438   8.635   6.347  15.415
56575W        W57439   8.082   4.754  14.433
56576W        W57440   7.462   7.164  21.765
56577W        W57441   7.788   6.166  21.289
56578W        W57442  10.350   5.835  19.276
56579W        W57443  10.857   6.880  20.893
56580W        W57444   8.385   6.989  18.394
56581W        W57445   8.664   5.016  19.488
56582W        W57446   8.314   4.878  19.872
56583W        W57447   9.014   5.590  19.255
56584W        W57448   8.831   6.956  21.310
56585W        W57449   7.465   4.485  21.316
56586W        W57450   7.997   3.664  21.115
56587W        W57451   9.966   4.007  19.989
56588W        W57452   9.730   4.786  18.367
56589W        W57453   9.919   4.490  21.478
56590W        W57454   7.393   4.156  20.874
56591W        W57455   7.733   6.750  21.897
56592W        W57456   8.822   6.379  18.435
56593W        W57457   7.497   4.839  20.304
56594W        W57458   8.339   4.830  21.578
56595W        W57459  10.692   4.579  20.019
56596W        W57460  10.443   5.701  20.806
56597W        W57461   9.083   4.724  20.191
56598W        W57462   9.511   6.426  20.311
56599W        W57463   7.802   5.847  20.519
56600W        W57464   7.234   5.269  20.245
56601W        W57465   8.328   5.281  21.300
56602W        W57466  10.547   5.096  21.463
56603W        W57467   8.128   6.724  20.026
56604W        W57468   9.308   6.257  21.017
56605W        W57469   8.570   4.714  20.310
56606W        W57470   8.530   5.790  20.050
56607W        W57471   9.754   6.555  21.742
56608W        W57472   8.948   5.670  21.806
56609W        W57473   8.841   5.503  21.319
56610W        W57474   7.313   4.779  21.740
56611W        W57475  10.121   6.409  21.403
56612W        W57476   7.784   3.878  19.375
56613W        W57477   8.238   6.542  20.599
56614W        W57478  10.762   6.034  19.987
56615W        W57479  10.250   4.382  20.260
56616W        W57480  10.434   4.309  18.109
56617W        W57481  10.959   5.050  20.754
56618W        W57482   8.966   7.007  20.464
56619W        W57483  10.718   6.462  18.811
56620W        W57484   7.721   7.089  19.018
56621W        W57485   8.138   7.164  19.328
56622W        W57486   7.881   3.918  20.675
56623W        W57487  10.450   4.982  20.951
56624W        W57488   9.685   5.295  19.552
56625W        W57489   9.835   5.292  18.576
56626W        W57490   9.108   6.141  20.518
56627W        W57491   9.205   4.360  19.837
56628W        W57492   9.635   6.742  20.714
56629W        W57493  10.180   5.436  19.578
56630W        W57494   9.587   4.085  19.127
56631W        W57495   8.095   6.733  19.049
56632W        W57496   7.386   4.261  19.513
56633W        W57497   9.898   5.037  19.949
56634W        W57498   7.619   6.663  19.959
56635W        W57499   8.852   6.913  18.604
56636W        W57500  10.230   4.797  18.139
56637W        W57501   7.426   6.644  20.627
56638W        W57502   8.219   6.389  21.088
56639W        W57503   8.633   5.513  19.624
56640W        W57504   8.377   4.071  20.438
56641W        W57505  10.796   3.761  19.929
56642W        W57506   8.233   5.831  18.008
56643W        W57507   7.852   4.420  18.429
56644W        W57508   7.777   6.680  19.454
56645W        W57509   8.509   6.229  19.665
56646W        W57510  10.403   6.899  21.144
56647W        W57511   9.622   4.559  18.894
56648W        W57512  10.453   7.218  19.810
56649W        W57513  10.081   4.951  21.322
56650W        W57514  10.954   6.416  19.671
56651W        W57515   9.454   5.769  21.108
56652W        W57516   7.363   5.333  19.382
56653W        W57517   8.163   5.936  20.858
56654W        W57518   9.457   4.955  19.240
56655W        W57519   9.381   5.706  19.609
56656W        W57520   7.836   4.888  20.688
56657W        W57521   7.804   4.916  21.638
56658W        W57522   7.648   3.808  19.854
56659W        W57523   9.493   4.134  20.226
56660W        W57524   9.101   4.223  21.457
56661W        W57525   9.590   4.120  18.599
56662W        W57526  10.816   6.752  21.409
56663W        W57527   9.642   3.808  21.211
56664W        W57528  10.621   6.256  21.534
56665W        W57529  10.037   4.175  21.087
56666W        W57530   9.996   4.219  19.476
56667W        W57531  10.094   5.347  21.661
56668W        W57532   7.869   7.088  19.757
56669W        W57533   9.106   4.552  18.966
56670W        W57534   8.237   4.004  21.460
56671W        W57535  10.235   4.577  19.188
56672W        W57536  10.465   4.984  18.981
56673W        W57537   8.482   7.050  21.669
56674W        W57538   8.246   3.750  18.922
56675W        W57539  10.480   4.150  19.842
56676W        W57540  10.783   6.607  18.317
56677W        W57541   7.513   5.690  20.129
56678W        W57542   9.540   4.230  18.079
56679W        W57543  10.801   6.501  20.172
56680W        W57544  10.672   3.750  20.663
56681W        W57545   9.217   5.133  21.302
56682W        W57546   8.987   6.131  19.113
56683W        W57547   9.688   5.416  21.979
56684W        W57548   9.548   3.663  19.996
56685W        W57549   7.938   4.613  20.128
56686W        W57550   7.676   5.761  21.010
56687W        W57551   9.296   6.884  19.717
56688W        W57552  10.585   4.779  20.484
56689W        W57553   9.290   6.907  21.090
56690W        W57554  10.236   5.657  18.509
56691W        W57555   9.139   5.226  19.590
56692W        W57556  10.816   3.748  21.157
56693W        W57557   8.966   5.846  20.916
56694W        W57558   9.556   4.872  20.307
56695W        W57559   9.917   4.972  18.996
56696W        W57560  10.146   4.679  18.663
56697W        W57561  10.366   6.733  19.089
56698W        W57562   9.899   6.216  19.995
56699W        W57563   9.642   5.398  19.053
56700W        W57564   9.017   5.578  19.960
56701W        W57565  10.184   5.444  20.084
56702W        W57566   7.665   4.386  20.495
56703W        W57567  10.224   5.415  21.164
56704W        W57568  10.814   6.964  20.383
56705W        W57569   8.627   6.652  19.928
56706W        W57570   9.969   7.091  20.916
56707W        W57571   9.722   4.598  20.737
56708W        W57572   8.983   7.268  20.916
56709W        W57573  10.470   4.086  19.269
56710W        W57574  10.338   5.272  20.541
56711W        W57575   7.401   4.664  20.832
56712W        W57576  10.214   4.584  19.790
56713W        W57577  10.382   4.540  21.263
56714W        W57578   9.353   6.209  19.855
56715W        W57579   8.765   6.934  19.510
56716W        W57580   7.819   3.994  18.741
56717W        W57581   9.126   3.773  20.307
56718W        W57582   7.856   7.146  18.432
56719W        W57583   8.719   5.618  18.844
56720W        W57584   9.055   5.989  21.394
56721W        W57585   9.110   4.185  19.350
56722W        W57586  10.243   3.769  19.613
56723W        W57587   9.917   7.242  19.902
56724W        W57588   9.435   6.989  20.250
56725W        W57589   8.576   6.028  20.566
56726W        W57590  10.503   6.588  20.590
56727W        W57591   8.227   4.138  19.295
56728W        W57592   8.720   6.514  20.436
56729W        W57593   8.338   4.417  18.198
56730W        W57594   8.910   4.848  20.685
56731W        W57595   9.858   3.683  20.424
56732W        W57596   7.350   5.646  20.625
56733W        W57597   8.871   5.371  18.413
56734W        W57598   8.196   3.905  18.335
56735W        W57599   9.074   4.710  19.459
56736W        W57600   9.669   4.068  20.726
56737W        W57601   8.554   5.973  21.223
56738W        W57602   9.410   5.639  21.602
56739W        W57603   9.882   5.761  21.429
56740W        W57604   9.156   3.913  21.897
56741W        W57605   8.347   4.316  19.988
56742W        W57606   7.874   4.285  19.703
56743W        W57607   7.442   7.065  19.475
56744W        W57608   9.138   6.524  21.452
56745W        W57609   8.565   6.117  18.801
56746W        W57610   9.471   5.337  20.011
56747W        W57611   9.804   5.331  20.412
56748W        W57612   8.912   5.667  20.442
56749W        W57613  10.033   6.216  18.226
56750W        W57614   9.550   4.027  19.646
56751W        W57615  10.721   4.470  18.987
56752W        W57616   7.584   7.041  21.270
56753W        W57617   7.748   6.274  20.792
56754W        W57618   6.986   6.977  18.864
56755W        W57619   9.236   4.431  20.612
56756W        W57620   8.456   6.606  18.718
56757W        W57621  10.612   6.946  18.685
56758W        W57622   9.221   5.475  18.776
56759W        W57623   8.631   4.531  19.286
56760W        W57624   9.287   4.511  18.467
56761W        W57625   9.537   6.152  21.485
56762W        W57626  10.026   3.790  19.138
56763W        W57627   7.385   3.693  18.613
56764W        W57628   8.779   6.346  20.942
56765W        W57629   8.348   6.267  20.159
56766W        W57630   8.322   6.299  18.313
56767W        W57631   7.354   6.707  19.125
56768W        W57632   8.152   5.277  21.800
56769W        W57633   8.701   3.861  21.667
56770W        W57634   9.187   4.020  20.949
56771W        W57635   8.534   3.709  19.378
56772W        W57636   9.628   3.656  18.833
56773W        W57637   7.446   3.923  20.424
56774W        W57638   7.533   4.711  19.784
56775W        W57639  10.387   3.780  20.222
56776W        W57640   7.738   4.334  19.130
56777W        W57641  10.205   4.018  20.629
56778W        W57642  10.323   5.144  18.515
56779W        W57643   7.926   4.072  20.183
56780W        W57644   9.120   4.629  21.116
56781W        W57645   7.364   4.239  18.640
56782W        W57646   8.089   5.742  21.319
56783W        W57647   9.137   5.205  20.365
56784W        W57648   9.214   7.272  18.493
56785W        W57649   7.328   5.610  18.124
56786W        W57650   8.219   6.177  21.567
56787W        W57651   7.788   5.338  21.341
56788W        W57652   8.521   5.555  20.888
56789W        W57653  10.301   3.727  21.048
56790W        W57654  10.755   5.400  21.088
56791W        W57655  10.625   5.473  18.815
56792W        W57656   9.420   5.859  19.084
56793W        W57657  10.111   7.250  18.288
56794W        W57658   9.225   5.204  21.823
56795W        W57659   7.845   6.247  21.936
56796W        W57660  11.010   4.234  21.754
56797W        W57661  10.399   4.995  20.038
56798W        W57662   8.977   7.064  21.800
56799W        W57663   8.665   3.835  18.602
56800W        W57664  10.514   6.119  18.450
56801W        W57665   7.968   4.450  21.464
56802W        W57666   8.599   6.508  21.414
56803W        W57667  10.591   4.182  20.948
56804W        W57668  10.144   7.144  18.807
56805W        W57669  10.004   5.836  20.356
56806W        W57670   8.269   4.086  20.946
56807W        W57671   8.682   5.212  21.769
56808W        W57672   8.170   6.256  19.263
56809W        W57673   9.849   5.771  19.372
56810W        W57674   7.854   4.412  20.969
56811W        W57675   8.978   6.469  19.595
56812W        W57676  10.836   5.049  19.782
56813W        W57677   9.141   3.719  21.399
56814W        W57678  10.005   6.526  20.418
56815W        W57679  10.346   6.816  20.138
56816W        W57680   9.128   6.720  18.198
56817W        W57681   7.460   6.391  21.627
56818W        W57682   8.187   4.518  20.594
56819W        W57683   8.176   3.855  19.744
56820W        W57684  10.063   4.851  20.402
56821W        W57685   8.603   5.817  18.373
56822W        W57686  10.537   5.723  20.311
56823W        W57687   7.889   6.636  21.428
56824W        W57688  10.405   7.226  19.274
56825W        W57689   8.670   4.137  19.617
56826W        W57690   7.993   5.881  20.057
56827W        W57691   8.611   7.362  20.596
56828W        W57692  10.531   7.235  21.515
56829W        W57693   9.397   5.562  20.643
56830W        W57694   7.581   4.842  18.110
56831W        W57695  10.678   6.827  19.498
56832W        W57696  10.421   4.250  18.626
56833W        W57697   8.489   3.589  21.251
56834W        W57698  10.447   6.430  19.793
56835W        W57699  10.390   4.977  19.504
56836W        W57700   8.744   4.603  19.825
56837W        W57701   8.728   4.985  21.175
56838W        W57702   9.830   6.138  21.071
56839W        W57703   8.393   4.550  21.134
56840W        W57704   8.392   7.114  19.804
56841W        W57705   7.980   7.116  21.609
56842W        W57706   7.957   6.655  18.547
56843W        W57707  10.598   6.324  19.310
56844W        W57708   7.993   4.889  21.169
56845W        W57709  10.629   4.702  18.476
56846W        W57710   8.563   5.894  19.265
56847W        W57711   9.703   5.321  21.254
56848W        W57712   9.410   5.041  20.782
56849W        W57713   8.020   5.378  20.870
56850W        W57714  10.387   7.089  20.625
56851W        W57715  10.068   3.967  21.555
56852W        W57716   7.677   4.019  21.276
56853W        W57717   8.166   5.052  20.336
56854W        W57718   8.859   4.601  18.132
56855W        W57719   7.445   6.543  21.135
56856W        W57720   8.630   5.239  20.464
56857W        W57721   8.796   4.338  18.578
56858W        W57722   8.189   5.402  19.946
56859W        W57723   7.592   7.172  20.739
56860W        W57724  10.166   5.413  19.043
56861W        W57725  10.583   4.105  21.476
56862W        W57726  10.093   6.250  19.461
56863W        W57727   7.432   5.303  21.741
56864W        W57728  10.465   3.787  18.842
56865W        W57729  10.264   6.212  18.917
56866W        W57730   8.994   5.088  19.066
56867W        W57731  10.036   3.844  18.541
56868W        W57732  10.238   4.531  20.769
56869W        W57733   7.636   5.231  19.909
56870W        W57734   8.003   6.310  19.759
56871W        W57735   9.892   4.827  19.487
56872W        W57736   8.853   4.257  20.233
56873W        W57737  10.734   6.115  20.634
56874W        W57738  10.716   4.207  20.420
56875W        W57739   7.164   6.953  19.887
56876W        W57740   7.663   6.186  19.382
56877W        W57741   7.806   4.014  21.764
56878W        W57742   8.748   6.601  21.904
56879W        W57743  10.635   5.517  19.848
56880W        W57744   9.897   5.817  18.855
56881W        W57745   9.455   7.227  20.708
56882W        W57746  10.216   5.994  21.744
56883W        W57747   8.879   3.604  19.004
56884W        W57748   9.735   4.473  19.914
56885W        W57749   7.378   6.118  20.366
56886W        W57750   8.684   4.083  19.052
56887W        W57751   8.474   5.666  21.636
56888W        W57752   9.529   4.485  19.425
56889W        W57753   9.610   6.040  20.632
56890W        W57754   7.866   6.760  20.933
56891W        W57755   8.237   6.627  21.805
56892W        W57756   8.295   4.231  18.725
56893W        W57757  10.009   4.230  18.896
56894W        W57758   9.653   6.594  21.232
56895W        W57759   8.782   5.110  19.984
56896W        W57760   8.200   7.080  20.716
56897W        W57761  10.616   7.078  18.208
56898W        W57762   7.598   5.768  21.549
56899W        W57763   9.406   5.831  20.199
56900W        W57764   8.183   5.827  19.598
56901W        W57765   8.645   6.849  20.834
56902W        W57766   9.084   3.832  19.761
56903W        W57767   7.289   6.219  19.005
56904W        W57768   9.420   4.999  18.730
56905W        W57769   7.657   5.711  19.632
56906W        W57770   8.720   4.045  21.173
56907W        W57771  10.517   3.848  18.335
56908W        W57772  10.535   5.633  21.515
56909W        W57773   9.454   6.961  21.581
56910W        W57774  10.799   5.932  21.137
56911W        W57775  10.376   6.748  21.685
56912W        W57776   8.062   7.254  20.207
56913W        W57777  10.801   5.887  19.508
56914W        W57778   9.433   4.863  19.790
56915W        W57779   9.300   3.699  19.276
56916W        W57780   8.288   6.696  19.531
56917W        W57781   8.699   4.372  20.738
56918W        W57782   8.635   3.836  20.029
56919W        W57783   7.445   6.863  18.632
56920W        W57784   8.936   5.953  19.614
56921W        W57785   8.287   6.892  21.217
56922W        W57786   7.502   5.755  19.119
56923W        W57787   7.446   4.268  20.033
56924W        W57788   8.865   6.173  20.068
56925W        W57789   7.379   3.955  19.068
56926W        W57790   9.937   5.087  20.848
56927W        W57791   9.979   4.325  18.330
56928W        W57792  10.366   6.210  20.247
56929W        W57793   9.096   6.631  20.113
56930W        W57794   8.546   7.005  19.044
56931W        W57795   9.587   3.732  18.250
56932W        W57796   7.558   7.127  20.165
56933W        W57797   9.407   4.599  21.606
56934W        W57798   7.718   4.498  21.930
56935W        W57799   7.434   4.758  19.272
56936W        W57800   8.942   4.879  18.569
56937W        W57801   9.712   4.989  21.690
56938W        W57802   8.244   5.591  20.441
56939W        W57803   9.764   3.567  19.533
56940W        W57804   8.898   7.120  19.975
56941W        W57805  10.073   6.587  20.923
56942W        W57806   9.803   6.734  19.983
56943W        W57807   9.809   5.711  19.884
56944W        W57808   9.152   4.023  18.849
56945W        W57809  10.846   3.631  19.432
56946W        W57810   8.541   5.004  18.242
56947W        W57811  10.637   4.525  19.506
56948W        W57812   9.056   5.936  18.595
56949W        W57813  10.292   5.964  21.211
56950W        W57814  10.288   6.586  18.525
56951W        W57815   8.614   4.369  21.582
56952W        W57816   8.365   4.969  20.811
56953W        W57817  10.536   6.399  21.057
56954W        W57818   9.538   4.317  21.169
56955W        W57819   7.437   4.983  21.243
56956W        W57820   8.984   5.328  20.856
56957W        W57821   7.535   6.148  19.884
56958W        W57822   7.742   5.333  20.421
56959W        W57823   9.902   5.654  20.845
56960W        W57824   9.968   6.957  21.424
56961W        W57825   9.613   4.818  21.193
56962W        W57826  10.168   6.835  19.605
56963W        W57827   9.151   6.613  20.692
56964W        W57828   8.482   6.962  20.306
56965W        W57829  10.206   6.140  20.723
56966W        W57830   9.201   6.136  21.872
56967W        W57831   7.848   6.330  20.283
56968W        W57832  10.292   5.904  19.811
56969W        W57833   9.925   7.053  20.397
56970W        W57834   7.853   6.829  20.430
56971W        W57835   8.929   4.795  21.609
56972W        W57836   9.034   6.815  19.095
56973W        W57837   8.700   6.116  21.739
56974W        W57838   8.626   6.495  19.202
56975W        W57839   8.102   4.871  17.970
56976W        W57840   7.412   7.387  25.295
56977W        W57841   7.794   6.170  24.806
56978W        W57842  10.254   5.763  22.613
56979W        W57843  10.814   6.913  24.627
56980W        W57844   8.454   6.934  22.179
56981W        W57845   8.544   5.037  23.048
56982W        W57846   8.162   4.825  23.360
56983W        W57847   9.200   5.572  22.674
56984W        W57848   8.792   6.990  24.827
56985W        W57849   7.393   4.379  24.892
56986W        W57850   8.128   3.713  24.788
56987W        W57851   9.930   4.049  23.663
56988W        W57852   9.404   4.757  22.099
56989W        W57853  10.012   4.582  25.288
56990W        W57854   7.485   4.082  24.476
56991W        W57855   7.617   6.945  25.468
56992W        W57856   8.839   5.981  22.245
56993W        W57857   7.544   4.791  23.947
56994W        W57858   8.509   5.007  25.133
56995W        W57859  10.453   4.770  23.632
56996W        W57860  10.491   5.684  24.506
56997W        W57861   8.912   5.085  23.473
56998W        W57862   9.517   6.459  23.990
56999W        W57863   7.965   5.711  24.018
57000W        W57864   7.265   5.160  23.716
57001W        W57865   8.422   5.371  24.754
57002W        W57866  10.660   5.149  25.126
57003W        W57867   8.174   6.549  23.646
57004W        W57868   9.319   6.385  24.638
57005W        W57869   8.588   4.901  23.837
57006W        W57870   8.748   5.612  23.585
57007W        W57871   9.815   6.644  25.415
57008W        W57872   8.975   5.766  25.426
57009W        W57873   9.031   5.588  24.947
57010W        W57874   7.366   4.664  25.323
57011W        W57875  10.111   6.393  25.062
57012W        W57876   7.824   3.867  23.056
57013W        W57877   8.216   6.158  24.124
57014W        W57878  10.717   6.083  23.552
57015W        W57879  10.151   4.453  23.903
57016W        W57880  10.289   4.315  21.863
57017W        W57881  10.929   5.130  24.360
57018W        W57882   8.799   6.999  24.015
57019W        W57883  10.419   6.244  22.678
57020W        W57884   7.839   7.294  22.639
57021W        W57885   8.217   7.195  23.022
57022W        W57886   8.036   3.988  24.356
57023W        W57887  10.527   4.919  24.608
57024W        W57888   9.858   5.327  23.394
57025W        W57889   9.859   4.979  22.201
57026W        W57890   9.073   6.252  24.145
57027W        W57891   9.164   4.575  23.384
57028W        W57892   9.653   6.718  24.408
57029W        W57893  10.352   5.395  22.994
57030W        W57894   9.169   3.845  22.920
57031W        W57895   7.971   6.820  22.731
57032W        W57896   7.549   4.272  23.156
57033W        W57897   9.461   4.999  23.534
57034W        W57898   7.660   6.599  23.621
57035W        W57899   8.946   6.871  22.309
57036W        W57900  10.209   4.835  21.811
57037W        W57901   7.407   6.651  24.082
57038W        W57902   8.141   6.465  24.526
57039W        W57903   8.402   5.550  23.087
57040W        W57904   8.483   4.151  24.121
57041W        W57905  10.834   3.839  23.671
57042W        W57906   8.036   5.784  21.848
57043W        W57907   7.764   4.596  22.441
57044W        W57908   7.799   6.528  23.136
57045W        W57909   8.657   5.973  23.222
57046W        W57910  10.382   6.936  24.920
57047W        W57911   9.058   4.509  22.435
57048W        W57912  10.529   7.246  23.503
57049W        W57913  10.209   4.983  24.991
57050W        W57914  11.023   6.484  23.321
57051W        W57915   9.509   5.839  24.737
57052W        W57916   7.255   5.408  22.828
57053W        W57917   8.340   5.755  24.423
57054W        W57918   9.425   4.794  22.629
57055W        W57919   9.422   5.472  23.159
57056W        W57920   7.761   4.859  24.397
57057W        W57921   7.776   4.833  25.041
57058W        W57922   7.679   3.740  23.533
57059W        W57923   9.331   4.213  23.851
57060W        W57924   9.192   4.243  25.066
57061W        W57925   9.457   4.228  22.173
57062W        W57926  10.772   6.904  25.239
57063W        W57927   9.572   3.881  25.064
57064W        W57928  10.553   6.354  25.337
57065W        W57929  10.144   4.498  24.774
57066W        W57930   9.786   4.211  23.085
57067W        W57931  10.334   5.409  25.497
57068W        W57932   7.995   7.023  23.494
57069W        W57933   8.613   4.764  22.527
57070W        W57934   8.261   4.055  25.130
57071W        W57935  10.214   4.446  22.846
57072W        W57936  10.492   4.919  22.783
57073W        W57937   8.450   7.193  25.169
57074W        W57938   8.295   3.926  22.483
57075W        W57939  10.582   4.272  23.591
57076W        W57940  10.832   6.565  21.900
57077W        W57941   7.544   5.683  23.671
57078W        W57942   9.579   4.118  21.656
57079W        W57943  10.777   6.561  23.793
57080W        W57944  10.651   3.828  24.362
57081W        W57945   9.342   5.128  25.041
57082W        W57946   8.961   6.038  22.793
57083W        W57947   9.850   5.582  25.557
57084W        W57948   9.529   3.724  23.765
57085W        W57949   7.683   4.702  23.471
57086W        W57950   7.806   5.709  24.526
57087W        W57951   9.439   6.874  23.413
57088W        W57952  10.579   4.766  24.117
57089W        W57953   9.301   6.942  24.757
57090W        W57954  10.139   5.610  22.122
57091W        W57955   8.908   5.443  23.098
57092W        W57956  10.821   3.766  24.859
57093W        W57957   9.042   5.930  24.536
57094W        W57958   9.116   4.796  23.868
57095W        W57959   9.952   4.842  22.690
57096W        W57960  10.162   4.531  22.335
57097W        W57961  10.518   6.409  23.176
57098W        W57962   9.873   6.128  23.795
57099W        W57963   9.630   5.236  22.774
57100W        W57964   9.250   5.484  23.636
57101W        W57965  10.298   5.264  23.656
57102W        W57966   7.776   4.377  24.144
57103W        W57967  10.287   5.490  24.983
57104W        W57968  10.793   6.997  24.085
57105W        W57969   8.624   6.475  23.445
57106W        W57970   9.939   7.108  24.649
57107W        W57971   9.738   4.407  24.420
57108W        W57972   8.986   7.264  24.442
57109W        W57973  10.529   4.077  22.994
57110W        W57974  10.440   5.263  24.196
57111W        W57975   7.319   4.575  24.375
57112W        W57976  10.139   4.437  23.372
57113W        W57977  10.573   4.636  25.051
57114W        W57978   9.504   6.356  23.477
57115W        W57979   8.801   6.862  23.140
57116W        W57980   7.859   4.111  22.264
57117W        W57981   8.979   3.686  24.066
57118W        W57982   7.971   7.129  22.160
57119W        W57983   8.231   5.468  22.603
57120W        W57984   9.136   6.078  25.008
57121W        W57985   8.870   4.194  23.163
57122W        W57986  10.334   3.828  23.394
57123W        W57987  10.012   7.251  23.631
57124W        W57988   9.416   6.971  23.929
57125W        W57989   8.738   5.846  24.071
57126W        W57990  10.574   6.576  24.295
57127W        W57991   8.367   4.037  23.009
57128W        W57992   8.616   6.461  23.963
57129W        W57993   8.204   4.331  21.896
57130W        W57994   9.070   4.971  24.354
57131W        W57995   9.918   3.804  24.139
57132W        W57996   7.407   5.739  24.181
57133W        W57997   8.897   5.443  22.253
57134W        W57998   8.278   3.834  21.961
57135W        W57999   8.895   4.657  22.931
57136W        W58000   9.858   3.940  24.641
57137W        W58001   8.639   5.916  24.874
57138W        W58002   9.454   5.734  25.245
57139W        W58003   9.926   5.873  25.111
57140W        W58004   9.259   3.900  25.487
57141W        W58005   8.257   4.517  23.775
57142W        W58006   8.035   4.307  23.319
57143W        W58007   7.681   7.048  23.091
57144W        W58008   9.176   6.602  25.147
57145W        W58009   7.977   5.926  22.391
57146W        W58010   9.722   5.597  23.833
57147W        W58011   9.947   5.168  24.040
57148W        W58012   9.230   5.651  24.150
57149W        W58013   9.727   5.930  21.919
57150W        W58014   9.375   4.063  23.350
57151W        W58015  10.778   4.444  22.707
57152W        W58016   7.618   7.176  24.839
57153W        W58017   7.713   6.144  24.274
57154W        W58018   7.343   7.185  22.722
57155W        W58019   9.244   4.482  24.280
57156W        W58020   8.606   6.447  22.409
57157W        W58021  10.692   6.674  22.706
57158W        W58022   9.371   5.220  22.331
57159W        W58023   8.350   4.560  22.939
57160W        W58024   9.037   4.418  21.932
57161W        W58025   9.593   6.265  25.101
57162W        W58026  10.075   3.954  22.746
57163W        W58027   7.404   3.852  22.146
57164W        W58028   8.614   6.204  24.429
57165W        W58029   8.407   6.010  23.683
57166W        W58030   8.332   6.168  22.088
57167W        W58031   7.457   6.670  22.789
57168W        W58032   8.055   5.275  25.125
57169W        W58033   8.760   3.926  25.358
57170W        W58034   9.348   4.018  24.614
57171W        W58035   8.690   3.702  23.239
57172W        W58036   9.577   3.877  22.533
57173W        W58037   7.642   3.848  24.049
57174W        W58038   7.828   4.695  22.979
57175W        W58039  10.383   3.899  23.916
57176W        W58040   7.971   4.251  22.767
57177W        W58041  10.218   4.180  24.336
57178W        W58042  10.380   4.976  22.283
57179W        W58043   8.070   4.049  23.816
57180W        W58044   9.273   4.678  24.753
57181W        W58045   7.337   4.360  22.257
57182W        W58046   8.139   5.781  24.929
57183W        W58047   9.423   5.191  24.020
57184W        W58048   9.378   7.169  22.098
57185W        W58049   7.590   5.707  22.064
57186W        W58050   8.334   6.327  24.986
57187W        W58051   7.721   5.242  24.727
57188W        W58052   8.809   5.487  24.437
57189W        W58053  10.314   3.720  24.747
57190W        W58054  10.871   5.463  24.786
57191W        W58055  10.594   5.383  22.522
57192W        W58056   9.472   5.937  22.911
57193W        W58057  10.139   7.205  21.851
57194W        W58058   9.424   5.289  25.527
57195W        W58059   7.937   6.316  25.311
57196W        W58060  11.029   4.213  25.404
57197W        W58061   9.952   4.865  23.628
57198W        W58062   8.950   7.075  25.334
57199W        W58063   8.723   3.674  22.185
57200W        W58064  10.091   6.114  22.264
57201W        W58065   8.241   4.565  25.050
57202W        W58066   8.824   6.454  24.809
57203W        W58067  10.596   4.259  24.658
57204W        W58068  10.453   7.044  22.438
57205W        W58069  10.115   5.786  24.124
57206W        W58070   8.372   4.252  24.648
57207W        W58071   8.949   5.250  25.332
57208W        W58072   8.125   6.334  22.741
57209W        W58073   9.899   5.634  22.976
57210W        W58074   7.872   4.424  24.676
57211W        W58075   9.058   6.372  23.210
57212W        W58076  10.637   5.083  23.292
57213W        W58077   9.087   3.726  25.017
57214W        W58078  10.058   6.487  24.118
57215W        W58079  10.345   6.880  23.864
57216W        W58080   9.267   6.651  21.949
57217W        W58081   7.342   6.430  24.944
57218W        W58082   8.224   4.615  24.298
57219W        W58083   8.177   3.745  23.403
57220W        W58084   9.631   4.703  23.995
57221W        W58085   8.436   5.664  22.158
57222W        W58086  10.555   5.657  23.882
57223W        W58087   7.801   6.708  24.992
57224W        W58088  10.431   7.263  22.959
57225W        W58089   8.489   4.138  23.503
57226W        W58090   8.049   5.703  23.460
57227W        W58091   8.458   7.238  24.361
57228W        W58092  10.478   7.347  25.251
57229W        W58093   9.704   5.506  24.336
57230W        W58094   7.622   4.975  22.115
57231W        W58095  10.738   6.896  23.170
57232W        W58096  10.464   4.130  22.456
57233W        W58097   8.637   3.834  24.806
57234W        W58098  10.300   6.409  23.655
57235W        W58099  10.158   4.926  23.169
57236W        W58100   8.636   4.633  23.381
57237W        W58101   8.883   5.128  24.803
57238W        W58102   9.818   6.258  24.644
57239W        W58103   8.628   4.701  24.720
57240W        W58104   8.505   6.986  23.555
57241W        W58105   7.941   7.283  25.226
57242W        W58106   8.068   6.590  22.286
57243W        W58107  10.337   5.916  23.109
57244W        W58108   8.163   4.933  24.711
57245W        W58109  10.655   4.524  22.176
57246W        W58110   8.458   5.956  22.625
57247W        W58111   9.754   5.409  24.922
57248W        W58112   9.613   4.970  24.434
57249W        W58113   8.077   5.300  24.355
57250W        W58114  10.371   7.058  24.369
57251W        W58115  10.066   4.074  25.102
57252W        W58116   7.692   3.940  24.925
57253W        W58117   8.077   4.984  23.935
57254W        W58118   8.578   4.666  22.007
57255W        W58119   7.139   6.715  24.552
57256W        W58120   8.907   5.282  23.970
57257W        W58121   8.641   4.172  22.141
57258W        W58122   7.998   5.209  23.031
57259W        W58123   7.455   7.102  24.349
57260W        W58124  10.082   5.302  22.547
57261W        W58125  10.591   4.128  25.143
57262W        W58126   9.988   6.251  23.289
57263W        W58127   7.399   5.200  25.143
57264W        W58128  10.543   3.632  22.411
57265W        W58129   9.933   6.116  22.786
57266W        W58130   8.951   5.121  22.664
57267W        W58131   9.984   4.065  22.224
57268W        W58132  10.100   4.765  24.326
57269W        W58133   7.819   5.223  23.542
57270W        W58134   8.185   6.202  23.259
57271W        W58135   9.671   4.729  23.104
57272W        W58136   8.836   4.380  23.780
57273W        W58137  10.814   6.115  24.457
57274W        W58138  10.734   4.263  24.103
57275W        W58139   7.425   7.066  23.546
57276W        W58140   7.636   6.175  22.766
57277W        W58141   7.851   3.895  25.409
57278W        W58142   8.611   6.709  25.206
57279W        W58143  10.642   5.584  23.388
57280W        W58144   9.732   5.681  22.475
57281W        W58145   9.506   7.223  24.377
57282W        W58146  10.298   5.913  25.463
57283W        W58147   8.701   3.720  22.716
57284W        W58148   9.647   4.465  23.537
57285W        W58149   7.396   6.186  23.859
57286W        W58150   8.677   4.251  22.664
57287W        W58151   8.542   5.526  25.223
57288W        W58152   9.313   4.355  22.901
57289W        W58153   9.614   6.009  24.246
57290W        W58154   7.635   6.595  24.529
57291W        W58155   8.127   6.826  25.368
57292W        W58156   8.258   4.438  22.393
57293W        W58157   9.741   4.375  22.589
57294W        W58158   9.733   6.721  24.914
57295W        W58159   8.370   5.260  23.512
57296W        W58160   7.973   6.979  24.414
57297W        W58161  10.672   7.054  21.974
57298W        W58162   7.613   5.669  25.013
57299W        W58163   9.370   5.979  23.791
57300W        W58164   8.014   5.850  22.929
57301W        W58165   8.598   6.729  24.420
57302W        W58166   8.965   3.911  23.610
57303W        W58167   7.331   5.840  22.479
57304W        W58168   8.948   4.948  22.170
57305W        W58169   7.642   5.559  23.166
57306W        W58170   8.899   4.268  24.616
57307W        W58171  10.646   3.953  21.994
57308W        W58172  10.748   5.640  25.272
57309W        W58173   9.466   7.038  25.246
57310W        W58174  10.902   6.039  24.968
57311W        W58175  10.321   6.824  25.463
57312W        W58176   8.141   7.358  23.960
57313W        W58177  11.043   5.855  23.213
57314W        W58178   9.236   5.007  23.071
57315W        W58179   9.244   3.540  23.362
57316W        W58180   8.272   6.714  23.159
57317W        W58181   8.738   4.592  24.231
57318W        W58182   8.515   3.724  23.804
57319W        W58183   7.548   6.903  22.346
57320W        W58184   9.151   5.873  23.307
57321W        W58185   8.280   6.855  24.828
57322W        W58186   7.721   5.537  22.647
57323W        W58187   7.620   4.235  23.667
57324W        W58188   8.904   6.123  23.670
57325W        W58189   7.509   4.072  22.657
57326W        W58190  10.080   5.235  24.561
57327W        W58191   9.819   4.509  21.963
57328W        W58192  10.517   6.140  24.026
57329W        W58193   9.075   6.611  23.731
57330W        W58194   8.497   6.850  22.705
57331W        W58195   9.665   3.738  21.990
57332W        W58196   7.746   7.031  23.938
57333W        W58197   9.453   4.681  25.292
57334W        W58198   7.806   4.358  25.205
57335W        W58199   7.591   5.030  22.673
57336W        W58200   8.129   4.931  22.606
57337W        W58201   9.883   5.115  25.346
57338W        W58202   8.416   5.442  23.992
57339W        W58203   9.789   3.712  23.294
57340W        W58204   9.014   7.109  23.570
57341W        W58205  10.143   6.646  24.591
57342W        W58206   9.859   6.714  23.691
57343W        W58207   9.672   5.853  23.390
57344W        W58208   9.062   3.994  22.420
57345W        W58209  10.863   3.703  23.181
57346W        W58210   8.460   5.154  22.239
57347W        W58211  10.587   4.578  23.170
57348W        W58212   9.315   5.720  22.166
57349W        W58213  10.403   5.982  24.946
57350W        W58214  10.432   6.569  22.226
57351W        W58215   8.689   4.335  25.083
57352W        W58216   8.537   5.057  24.340
57353W        W58217  10.578   6.461  24.822
57354W        W58218   9.667   4.357  24.925
57355W        W58219   7.330   4.880  24.773
57356W        W58220   9.300   5.366  24.585
57357W        W58221   7.659   6.057  23.294
57358W        W58222   7.661   5.296  24.043
57359W        W58223  10.010   5.771  24.630
57360W        W58224   9.988   7.122  25.176
57361W        W58225   9.745   4.855  24.901
57362W        W58226  10.243   6.840  23.347
57363W        W58227   9.131   6.745  24.307
57364W        W58228   8.297   6.878  24.017
57365W        W58229  10.293   6.169  24.478
57366W        W58230   9.261   6.201  25.494
57367W        W58231   7.889   6.133  23.735
57368W        W58232  10.158   5.762  23.564
57369W        W58233   9.916   7.042  24.108
57370W        W58234   7.905   6.564  24.078
57371W        W58235   8.969   4.757  25.154
57372W        W58236   9.002   6.593  22.735
57373W        W58237   8.762   6.231  25.291
57374W        W58238   8.590   6.383  22.936
57375W        W58239   8.101   4.819  22.072
57376W        W58240   7.422   7.338  28.839
57377W        W58241   7.816   6.276  28.481
57378W        W58242  10.544   5.826  26.284
57379W        W58243  10.748   6.941  28.197
57380W        W58244   8.527   6.974  25.658
57381W        W58245   8.659   5.107  26.667
57382W        W58246   7.934   4.855  26.829
57383W        W58247   9.225   5.781  26.395
57384W        W58248   8.814   7.069  28.447
57385W        W58249   7.542   4.553  28.520
57386W        W58250   8.052   3.840  28.200
57387W        W58251   9.924   4.108  27.260
57388W        W58252   9.650   4.873  25.724
57389W        W58253  10.187   4.393  28.840
57390W        W58254   7.577   4.064  28.052
57391W        W58255   7.597   6.700  28.878
57392W        W58256   8.839   6.116  25.788
57393W        W58257   7.449   4.865  27.549
57394W        W58258   8.277   4.960  28.790
57395W        W58259  10.704   4.582  27.352
57396W        W58260  10.533   5.718  28.014
57397W        W58261   9.107   5.073  26.931
57398W        W58262   9.516   6.520  27.766
57399W        W58263   7.809   5.819  27.775
57400W        W58264   7.160   5.291  27.467
57401W        W58265   8.338   5.303  28.356
57402W        W58266  10.725   5.109  28.699
57403W        W58267   8.208   6.621  27.281
57404W        W58268   9.421   6.372  28.269
57405W        W58269   8.700   4.797  27.485
57406W        W58270   8.866   5.768  27.255
57407W        W58271   9.639   6.536   0.159
57408W        W58272   8.859   5.806  28.887
57409W        W58273   9.034   5.514  28.508
57410W        W58274   7.278   4.723  28.969
57411W        W58275  10.044   6.390  28.854
57412W        W58276   7.734   3.899  26.633
57413W        W58277   8.445   6.438  27.716
57414W        W58278  10.801   6.101  27.130
57415W        W58279  10.061   4.483  27.613
57416W        W58280  10.557   4.455  25.540
57417W        W58281  10.914   5.166  27.896
57418W        W58282   8.913   7.014  27.682
57419W        W58283  10.698   6.346  26.317
57420W        W58284   7.967   7.202  26.243
57421W        W58285   8.139   7.028  26.721
57422W        W58286   8.174   4.038  27.750
57423W        W58287  10.676   4.850  28.232
57424W        W58288  10.018   5.315  26.948
57425W        W58289  10.055   5.163  25.870
57426W        W58290   9.273   6.076  27.866
57427W        W58291   8.853   4.596  27.023
57428W        W58292   9.668   6.825  28.161
57429W        W58293  10.420   5.212  26.656
57430W        W58294   9.448   4.465  26.396
57431W        W58295   7.907   6.698  26.384
57432W        W58296   7.367   4.246  26.711
57433W        W58297   9.998   4.974  27.397
57434W        W58298   7.687   6.590  27.362
57435W        W58299   8.869   6.947  26.063
57436W        W58300  10.367   4.914  25.479
57437W        W58301   7.468   6.678  27.850
57438W        W58302   8.229   6.482  28.195
57439W        W58303   8.443   5.770  26.947
57440W        W58304   8.701   4.046  27.836
57441W        W58305  10.796   3.788  27.401
57442W        W58306   8.340   5.961  25.391
57443W        W58307   7.730   4.519  25.687
57444W        W58308   7.874   6.592  26.885
57445W        W58309   8.772   6.188  26.825
57446W        W58310  10.291   6.785  28.633
57447W        W58311   9.307   4.887  26.115
57448W        W58312  10.522   7.138  27.088
57449W        W58313  10.270   4.972  28.522
57450W        W58314  10.978   6.457  26.810
57451W        W58315   9.467   5.790  28.280
57452W        W58316   7.040   5.461  26.582
57453W        W58317   8.287   5.999  27.944
57454W        W58318   9.530   4.972  26.590
57455W        W58319   9.560   5.480  26.703
57456W        W58320   7.890   4.933  27.837
57457W        W58321   7.755   4.898  28.851
57458W        W58322   7.662   3.734  27.103
57459W        W58323   9.553   4.247  27.621
57460W        W58324   9.114   4.258  28.762
57461W        W58325   9.452   4.436  25.881
57462W        W58326  10.785   6.707  28.747
57463W        W58327   9.612   3.727  28.605
57464W        W58328  10.542   6.227  28.858
57465W        W58329  10.284   4.460  28.310
57466W        W58330   9.811   4.321  26.784
57467W        W58331  10.222   5.369   0.034
57468W        W58332   7.904   7.019  27.155
57469W        W58333   8.952   4.507  26.079
57470W        W58334   8.224   4.045  28.636
57471W        W58335  10.289   4.379  26.566
57472W        W58336  10.796   4.982  26.399
57473W        W58337   8.436   7.047  28.821
57474W        W58338   8.262   3.775  26.114
57475W        W58339  10.649   4.180  27.024
57476W        W58340  10.794   6.646  25.714
57477W        W58341   7.418   5.729  27.369
57478W        W58342   9.650   4.233  25.436
57479W        W58343  10.814   6.548  27.413
57480W        W58344  10.832   3.745  27.925
57481W        W58345   9.395   4.683  28.696
57482W        W58346   9.225   6.308  26.561
57483W        W58347   9.677   5.449   0.146
57484W        W58348   9.610   3.756  27.474
57485W        W58349   7.962   4.734  27.346
57486W        W58350   7.529   5.952  28.199
57487W        W58351   9.490   6.906  26.942
57488W        W58352  10.522   4.541  27.851
57489W        W58353   9.338   7.067  28.497
57490W        W58354  10.684   5.651  25.801
57491W        W58355   8.916   5.552  26.788
57492W        W58356  10.873   3.801  28.423
57493W        W58357   8.943   5.749  28.084
57494W        W58358   9.257   4.769  27.358
57495W        W58359  10.309   4.827  26.306
57496W        W58360  10.652   4.798  25.922
57497W        W58361  10.343   6.669  26.511
57498W        W58362   9.857   6.195  27.476
57499W        W58363   9.969   5.258  26.406
57500W        W58364   9.318   5.498  27.157
57501W        W58365  10.316   5.420  27.374
57502W        W58366   7.711   4.419  27.672
57503W        W58367  10.377   5.526  28.553
57504W        W58368  10.823   6.995  27.654
57505W        W58369   8.730   6.684  27.322
57506W        W58370   9.941   7.124  28.485
57507W        W58371   9.794   4.382  28.068
57508W        W58372   9.079   7.304  28.086
57509W        W58373  10.672   4.026  26.537
57510W        W58374  10.378   5.249  28.107
57511W        W58375   7.467   4.691  28.035
57512W        W58376  10.235   4.495  27.102
57513W        W58377  10.642   4.590  28.668
57514W        W58378   9.512   6.377  27.084
57515W        W58379   8.765   7.058  26.717
57516W        W58380   7.886   4.060  25.890
57517W        W58381   9.095   3.842  27.494
57518W        W58382   7.988   7.192  25.731
57519W        W58383   8.751   5.553  26.269
57520W        W58384   9.069   6.061  28.491
57521W        W58385   9.006   4.249  26.635
57522W        W58386  10.220   3.940  26.863
57523W        W58387  10.060   7.218  27.313
57524W        W58388   9.406   7.046  27.775
57525W        W58389   8.764   6.013  27.694
57526W        W58390  10.562   6.591  27.858
57527W        W58391   8.198   4.088  26.516
57528W        W58392   8.968   6.489  27.748
57529W        W58393   8.196   4.341  25.549
57530W        W58394   9.107   4.921  27.833
57531W        W58395   9.995   3.976  27.753
57532W        W58396   7.315   5.662  27.861
57533W        W58397   9.050   5.367  25.870
57534W        W58398   8.321   3.852  25.608
57535W        W58399   9.032   4.763  26.531
57536W        W58400   9.989   3.968  28.322
57537W        W58401   8.571   5.785  28.427
57538W        W58402   9.389   5.728  28.794
57539W        W58403   9.851   5.569  28.643
57540W        W58404   9.239   3.816   0.005
57541W        W58405   8.511   4.311  27.428
57542W        W58406   7.859   4.348  26.840
57543W        W58407   7.610   6.984  26.716
57544W        W58408   9.110   6.618  28.636
57545W        W58409   8.352   6.071  25.959
57546W        W58410   9.808   5.558  27.339
57547W        W58411   9.982   5.301  27.782
57548W        W58412   9.156   5.616  27.652
57549W        W58413   9.784   6.097  25.555
57550W        W58414   9.370   4.144  27.146
57551W        W58415  10.777   4.485  26.342
57552W        W58416   7.389   6.966  28.486
57553W        W58417   7.816   6.296  27.968
57554W        W58418   7.439   7.292  26.358
57555W        W58419   9.237   4.448  27.977
57556W        W58420   8.596   6.520  26.017
57557W        W58421  10.659   6.925  26.175
57558W        W58422   9.574   5.319  26.043
57559W        W58423   8.574   4.531  26.487
57560W        W58424   9.072   4.378  25.538
57561W        W58425   9.698   6.106  28.612
57562W        W58426   9.914   4.305  26.164
57563W        W58427   7.467   3.786  25.773
57564W        W58428   8.708   6.255  28.166
57565W        W58429   8.533   6.200  27.276
57566W        W58430   8.386   6.436  25.571
57567W        W58431   7.379   6.619  26.417
57568W        W58432   7.922   5.359  28.657
57569W        W58433   8.693   3.948  28.828
57570W        W58434   9.409   4.108  28.308
57571W        W58435   8.602   3.793  26.710
57572W        W58436   9.632   3.949  25.878
57573W        W58437   7.679   3.902  27.591
57574W        W58438   7.507   4.677  27.073
57575W        W58439  10.415   4.131  27.483
57576W        W58440   7.710   4.320  26.311
57577W        W58441  10.426   4.061  28.008
57578W        W58442  10.801   5.182  25.608
57579W        W58443   8.006   4.216  27.308
57580W        W58444   8.971   4.730  28.382
57581W        W58445   7.307   4.271  25.848
57582W        W58446   8.036   5.791  28.351
57583W        W58447   9.495   5.219  27.582
57584W        W58448   9.343   7.354  26.020
57585W        W58449   7.339   5.403  25.597
57586W        W58450   8.307   6.179  28.631
57587W        W58451   7.713   5.417  28.167
57588W        W58452   8.670   5.457  27.727
57589W        W58453  10.395   3.624  28.266
57590W        W58454  10.842   5.432  28.316
57591W        W58455  11.026   5.297  26.053
57592W        W58456   9.780   5.738  26.295
57593W        W58457  10.188   7.295  25.676
57594W        W58458   9.418   4.997   0.106
57595W        W58459   7.900   6.232  28.988
57596W        W58460  10.895   4.161  28.800
57597W        W58461  10.464   5.006  27.651
57598W        W58462   8.940   7.020  28.940
57599W        W58463   8.733   3.693  25.871
57600W        W58464  10.549   6.149  25.855
57601W        W58465   8.067   4.524  28.633
57602W        W58466   8.576   6.629  28.545
57603W        W58467  10.796   4.302  28.258
57604W        W58468  10.138   7.061  26.150
57605W        W58469  10.134   5.804  27.668
57606W        W58470   8.382   4.272  28.199
57607W        W58471   8.731   5.140  28.662
57608W        W58472   8.324   6.371  26.442
57609W        W58473  10.190   5.702  26.648
57610W        W58474   7.905   4.443  28.156
57611W        W58475   9.041   6.647  26.920
57612W        W58476  10.882   5.133  26.897
57613W        W58477   9.085   3.775  28.522
57614W        W58478  10.030   6.550  27.798
57615W        W58479  10.325   6.795  27.443
57616W        W58480   8.914   6.616  25.615
57617W        W58481   7.403   6.221  28.796
57618W        W58482   8.228   4.553  27.769
57619W        W58483   8.149   3.860  26.981
57620W        W58484   9.630   4.752  27.731
57621W        W58485   8.604   5.646  25.754
57622W        W58486  10.649   5.804  27.515
57623W        W58487   8.065   6.691  28.653
57624W        W58488  10.387   7.202  26.583
57625W        W58489   8.392   4.327  26.933
57626W        W58490   7.905   5.653  27.270
57627W        W58491   8.563   7.276  27.971
57628W        W58492  10.576   7.195  28.747
57629W        W58493   9.634   5.681  27.804
57630W        W58494   7.670   5.017  25.535
57631W        W58495  10.792   6.920  26.672
57632W        W58496  10.439   4.269  26.028
57633W        W58497   8.567   3.807  28.343
57634W        W58498  10.525   6.611  27.000
57635W        W58499  10.431   4.990  27.124
57636W        W58500   8.394   4.854  27.070
57637W        W58501   8.817   5.199  28.156
57638W        W58502   9.993   6.470  28.326
57639W        W58503   8.445   4.781  28.330
57640W        W58504   8.460   7.100  27.123
57641W        W58505   7.859   7.176  28.602
57642W        W58506   8.131   6.743  25.919
57643W        W58507  10.450   6.157  26.741
57644W        W58508   7.941   4.940  28.349
57645W        W58509  11.164   4.765  26.107
57646W        W58510   8.773   6.090  26.311
57647W        W58511   9.427   5.213  28.614
57648W        W58512   9.463   4.852  28.211
57649W        W58513   8.164   5.477  27.899
57650W        W58514  10.376   7.225  27.754
57651W        W58515  10.040   3.872  28.868
57652W        W58516   7.716   4.066  28.535
57653W        W58517   8.162   5.213  27.450
57654W        W58518   8.618   4.640  25.505
57655W        W58519   7.354   6.449  28.299
57656W        W58520   9.001   5.202  27.419
57657W        W58521   8.655   4.201  25.775
57658W        W58522   8.133   5.327  26.936
57659W        W58523   7.568   7.235  28.082
57660W        W58524  10.488   5.296  26.126
57661W        W58525  10.446   4.044  28.567
57662W        W58526  10.063   6.379  27.045
57663W        W58527   7.451   5.334  28.868
57664W        W58528  10.661   3.769  26.084
57665W        W58529  10.187   6.186  26.275
57666W        W58530   9.150   5.267  26.422
57667W        W58531  10.134   4.153  25.617
57668W        W58532  10.087   4.828  28.003
57669W        W58533   7.698   5.152  27.186
57670W        W58534   8.173   6.203  26.929
57671W        W58535  10.015   4.827  26.757
57672W        W58536   9.016   4.352  27.517
57673W        W58537  10.820   6.157  27.997
57674W        W58538  10.890   4.216  27.720
57675W        W58539   7.386   6.993  27.179
57676W        W58540   7.688   6.226  26.582
57677W        W58541   7.880   3.880  28.977
57678W        W58542   9.073   6.606   0.222
57679W        W58543  10.660   5.610  26.982
57680W        W58544  10.179   5.690  25.943
57681W        W58545   9.604   7.357  28.159
57682W        W58546  10.161   5.858  28.926
57683W        W58547   8.962   3.637  26.328
57684W        W58548   9.722   4.574  27.235
57685W        W58549   7.478   6.184  27.604
57686W        W58550   8.673   4.064  26.268
57687W        W58551   8.383   5.536  28.849
57688W        W58552   9.354   4.591  26.886
57689W        W58553   9.790   6.121  28.006
57690W        W58554   7.804   6.786  28.226
57691W        W58555   8.339   6.513   0.029
57692W        W58556   8.267   4.349  26.076
57693W        W58557   9.810   4.808  26.204
57694W        W58558   9.636   6.653  28.651
57695W        W58559   8.592   5.330  27.169
57696W        W58560   8.051   7.192  27.916
57697W        W58561  10.696   7.157  25.705
57698W        W58562   7.608   5.776  28.662
57699W        W58563   9.435   5.942  27.386
57700W        W58564   7.914   5.789  26.766
57701W        W58565   8.634   6.773  28.050
57702W        W58566   8.834   4.071  27.099
57703W        W58567   7.212   5.759  25.932
57704W        W58568   9.088   4.877  25.658
57705W        W58569   7.499   5.520  26.902
57706W        W58570   8.889   4.212  28.300
57707W        W58571  10.633   3.961  25.626
57708W        W58572  10.867   5.609  28.799
57709W        W58573   9.438   6.993  28.991
57710W        W58574  10.695   5.948  28.451
57711W        W58575  10.421   6.658   0.123
57712W        W58576   8.135   7.352  27.443
57713W        W58577  10.921   5.966  26.623
57714W        W58578   9.596   5.063  27.090
57715W        W58579   9.136   3.761  26.818
57716W        W58580   8.481   6.640  26.856
57717W        W58581   8.727   4.565  27.939
57718W        W58582   8.535   3.782  27.409
57719W        W58583   7.595   6.906  26.005
57720W        W58584   9.236   5.940  26.910
57721W        W58585   8.287   7.038  28.336
57722W        W58586   7.487   5.693  26.405
57723W        W58587   7.479   4.201  27.218
57724W        W58588   9.043   6.261  27.289
57725W        W58589   7.329   3.967  26.265
57726W        W58590   9.848   5.191  28.289
57727W        W58591  10.123   4.637  25.824
57728W        W58592  10.381   6.268  27.474
57729W        W58593   9.260   6.737  27.383
57730W        W58594   8.419   6.891  26.333
57731W        W58595   9.853   3.737  25.467
57732W        W58596   7.668   7.085  27.594
57733W        W58597   9.766   4.615   0.052
57734W        W58598   7.714   4.376  28.976
57735W        W58599   7.478   4.755  26.573
57736W        W58600   8.791   5.003  26.134
57737W        W58601   9.866   5.068  28.831
57738W        W58602   8.355   5.756  27.471
57739W        W58603   9.679   3.752  26.960
57740W        W58604   9.013   7.137  27.183
57741W        W58605  10.233   6.879  28.129
57742W        W58606   9.794   6.741  27.354
57743W        W58607   9.762   5.911  26.960
57744W        W58608   9.117   4.032  25.973
57745W        W58609  10.910   3.738  26.904
57746W        W58610   8.581   5.131  25.656
57747W        W58611  10.661   4.664  26.808
57748W        W58612   9.394   5.758  25.773
57749W        W58613  10.194   6.030  28.463
57750W        W58614  10.327   6.602  25.960
57751W        W58615   8.587   4.440  28.699
57752W        W58616   8.418   5.021  27.873
57753W        W58617  10.527   6.439  28.356
57754W        W58618   9.703   4.239  28.693
57755W        W58619   7.440   5.040  28.439
57756W        W58620   9.325   5.338  28.079
57757W        W58621   7.675   6.118  27.113
57758W        W58622   7.669   5.349  27.648
57759W        W58623  10.023   5.664  28.157
57760W        W58624   9.945   6.918  28.981
57761W        W58625   9.861   4.680  28.491
57762W        W58626  10.081   6.896  26.918
57763W        W58627   9.140   6.780  28.128
57764W        W58628   8.411   6.958  27.613
57765W        W58629  10.300   6.166  27.985
57766W        W58630   9.277   6.211  28.947
57767W        W58631   8.033   6.185  27.489
57768W        W58632  10.244   5.884  27.154
57769W        W58633   9.904   7.043  27.764
57770W        W58634   7.998   6.707  27.751
57771W        W58635   8.935   4.751  28.921
57772W        W58636   9.206   6.939  26.484
57773W        W58637   8.773   6.303  28.872
57774W        W58638   8.812   6.593  26.467
57775W        W58639   8.139   4.850  25.458
57776W        W58640   7.349  10.899   3.331
57777W        W58641   7.837   9.859   2.765
57778W        W58642  10.529   9.475   0.794
57779W        W58643  10.873  10.593   2.561
57780W        W58644   8.705  10.574   0.292
57781W        W58645   8.612   8.756   1.206
57782W        W58646   8.260   8.322   1.396
57783W        W58647   8.966   9.220   0.634
57784W        W58648   8.908  10.664   2.916
57785W        W58649   7.367   8.083   2.824
57786W        W58650   7.985   7.195   2.881
57787W        W58651   9.875   7.643   1.765
57788W        W58652   9.607   8.399   0.437
57789W        W58653  10.092   8.049   3.266
57790W        W58654   7.465   7.661   2.553
57791W        W58655   7.491  10.440   3.511
57792W        W58656   8.902   9.645   0.303
57793W        W58657   7.413   8.452   1.920
57794W        W58658   8.397   8.577   3.214
57795W        W58659  10.732   8.190   1.821
57796W        W58660  10.641   9.316   2.518
57797W        W58661   9.013   8.807   1.582
57798W        W58662   9.533  10.035   1.927
57799W        W58663   7.857   9.335   2.090
57800W        W58664   7.143   8.901   1.821
57801W        W58665   8.528   9.020   2.976
57802W        W58666  10.601   8.700   3.214
57803W        W58667   8.169  10.195   1.644
57804W        W58668   9.364   9.909   2.690
57805W        W58669   8.902   8.531   2.010
57806W        W58670   8.825   9.273   1.637
57807W        W58671   9.601  10.160   3.356
57808W        W58672   8.880   9.281   3.320
57809W        W58673   9.032   9.099   2.862
57810W        W58674   7.328   8.358   3.267
57811W        W58675  10.059  10.043   3.118
57812W        W58676   7.869   7.605   1.016
57813W        W58677   8.398   9.952   2.046
57814W        W58678  10.681   9.659   1.537
57815W        W58679  10.345   7.826   1.863
57816W        W58680  10.558   8.043   0.026
57817W        W58681  10.901   8.857   2.440
57818W        W58682   8.934  10.712   2.102
57819W        W58683  10.612   9.957   0.630
57820W        W58684   7.949  10.892   0.543
57821W        W58685   8.205  10.770   1.045
57822W        W58686   8.086   7.608   2.366
57823W        W58687  10.486   8.600   2.621
57824W        W58688  10.023   8.927   1.298
57825W        W58689  10.016   8.697   0.297
57826W        W58690   9.162   9.856   2.213
57827W        W58691   9.235   8.358   1.636
57828W        W58692   9.572  10.264   2.379
57829W        W58693  10.506   9.020   1.036
57830W        W58694   9.427   7.744   1.045
57831W        W58695   7.973  10.406   0.745
57832W        W58696   7.416   7.828   1.257
57833W        W58697  10.245   8.344   1.783
57834W        W58698   7.645  10.148   1.692
57835W        W58699   8.995  10.241   0.657
57836W        W58700  10.336   8.479  28.946
57837W        W58701   7.421  10.238   2.213
57838W        W58702   8.269  10.169   2.497
57839W        W58703   8.433   9.241   1.281
57840W        W58704   8.536   7.801   2.147
57841W        W58705  10.817   7.350   1.810
57842W        W58706   7.911   9.338   0.125
57843W        W58707   8.026   8.350   0.246
57844W        W58708   7.787  10.235   1.204
57845W        W58709   8.799   9.610   1.251
57846W        W58710  10.436  10.571   2.824
57847W        W58711   9.272   8.181   0.791
57848W        W58712  10.574  10.657   1.513
57849W        W58713  10.144   8.554   3.002
57850W        W58714  10.805   9.942   1.114
57851W        W58715   9.521   9.411   2.713
57852W        W58716   7.207   9.023   0.908
57853W        W58717   8.189   9.623   2.395
57854W        W58718   9.624   8.611   0.925
57855W        W58719   9.562   9.103   1.068
57856W        W58720   7.883   8.552   2.305
57857W        W58721   7.766   8.416   2.815
57858W        W58722   7.674   7.477   1.567
57859W        W58723   9.473   7.701   2.141
57860W        W58724   9.239   7.821   3.275
57861W        W58725   9.705   7.741   0.576
57862W        W58726  10.871  10.453   3.111
57863W        W58727   9.553   7.400   3.166
57864W        W58728  10.531   9.875   3.283
57865W        W58729  10.146   7.912   2.776
57866W        W58730   9.876   7.878   1.297
57867W        W58731  10.217   9.006   3.379
57868W        W58732   7.947  10.636   1.478
57869W        W58733   8.838   8.252   0.533
57870W        W58734   8.138   7.643   3.140
57871W        W58735  10.365   8.228   0.916
57872W        W58736  10.745   8.589   0.873
57873W        W58737   8.477  10.758   3.202
57874W        W58738   8.460   7.464   0.727
57875W        W58739  10.734   7.764   1.539
57876W        W58740  10.872  10.145   0.225
57877W        W58741   7.478   9.283   1.735
57878W        W58742   9.714   7.821   0.052
57879W        W58743  10.851  10.192   1.605
57880W        W58744  10.663   7.368   2.390
57881W        W58745   9.186   8.616   2.928
57882W        W58746   9.042   9.706   0.788
57883W        W58747   9.758   9.216   3.551
57884W        W58748   9.436   7.365   1.745
57885W        W58749   7.906   8.343   1.806
57886W        W58750   7.724   9.378   2.592
57887W        W58751   9.486  10.557   1.434
57888W        W58752  10.414   8.128   2.267
57889W        W58753   9.381  10.724   2.685
57890W        W58754  10.619   9.425   0.293
57891W        W58755   9.003   9.105   1.147
57892W        W58756  10.805   7.403   2.889
57893W        W58757   9.049   9.454   2.501
57894W        W58758   9.400   8.208   2.084
57895W        W58759  10.130   8.687   0.837
57896W        W58760  10.455   8.475   0.454
57897W        W58761  10.398  10.264   0.990
57898W        W58762  10.039   9.818   1.653
57899W        W58763   9.770   9.038   0.586
57900W        W58764   9.353   9.180   1.553
57901W        W58765  10.333   8.859   1.730
57902W        W58766   7.653   8.076   2.242
57903W        W58767  10.360   9.057   2.876
57904W        W58768  10.781  10.622   2.001
57905W        W58769   8.661  10.082   1.496
57906W        W58770   9.890  10.814   2.593
57907W        W58771   9.590   8.036   2.525
57908W        W58772   8.965  11.009   2.523
57909W        W58773  10.635   7.780   1.031
57910W        W58774  10.324   9.042   2.221
57911W        W58775   7.223   8.323   2.382
57912W        W58776  10.344   8.047   1.387
57913W        W58777  10.543   8.218   2.985
57914W        W58778   9.543   9.944   1.438
57915W        W58779   8.833  10.457   1.156
57916W        W58780   7.787   7.772   0.499
57917W        W58781   9.006   7.439   2.110
57918W        W58782   8.076  10.603   0.072
57919W        W58783   8.445   9.050   0.767
57920W        W58784   9.164   9.606   3.043
57921W        W58785   9.032   8.011   1.282
57922W        W58786  10.270   7.517   1.446
57923W        W58787   9.863  10.817   1.674
57924W        W58788   9.416  10.548   1.943
57925W        W58789   8.760   9.561   2.070
57926W        W58790  10.554  10.246   2.340
57927W        W58791   8.344   7.849   1.095
57928W        W58792   8.833  10.211   2.071
57929W        W58793   8.181   7.849   0.127
57930W        W58794   9.124   8.407   2.463
57931W        W58795   9.853   7.337   2.180
57932W        W58796   7.355   9.362   2.245
57933W        W58797   9.066   8.993   0.172
57934W        W58798   8.335   7.360   0.231
57935W        W58799   9.114   8.548   1.146
57936W        W58800   9.789   7.565   2.635
57937W        W58801   8.695   9.496   2.873
57938W        W58802   9.392   9.166   3.209
57939W        W58803   9.899   9.234   3.037
57940W        W58804   9.204   7.478   3.633
57941W        W58805   8.423   8.281   1.905
57942W        W58806   7.900   7.948   1.409
57943W        W58807   7.697  10.735   1.033
57944W        W58808   9.153  10.211   3.071
57945W        W58809   7.834   9.723   0.467
57946W        W58810   9.828   9.065   1.760
57947W        W58811   9.977   8.666   2.075
57948W        W58812   9.247   9.328   2.042
57949W        W58813   9.791   9.702   0.127
57950W        W58814   9.435   7.875   1.621
57951W        W58815  10.997   8.081   0.796
57952W        W58816   7.546  10.684   2.896
57953W        W58817   7.682   9.799   2.281
57954W        W58818   7.326  10.745   0.689
57955W        W58819   9.029   7.886   2.413
57956W        W58820   8.583  10.031   0.449
57957W        W58821  10.672  10.480   0.628
57958W        W58822   9.307   8.813   0.584
57959W        W58823   8.657   8.272   1.016
57960W        W58824   9.305   8.002   0.308
57961W        W58825   9.667   9.686   3.135
57962W        W58826  10.151   7.707   0.872
57963W        W58827   7.418   7.377   0.347
57964W        W58828   8.703   9.868   2.489
57965W        W58829   8.442   9.627   1.646
57966W        W58830   8.325   9.679   0.181
57967W        W58831   7.467  10.237   0.772
57968W        W58832   8.039   8.851   2.928
57969W        W58833   8.624   7.578   3.424
57970W        W58834   9.287   7.610   2.771
57971W        W58835   8.660   7.446   1.253
57972W        W58836   9.557   7.285   0.830
57973W        W58837   7.651   7.585   2.087
57974W        W58838   7.544   8.326   1.398
57975W        W58839  10.331   7.306   1.957
57976W        W58840   7.709   8.090   0.916
57977W        W58841  10.228   7.649   2.337
57978W        W58842  10.801   8.879   0.214
57979W        W58843   8.074   7.852   1.883
57980W        W58844   9.220   8.113   2.865
57981W        W58845   7.259   7.876   0.336
57982W        W58846   8.165   9.360   2.846
57983W        W58847   9.399   8.770   1.941
57984W        W58848   9.233  10.620   0.340
57985W        W58849   7.444   9.574   0.156
57986W        W58850   8.331   9.841   2.887
57987W        W58851   7.620   8.878   2.614
57988W        W58852   8.560   9.225   2.472
57989W        W58853  10.283   7.384   2.783
57990W        W58854  10.869   9.050   2.934
57991W        W58855  10.882   9.080   0.682
57992W        W58856   9.650   9.537   0.762
57993W        W58857  10.210  10.726   0.214
57994W        W58858   9.328   8.720   3.505
57995W        W58859   7.975   9.801   3.265
57996W        W58860  10.923   7.816   3.402
57997W        W58861  10.561   8.590   2.113
57998W        W58862   8.961  10.810   3.410
57999W        W58863   8.828   7.312   0.358
58000W        W58864  10.283   9.864   0.245
58001W        W58865   8.194   8.154   3.027
58002W        W58866   8.657  10.231   2.865
58003W        W58867  10.634   7.826   2.632
58004W        W58868  10.022  10.866   0.725
58005W        W58869  10.065   9.469   2.042
58006W        W58870   8.424   7.866   2.666
58007W        W58871   8.868   8.771   3.282
58008W        W58872   8.178   9.930   0.785
58009W        W58873  10.076   9.275   0.927
58010W        W58874   7.876   7.914   2.710
58011W        W58875   9.114  10.032   1.178
58012W        W58876  10.826   8.634   1.587
58013W        W58877   9.028   7.364   3.147
58014W        W58878  10.002  10.039   2.128
58015W        W58879  10.321  10.417   1.910
58016W        W58880   9.372   9.891   0.440
58017W        W58881   7.370   9.956   3.235
58018W        W58882   8.156   8.127   2.317
58019W        W58883   8.180   7.515   1.463
58020W        W58884   9.916   8.023   2.118
58021W        W58885   8.588   9.221   0.278
58022W        W58886  10.590   9.438   1.999
58023W        W58887   7.760  10.262   3.092
58024W        W58888  10.495  10.819   1.019
58025W        W58889   8.537   7.884   1.583
58026W        W58890   8.000   9.308   1.584
58027W        W58891   8.510  11.008   2.249
58028W        W58892  10.542  10.884   3.209
58029W        W58893   9.679   9.104   2.259
58030W        W58894   7.632   8.914   0.325
58031W        W58895  10.873  10.469   1.131
58032W        W58896  10.538   7.943   0.533
58033W        W58897   8.507   7.376   2.866
58034W        W58898  10.369  10.158   1.476
58035W        W58899  10.431   8.585   1.292
58036W        W58900   8.749   8.367   1.523
58037W        W58901   8.760   8.747   2.593
58038W        W58902   9.878   9.853   2.672
58039W        W58903   8.737   8.320   2.897
58040W        W58904   8.464  10.605   1.488
58041W        W58905   7.943  10.738   3.244
58042W        W58906   8.091  10.151   0.312
58043W        W58907  10.308   9.711   1.198
58044W        W58908   8.291   8.503   2.661
58045W        W58909  10.965   8.439   0.427
58046W        W58910   8.543   9.559   0.692
58047W        W58911   9.563   8.917   2.789
58048W        W58912   9.592   8.580   2.395
58049W        W58913   8.087   9.024   2.431
58050W        W58914  10.356  10.733   2.348
58051W        W58915  10.058   7.480   3.267
58052W        W58916   7.633   7.535   3.038
58053W        W58917   8.036   8.858   1.906
58054W        W58918   8.517   8.233   0.130
58055W        W58919   7.371  10.108   2.735
58056W        W58920   8.828   9.027   2.083
58057W        W58921   8.807   7.815   0.274
58058W        W58922   8.108   8.834   1.381
58059W        W58923   7.538  10.776   2.384
58060W        W58924  10.389   9.003   0.526
58061W        W58925  10.491   7.725   3.138
58062W        W58926   9.949  10.087   1.180
58063W        W58927   7.565   8.842   3.131
58064W        W58928  10.591   7.431   0.617
58065W        W58929  10.109   9.833   0.745
58066W        W58930   8.837   8.720   0.741
58067W        W58931  10.159   7.646   0.338
58068W        W58932  10.030   8.338   2.520
58069W        W58933   7.631   8.803   1.600
58070W        W58934   8.109   9.802   1.298
58071W        W58935   9.973   8.404   1.266
58072W        W58936   8.936   8.028   1.911
58073W        W58937  10.818   9.789   2.388
58074W        W58938  10.802   7.788   2.130
58075W        W58939   7.421  10.546   1.435
58076W        W58940   7.699   9.799   0.955
58077W        W58941   7.661   7.649   3.559
58078W        W58942   8.739  10.346   3.379
58079W        W58943  10.698   9.131   1.486
58080W        W58944  10.113   9.423   0.441
58081W        W58945   9.391  10.973   2.229
58082W        W58946  10.120   9.554   3.415
58083W        W58947   8.936   7.261   0.849
58084W        W58948   9.742   8.293   1.708
58085W        W58949   7.345   9.764   1.888
58086W        W58950   8.839   7.807   0.841
58087W        W58951   8.399   9.496   3.300
58088W        W58952   9.506   8.219   1.237
58089W        W58953   9.633   9.650   2.274
58090W        W58954   7.787  10.352   2.576
58091W        W58955   8.260  10.249   3.193
58092W        W58956   8.395   7.976   0.586
58093W        W58957   9.855   8.155   0.829
58094W        W58958   9.671  10.323   2.876
58095W        W58959   8.517   8.811   1.711
58096W        W58960   8.077  10.684   2.311
58097W        W58961  10.747  10.670   0.170
58098W        W58962   7.592   9.488   3.075
58099W        W58963   9.623   9.549   1.772
58100W        W58964   8.065   9.423   0.930
58101W        W58965   8.609  10.568   2.482
58102W        W58966   8.992   7.616   1.615
58103W        W58967   7.296   9.762   0.621
58104W        W58968   9.127   8.468   0.175
58105W        W58969   7.626   9.178   1.229
58106W        W58970   8.822   7.800   2.972
58107W        W58971  10.626   7.550   0.114
58108W        W58972  10.575   9.357   3.250
58109W        W58973   9.428  10.658   3.199
58110W        W58974  10.793   9.643   2.884
58111W        W58975  10.400  10.389   3.309
58112W        W58976   8.097  10.934   1.869
58113W        W58977  10.947   9.416   1.126
58114W        W58978   9.556   8.713   1.436
58115W        W58979   9.225   7.312   1.267
58116W        W58980   8.284  10.275   1.159
58117W        W58981   8.651   8.254   2.377
58118W        W58982   8.567   7.411   1.818
58119W        W58983   7.641  10.496   0.340
58120W        W58984   9.310   9.544   1.198
58121W        W58985   8.199  10.577   2.809
58122W        W58986   7.582   9.329   0.696
58123W        W58987   7.490   7.949   1.754
58124W        W58988   9.122   9.706   1.680
58125W        W58989   7.384   7.617   0.796
58126W        W58990  10.011   8.838   2.577
58127W        W58991  10.063   8.156   0.303
58128W        W58992  10.483   9.930   1.936
58129W        W58993   9.138  10.226   1.650
58130W        W58994   8.502  10.458   0.741
58131W        W58995   9.733   7.335   0.244
58132W        W58996   7.653  10.624   1.907
58133W        W58997   9.629   8.279   3.378
58134W        W58998   7.722   8.015   3.185
58135W        W58999   7.455   8.553   0.918
58136W        W59000   8.373   8.506   0.620
58137W        W59001   9.763   8.779   3.257
58138W        W59002   8.359   9.245   1.990
58139W        W59003   9.748   7.380   1.309
58140W        W59004   8.979  10.712   1.591
58141W        W59005  10.081  10.317   2.557
58142W        W59006   9.880  10.304   1.666
58143W        W59007   9.817   9.510   1.295
58144W        W59008   9.218   7.583   0.576
58145W        W59009  10.827   7.354   1.255
58146W        W59010   8.657   8.704   0.240
58147W        W59011  10.813   8.231   1.264
58148W        W59012   9.403   9.358   0.325
58149W        W59013  10.269   9.595   2.914
58150W        W59014  10.197  10.304   0.511
58151W        W59015   8.593   8.094   3.348
58152W        W59016   8.426   8.707   2.206
58153W        W59017  10.482  10.059   2.808
58154W        W59018   9.675   7.894   3.014
58155W        W59019   7.244   8.594   2.816
58156W        W59020   9.210   8.936   2.409
58157W        W59021   7.626   9.680   1.451
58158W        W59022   7.568   8.911   2.108
58159W        W59023  10.022   9.351   2.545
58160W        W59024  10.008  10.702   3.103
58161W        W59025   9.661   8.409   2.883
58162W        W59026  10.098  10.594   1.275
58163W        W59027   9.066  10.315   2.533
58164W        W59028   8.427  10.516   1.988
58165W        W59029  10.319   9.750   2.410
58166W        W59030   9.185   9.876   3.492
58167W        W59031   7.963   9.762   1.837
58168W        W59032  10.238   9.345   1.565
58169W        W59033   9.896  10.575   2.133
58170W        W59034   7.944  10.225   2.103
58171W        W59035   9.086   8.296   3.338
58172W        W59036   9.337  10.464   0.956
58173W        W59037   8.746   9.866   3.222
58174W        W59038   8.653  10.000   0.961
58175W        W59039   8.166   8.895   0.260
58176W        W59040   7.296  10.931   7.140
58177W        W59041   7.722   9.818   6.603
58178W        W59042  10.611   9.323   4.475
58179W        W59043  10.517  10.673   6.217
58180W        W59044   8.305  10.522   3.618
58181W        W59045   8.579   8.771   4.844
58182W        W59046   8.037   8.533   5.257
58183W        W59047   8.963   9.427   4.127
58184W        W59048   8.800  10.535   6.564
58185W        W59049   7.334   7.990   6.696
58186W        W59050   7.917   7.158   6.538
58187W        W59051   9.928   7.662   5.390
58188W        W59052   9.696   8.514   3.849
58189W        W59053  10.042   8.150   6.955
58190W        W59054   7.392   7.648   6.310
58191W        W59055   7.519  10.493   7.263
58192W        W59056   8.851  10.104   3.849
58193W        W59057   7.345   8.361   5.772
58194W        W59058   8.524   8.482   6.827
58195W        W59059  10.724   8.175   5.410
58196W        W59060  10.631   9.371   6.199
58197W        W59061   9.002   8.634   5.185
58198W        W59062   9.578  10.094   5.657
58199W        W59063   7.751   9.215   5.975
58200W        W59064   7.194   8.841   5.618
58201W        W59065   8.472   8.986   6.434
58202W        W59066  10.645   8.746   6.890
58203W        W59067   8.209   9.990   5.398
58204W        W59068   9.386   9.917   6.290
58205W        W59069   8.671   8.381   5.601
58206W        W59070   8.903   9.208   5.336
58207W        W59071   9.533  10.189   7.082
58208W        W59072   8.999   9.368   7.093
58209W        W59073   8.976   9.164   6.603
58210W        W59074   6.946   8.236   6.949
58211W        W59075  10.064   9.925   6.818
58212W        W59076   7.732   7.514   4.847
58213W        W59077   8.341   9.699   5.842
58214W        W59078  10.753   9.719   5.253
58215W        W59079  10.270   8.014   5.678
58216W        W59080  10.499   8.065   3.579
58217W        W59081  10.975   8.719   6.087
58218W        W59082   8.831  10.544   5.734
58219W        W59083  10.911   9.817   4.520
58220W        W59084   7.869  10.773   4.321
58221W        W59085   8.060  10.735   4.839
58222W        W59086   7.866   7.499   6.121
58223W        W59087  10.556   8.622   6.370
58224W        W59088   9.883   8.964   4.863
58225W        W59089  10.028   8.906   3.850
58226W        W59090   9.172   9.828   5.820
58227W        W59091   8.980   8.113   5.205
58228W        W59092   9.631  10.357   6.102
58229W        W59093  10.395   8.985   4.801
58230W        W59094   9.606   7.829   4.557
58231W        W59095   7.964  10.309   4.526
58232W        W59096   7.317   7.908   4.974
58233W        W59097   9.802   8.670   5.269
58234W        W59098   7.683  10.084   5.494
58235W        W59099   8.746  10.609   3.837
58236W        W59100  10.129   8.504   3.518
58237W        W59101   7.443  10.161   5.968
58238W        W59102   8.276   9.935   6.284
58239W        W59103   8.546   9.285   4.949
58240W        W59104   8.388   7.663   5.844
58241W        W59105  10.820   7.481   5.427
58242W        W59106   7.965   9.193   3.301
58243W        W59107   7.590   8.160   3.663
58244W        W59108   7.856  10.069   5.008
58245W        W59109   8.521   9.805   5.027
58246W        W59110   9.301   8.152   4.293
58247W        W59111  10.527  10.857   5.281
58248W        W59112  10.161   8.641   6.756
58249W        W59113  10.942  10.136   4.967
58250W        W59114   9.594   9.431   6.378
58251W        W59115   7.321   8.915   4.750
58252W        W59116   8.167   9.385   6.207
58253W        W59117   9.525   8.625   4.356
58254W        W59118   9.467   9.186   4.659
58255W        W59119   7.738   8.419   6.142
58256W        W59120   7.761   8.363   6.653
58257W        W59121   7.619   7.431   5.335
58258W        W59122   9.361   7.854   5.552
58259W        W59123   9.119   7.878   6.817
58260W        W59124   9.653   7.704   4.042
58261W        W59125  10.737  10.520   6.826
58262W        W59126   9.479   7.509   6.845
58263W        W59127  10.735   9.769   7.067
58264W        W59128  10.098   7.991   6.475
58265W        W59129  10.014   7.823   4.886
58266W        W59130  10.235   9.033   7.095
58267W        W59131   7.975  10.487   5.288
58268W        W59132   8.817   8.157   4.146
58269W        W59133   8.098   7.535   6.841
58270W        W59134  10.217   8.143   4.535
58271W        W59135  10.538   8.552   4.529
58272W        W59136   8.414  10.695   6.911
58273W        W59137   8.204   7.429   4.178
58274W        W59138  10.428   7.798   5.241
58275W        W59139  10.812  10.188   3.593
58276W        W59140   7.518   9.241   5.514
58277W        W59141   9.683   7.754   3.514
58278W        W59142  10.795  10.195   5.473
58279W        W59143  10.694   7.431   6.105
58280W        W59144   9.338   8.748   6.739
58281W        W59145   9.043   9.927   4.305
58282W        W59146   9.751   9.424   7.220
58283W        W59147   9.496   7.375   5.326
58284W        W59148   7.814   8.234   5.615
58285W        W59149   7.503   9.385   6.408
58286W        W59150   9.522  10.478   5.243
58287W        W59151  10.593   8.395   5.894
58288W        W59152   9.348  10.627   6.485
58289W        W59153  10.454   9.265   3.767
58290W        W59154   9.014   9.032   4.837
58291W        W59155  10.761   7.470   6.624
58292W        W59156   9.128   9.476   6.203
58293W        W59157   9.172   8.329   5.632
58294W        W59158  10.020   8.624   4.488
58295W        W59159  10.217   8.454   4.048
58296W        W59160  10.534  10.179   4.588
58297W        W59161   9.888   9.717   5.461
58298W        W59162   9.834   9.067   4.316
58299W        W59163   9.379   9.053   5.209
58300W        W59164  10.225   8.966   5.301
58301W        W59165   7.588   7.950   5.968
58302W        W59166  10.375   9.072   6.587
58303W        W59167  10.774  10.661   5.731
58304W        W59168   8.662  10.244   5.277
58305W        W59169   9.979  10.744   6.171
58306W        W59170   9.643   8.052   6.178
58307W        W59171   8.961  10.832   6.178
58308W        W59172  10.476   7.705   4.705
58309W        W59173  10.484   8.962   5.913
58310W        W59174   7.253   8.214   6.247
58311W        W59175   9.986   8.166   5.259
58312W        W59176  10.518   8.261   6.737
58313W        W59177   9.511   9.940   5.151
58314W        W59178   8.803  10.497   4.843
58315W        W59179   7.702   7.655   4.080
58316W        W59180   9.098   7.399   5.682
58317W        W59181   7.862  10.737   3.760
58318W        W59182   8.667   9.128   4.458
58319W        W59183   9.037   9.677   6.661
58320W        W59184   9.113   7.696   4.663
58321W        W59185  10.232   7.384   5.054
58322W        W59186  10.007  10.933   5.334
58323W        W59187   9.332  10.562   5.715
58324W        W59188   8.795   9.467   5.809
58325W        W59189  10.566  10.226   5.951
58326W        W59190   8.236   7.620   4.690
58327W        W59191   8.699  10.041   5.736
58328W        W59192   8.101   8.006   3.527
58329W        W59193   9.115   8.565   6.070
58330W        W59194   9.859   7.367   5.845
58331W        W59195   7.241   9.246   5.974
58332W        W59196   8.955   8.980   3.776
58333W        W59197   8.145   7.499   3.650
58334W        W59198   9.015   8.559   4.574
58335W        W59199   9.793   7.563   6.409
58336W        W59200   8.628   9.488   6.388
58337W        W59201   9.433   9.256   6.824
58338W        W59202   9.948   9.376   6.756
58339W        W59203   9.089   7.552   7.225
58340W        W59204   8.286   8.049   5.507
58341W        W59205   7.817   7.922   5.186
58342W        W59206   7.605  10.511   4.855
58343W        W59207   9.168  10.182   6.681
58344W        W59208   8.563   9.779   4.156
58345W        W59209   9.781   9.175   5.491
58346W        W59210   9.995   8.750   5.735
58347W        W59211   9.256   9.202   5.792
58348W        W59212   9.669   9.715   3.659
58349W        W59213   9.521   7.811   5.059
58350W        W59214  10.726   8.045   4.424
58351W        W59215   7.462  10.616   6.753
58352W        W59216   7.756   9.734   6.095
58353W        W59217   7.373  10.657   4.428
58354W        W59218   9.116   8.022   6.049
58355W        W59219   8.406  10.284   4.084
58356W        W59220  10.740  10.107   4.110
58357W        W59221   9.492   8.974   3.923
58358W        W59222   8.769   8.095   4.705
58359W        W59223   9.399   8.086   3.793
58360W        W59224   9.553   9.764   6.775
58361W        W59225  10.056   7.650   4.380
58362W        W59226   7.293   7.332   3.965
58363W        W59227   8.842   9.903   6.204
58364W        W59228   8.424   9.414   5.429
58365W        W59229   8.405   9.987   3.611
58366W        W59230   7.451  10.152   4.513
58367W        W59231   8.101   8.754   6.693
58368W        W59232   8.580   7.524   7.017
58369W        W59233   9.281   7.628   6.375
58370W        W59234   8.697   7.405   4.846
58371W        W59235   9.471   7.357   4.405
58372W        W59236   7.434   7.485   5.836
58373W        W59237   7.459   8.321   5.261
58374W        W59238  10.348   7.436   5.625
58375W        W59239   7.729   7.997   4.666
58376W        W59240  10.208   7.673   6.068
58377W        W59241  10.525   8.748   3.741
58378W        W59242   7.911   7.701   5.647
58379W        W59243   9.269   8.284   6.480
58380W        W59244   7.229   7.834   3.860
58381W        W59245   7.944   9.243   6.643
58382W        W59246   9.458   8.759   5.641
58383W        W59247   9.182  10.865   3.913
58384W        W59248   7.296   9.193   3.406
58385W        W59249   8.234   9.678   6.716
58386W        W59250   7.645   8.865   6.429
58387W        W59251   8.857   9.056   6.115
58388W        W59252  10.273   7.372   6.482
58389W        W59253  10.886   9.042   6.497
58390W        W59254  10.827   9.032   4.065
58391W        W59255   9.489   9.431   4.152
58392W        W59256  10.212  10.807   3.596
58393W        W59257   9.358   9.031   7.282
58394W        W59258   7.908   9.840   7.088
58395W        W59259  10.886   7.836   7.125
58396W        W59260  10.333   8.492   5.458
58397W        W59261   8.811  10.844   7.196
58398W        W59262   8.753   7.414   3.936
58399W        W59263  10.412   9.803   3.783
58400W        W59264   8.240   8.041   6.744
58401W        W59265   8.647  10.036   6.647
58402W        W59266  10.587   7.889   6.339
58403W        W59267  10.599  10.615   4.192
58404W        W59268  10.155   9.394   5.764
58405W        W59269   8.290   7.715   6.351
58406W        W59270   8.890   8.858   7.002
58407W        W59271   8.172   9.845   4.652
58408W        W59272  10.103   9.393   4.651
58409W        W59273   7.816   7.902   6.450
58410W        W59274   8.999  10.008   4.940
58411W        W59275  10.688   8.634   5.095
58412W        W59276   8.992   7.372   6.747
58413W        W59277  10.042  10.123   5.860
58414W        W59278  10.344  10.437   5.530
58415W        W59279   9.202  10.401   3.602
58416W        W59280   7.432  10.012   7.009
58417W        W59281   8.085   8.049   6.008
58418W        W59282   8.141   7.496   5.191
58419W        W59283   9.718   8.287   5.690
58420W        W59284   8.766   9.614   3.686
58421W        W59285  10.651   9.414   5.656
58422W        W59286   7.845  10.285   6.839
58423W        W59287  10.407  10.913   4.608
58424W        W59288   8.554   7.825   5.112
58425W        W59289   8.018   9.077   5.533
58426W        W59290   8.510  10.899   5.924
58427W        W59291  10.404  10.894   6.914
58428W        W59292   9.733   9.107   5.994
58429W        W59293   7.424   8.717   3.612
58430W        W59294  10.700  10.580   4.860
58431W        W59295  10.351   7.946   4.076
58432W        W59296   8.507   7.289   6.535
58433W        W59297  10.437  10.130   5.110
58434W        W59298  10.193   8.536   4.957
58435W        W59299   8.518   8.346   5.120
58436W        W59300   8.881   8.661   6.508
58437W        W59301   9.897   9.839   6.329
58438W        W59302   8.755   8.125   6.523
58439W        W59303   8.458  10.710   5.205
58440W        W59304   7.921  10.740   7.058
58441W        W59305   7.921  10.197   3.608
58442W        W59306  10.494   9.706   4.812
58443W        W59307   8.245   8.385   6.363
58444W        W59308  10.717   8.316   3.981
58445W        W59309   8.803   9.602   4.628
58446W        W59310   9.761   8.964   6.518
58447W        W59311   9.634   8.602   6.098
58448W        W59312   8.072   8.841   6.148
58449W        W59313  10.288  10.874   5.783
58450W        W59314   9.963   7.634   7.057
58451W        W59315   7.588   7.509   6.761
58452W        W59316   8.199   8.554   5.743
58453W        W59317   8.750   8.463   3.690
58454W        W59318   7.333  10.174   6.508
58455W        W59319   8.923   8.820   5.668
58456W        W59320   8.931   7.914   3.694
58457W        W59321   8.116   9.008   5.040
58458W        W59322   7.488  10.650   6.228
58459W        W59323  10.345   8.952   4.244
58460W        W59324  10.421   7.776   6.855
58461W        W59325  10.020   9.840   4.962
58462W        W59326   7.653   8.786   6.945
58463W        W59327  10.463   7.423   4.116
58464W        W59328  10.373   9.750   4.306
58465W        W59329   9.149   8.980   4.303
58466W        W59330  10.092   7.601   3.796
58467W        W59331  10.094   8.319   6.068
58468W        W59332   7.589   8.816   5.239
58469W        W59333   8.058   9.570   5.099
58470W        W59334   9.771   8.279   4.785
58471W        W59335   8.824   7.864   5.628
58472W        W59336  10.885   9.854   6.176
58473W        W59337  10.763   7.865   5.833
58474W        W59338   7.456  10.524   5.329
58475W        W59339   7.666   9.709   4.706
58476W        W59340   7.696   7.518   7.279
58477W        W59341   8.805  10.347   7.036
58478W        W59342  10.701   9.145   5.213
58479W        W59343  10.009   9.428   3.968
58480W        W59344   9.475  10.894   6.065
58481W        W59345  10.269   9.543   7.121
58482W        W59346   8.949   7.262   4.401
58483W        W59347   9.473   8.295   5.233
58484W        W59348   7.390   9.698   5.708
58485W        W59349   8.659   7.690   4.373
58486W        W59350   8.539   9.267   6.854
58487W        W59351   9.271   8.175   4.790
58488W        W59352   9.653   9.620   5.907
58489W        W59353   7.817  10.249   6.322
58490W        W59354   8.321  10.165   7.034
58491W        W59355   8.460   7.837   3.886
58492W        W59356   9.808   8.185   4.243
58493W        W59357   9.700  10.243   6.595
58494W        W59358   8.494   8.843   5.367
58495W        W59359   8.125  10.594   6.090
58496W        W59360  10.731  10.683   3.662
58497W        W59361   7.561   9.455   6.945
58498W        W59362   9.393   9.543   5.450
58499W        W59363   8.069   9.336   4.641
58500W        W59364   8.576  10.354   6.135
58501W        W59365   9.048   7.604   5.189
58502W        W59366   7.304   9.703   4.291
58503W        W59367   9.183   8.539   3.973
58504W        W59368   7.653   9.246   4.970
58505W        W59369   8.785   7.644   6.212
58506W        W59370  10.563   7.506   3.608
58507W        W59371  10.703   9.255   6.964
58508W        W59372   9.247  10.638   7.002
58509W        W59373  10.915   9.585   6.611
58510W        W59374  10.429  10.183   7.109
58511W        W59375   8.098  10.896   5.608
58512W        W59376  10.924   9.434   4.868
58513W        W59377   9.436   8.678   4.865
58514W        W59378   9.238   7.235   4.869
58515W        W59379   8.305  10.289   4.926
58516W        W59380   8.591   8.106   6.034
58517W        W59381   8.626   7.423   5.424
58518W        W59382   7.636  10.382   4.056
58519W        W59383   9.181   9.506   4.983
58520W        W59384   8.270  10.378   6.548
58521W        W59385   7.544   9.269   4.454
58522W        W59386   7.387   7.874   5.492
58523W        W59387   8.893   9.725   5.372
58524W        W59388   7.365   7.656   4.499
58525W        W59389  10.113   8.805   6.224
58526W        W59390   9.962   8.090   3.767
58527W        W59391  10.384   9.872   5.578
58528W        W59392   9.131  10.178   5.438
58529W        W59393   8.422  10.594   4.505
58530W        W59394   9.690   7.269   3.693
58531W        W59395   7.746  10.529   5.759
58532W        W59396   9.589   8.389   7.036
58533W        W59397   7.770   7.943   6.973
58534W        W59398   7.373   8.391   4.761
58535W        W59399   8.729   8.694   4.164
58536W        W59400   9.760   8.880   7.007
58537W        W59401   8.428   9.079   5.843
58538W        W59402   9.753   7.375   4.858
58539W        W59403   9.018  10.668   5.285
58540W        W59404  10.175  10.281   6.333
58541W        W59405   9.954  10.206   5.320
58542W        W59406   9.720   9.430   5.048
58543W        W59407   9.143   7.687   4.130
58544W        W59408  10.747   7.334   4.928
58545W        W59409   8.468   9.016   3.502
58546W        W59410  10.550   8.174   4.917
58547W        W59411   9.261   9.384   3.670
58548W        W59412  10.402   9.577   6.621
58549W        W59413  10.361  10.338   3.821
58550W        W59414   8.672   8.029   7.047
58551W        W59415   8.593   8.625   6.064
58552W        W59416  10.553  10.054   6.604
58553W        W59417   9.623   7.966   6.697
58554W        W59418   7.276   8.537   6.648
58555W        W59419   9.324   8.986   6.275
58556W        W59420   7.569   9.670   5.219
58557W        W59421   7.691   8.747   5.751
58558W        W59422  10.096   9.349   6.263
58559W        W59423   9.767   8.428   6.546
58560W        W59424  10.189  10.582   5.000
58561W        W59425   9.107  10.330   6.128
58562W        W59426   8.344  10.440   5.647
58563W        W59427  10.358   9.791   6.118
58564W        W59428   9.099   9.899   7.119
58565W        W59429   7.902   9.596   5.607
58566W        W59430  10.282   9.471   5.231
58567W        W59431   9.846  10.586   5.680
58568W        W59432   8.026  10.111   5.871
58569W        W59433   9.050   8.368   6.940
58570W        W59434   8.878  10.437   4.298
58571W        W59435   8.616   9.734   7.058
58572W        W59436   8.616  10.091   4.571
58573W        W59437   7.882   8.482   3.324
58574W        W59438   7.221  10.952  10.748
58575W        W59439   7.762   9.895  10.305
58576W        W59440  10.505   9.421   7.967
58577W        W59441  10.636  10.618   9.963
58578W        W59442   8.429  10.541   7.410
58579W        W59443   8.596   8.835   8.592
58580W        W59444   8.254   8.588   8.905
58581W        W59445   9.128   9.261   8.061
58582W        W59446   8.797  10.585  10.358
58583W        W59447   7.361   8.025  10.264
58584W        W59448   7.954   7.269  10.246
58585W        W59449   9.840   7.664   8.925
58586W        W59450   9.737   8.533   7.681
58587W        W59451  10.030   8.110  10.516
58588W        W59452   7.379   7.683   9.770
58589W        W59453   7.557  10.592  10.859
58590W        W59454   8.677  10.076   7.448
58591W        W59455   7.414   8.420   9.329
58592W        W59456   8.585   8.555  10.523
58593W        W59457  10.570   8.246   9.084
58594W        W59458  10.592   9.367   9.900
58595W        W59459   8.973   8.838   8.961
58596W        W59460   9.505  10.121   9.263
58597W        W59461   7.788   9.334   9.622
58598W        W59462   7.144   8.848   9.238
58599W        W59463   8.394   8.981  10.233
58600W        W59464  10.661   8.766  10.527
58601W        W59465   8.175  10.059   9.021
58602W        W59466   9.359   9.942  10.032
58603W        W59467   8.622   8.583   9.279
58604W        W59468   8.884   9.358   9.015
58605W        W59469   9.598  10.218  10.722
58606W        W59470   9.007   9.384  10.794
58607W        W59471   8.974   9.208  10.303
58608W        W59472   7.254   8.402  10.656
58609W        W59473  10.036   9.993  10.519
58610W        W59474   7.670   7.370   8.478
58611W        W59475   8.261   9.711   9.616
58612W        W59476  10.662   9.695   8.842
58613W        W59477   9.931   7.977   9.310
58614W        W59478  10.457   8.135   7.277
58615W        W59479  11.083   8.938   9.734
58616W        W59480   8.886  10.410   9.422
58617W        W59481  10.740   9.897   7.987
58618W        W59482   7.758  10.859   8.071
58619W        W59483   8.118  10.822   8.465
58620W        W59484   7.897   7.640   9.911
58621W        W59485  10.617   8.807   9.898
58622W        W59486   9.949   8.951   8.536
58623W        W59487   9.851   8.991   7.491
58624W        W59488   9.118   9.955   9.564
58625W        W59489   9.115   8.072   8.791
58626W        W59490   9.486  10.340   9.744
58627W        W59491  10.417   9.010   8.299
58628W        W59492   9.440   7.611   8.162
58629W        W59493   7.966  10.405   8.178
58630W        W59494   7.373   7.798   8.526
58631W        W59495  10.073   8.422   9.096
58632W        W59496   7.686  10.161   9.132
58633W        W59497   8.787  10.457   7.785
58634W        W59498  10.074   8.558   7.271
58635W        W59499   7.500  10.213   9.595
58636W        W59500   8.221   9.966  10.059
58637W        W59501   8.504   9.353   8.657
58638W        W59502   8.716   7.709   9.709
58639W        W59503  10.823   7.420   9.148
58640W        W59504   8.104   9.362   7.121
58641W        W59505   7.689   7.981   7.497
58642W        W59506   7.800  10.145   8.637
58643W        W59507   8.498   9.857   8.676
58644W        W59508  10.195  10.525  10.235
58645W        W59509   9.330   8.219   7.838
58646W        W59510  10.541  10.740   8.883
58647W        W59511  10.192   8.619  10.383
58648W        W59512  10.859  10.012   8.498
58649W        W59513   9.521   9.443  10.068
58650W        W59514   7.355   8.888   8.463
58651W        W59515   8.130   9.409  10.004
58652W        W59516   9.527   8.584   8.168
58653W        W59517   9.458   9.041   8.432
58654W        W59518   7.698   8.504   9.778
58655W        W59519   7.737   8.573  10.301
58656W        W59520   7.509   7.475   8.961
58657W        W59521   9.375   7.842   9.229
58658W        W59522   9.152   7.910  10.494
58659W        W59523   9.588   7.796   7.700
58660W        W59524  10.716  10.449  10.445
58661W        W59525   9.679   7.445  10.402
58662W        W59526  10.545   9.920  10.613
58663W        W59527  10.059   7.957  10.004
58664W        W59528   9.852   7.856   8.435
58665W        W59529  10.259   9.023  10.754
58666W        W59530   7.966  10.552   8.923
58667W        W59531   8.833   8.015   7.908
58668W        W59532   8.288   7.650  10.447
58669W        W59533  10.266   8.127   8.247
58670W        W59534  10.585   8.548   8.150
58671W        W59535   8.363  10.546  10.675
58672W        W59536   8.169   7.230   7.875
58673W        W59537  10.640   7.785   8.845
58674W        W59538  10.841  10.143   7.455
58675W        W59539   7.441   9.290   9.181
58676W        W59540   9.513   7.904   7.198
58677W        W59541  10.776  10.197   9.048
58678W        W59542  10.722   7.441   9.658
58679W        W59543   9.329   8.778  10.339
58680W        W59544   8.937   9.946   7.880
58681W        W59545   9.818   9.249  10.911
58682W        W59546   9.422   7.350   9.042
58683W        W59547   7.886   8.359   9.188
58684W        W59548   7.579   9.443  10.091
58685W        W59549   9.579  10.568   8.877
58686W        W59550  10.372   8.045   9.563
58687W        W59551   9.338  10.650  10.167
58688W        W59552  10.509   9.250   7.471
58689W        W59553   8.980   9.169   8.557
58690W        W59554  10.732   7.354  10.186
58691W        W59555   9.072   9.535   9.875
58692W        W59556   9.103   8.386   9.195
58693W        W59557  10.060   8.615   8.137
58694W        W59558  10.284   8.413   7.727
58695W        W59559  10.415  10.227   8.218
58696W        W59560  10.122   9.722   8.946
58697W        W59561   9.773   9.026   8.013
58698W        W59562   9.388   9.175   8.933
58699W        W59563  10.326   8.877   9.039
58700W        W59564   7.775   8.011   9.577
58701W        W59565  10.342   9.089  10.250
58702W        W59566  10.749  10.613   9.369
58703W        W59567   8.654  10.269   8.938
58704W        W59568   9.826  10.699   9.911
58705W        W59569   9.611   8.017   9.726
58706W        W59570   8.916  10.836   9.915
58707W        W59571  10.588   7.695   8.320
58708W        W59572  10.341   9.072   9.549
58709W        W59573   7.314   8.175   9.764
58710W        W59574  10.186   8.040   8.778
58711W        W59575  10.398   8.345   9.998
58712W        W59576   9.495  10.012   8.753
58713W        W59577   8.810  10.553   8.556
58714W        W59578   7.736   7.517   7.792
58715W        W59579   9.030   7.461   9.396
58716W        W59580   7.945  10.775   7.586
58717W        W59581   8.617   9.172   8.178
58718W        W59582   9.053   9.709  10.368
58719W        W59583   8.986   7.752   8.369
58720W        W59584  10.227   7.529   8.634
58721W        W59585  10.023  10.783   9.018
58722W        W59586   9.342  10.635   9.342
58723W        W59587   8.744   9.524   9.477
58724W        W59588  10.539  10.234   9.644
58725W        W59589   8.052   7.602   8.222
58726W        W59590   8.590   9.994   9.351
58727W        W59591   8.205   7.868   7.234
58728W        W59592   9.024   8.577   9.669
58729W        W59593   9.777   7.498   9.399
58730W        W59594   7.267   9.226   9.655
58731W        W59595   8.898   8.953   7.509
58732W        W59596   8.207   7.361   7.361
58733W        W59597   9.286   8.542   8.647
58734W        W59598   9.740   7.553   9.910
58735W        W59599   8.569   9.569  10.233
58736W        W59600   9.431   9.246  10.552
58737W        W59601   9.912   9.353  10.410
58738W        W59602   9.183   7.606  10.940
58739W        W59603   8.353   8.122   9.191
58740W        W59604   7.888   7.846   9.092
58741W        W59605   7.630  10.641   8.535
58742W        W59606   9.175  10.219  10.436
58743W        W59607   8.465   9.711   7.950
58744W        W59608   9.907   9.173   9.049
58745W        W59609   9.914   8.798   9.404
58746W        W59610   9.240   9.399   9.396
58747W        W59611  10.006   9.904   7.366
58748W        W59612   9.422   7.701   8.662
58749W        W59613  10.798   8.084   8.070
58750W        W59614   7.442  10.633  10.343
58751W        W59615   7.768   9.820   9.796
58752W        W59616   7.283  10.730   8.154
58753W        W59617   9.118   8.054   9.642
58754W        W59618   8.316  10.214   7.819
58755W        W59619  10.726  10.464   7.862
58756W        W59620   9.334   8.862   7.787
58757W        W59621   8.928   8.285   8.345
58758W        W59622   9.059   8.055   7.407
58759W        W59623   9.568   9.759  10.474
58760W        W59624  10.116   7.568   8.102
58761W        W59625   7.324   7.263   7.615
58762W        W59626   8.698   9.872   9.844
58763W        W59627   8.374   9.562   9.121
58764W        W59628   8.261   9.790   7.452
58765W        W59629   7.466  10.235   8.240
58766W        W59630   8.119   8.710  10.598
58767W        W59631   8.729   7.555  10.714
58768W        W59632   9.235   7.660   9.979
58769W        W59633   8.667   7.373   8.538
58770W        W59634   9.691   7.293   7.842
58771W        W59635   7.730   7.496   9.437
58772W        W59636   7.469   8.177   8.879
58773W        W59637  10.294   7.586   9.177
58774W        W59638   7.609   7.920   8.075
58775W        W59639  10.209   7.556   9.691
58776W        W59640  10.548   8.732   7.403
58777W        W59641   8.228   7.679   9.509
58778W        W59642   9.273   8.319  10.072
58779W        W59643   7.251   7.763   7.692
58780W        W59644   7.890   9.088  10.330
58781W        W59645   9.350   8.853   9.336
58782W        W59646   9.146  10.798   7.584
58783W        W59647   7.351   9.056   7.272
58784W        W59648   8.118   9.558  10.500
58785W        W59649   7.529   8.941   9.991
58786W        W59650   8.685   9.206   9.884
58787W        W59651  10.205   7.472  10.214
58788W        W59652  10.897   9.095  10.211
58789W        W59653  10.761   8.975   7.866
58790W        W59654   9.564   9.506   8.185
58791W        W59655  10.198  10.877   7.493
58792W        W59656   9.428   8.877  10.951
58793W        W59657   7.825   9.897  10.813
58794W        W59658  10.929   7.880  10.812
58795W        W59659  10.432   8.563   9.477
58796W        W59660   8.825  10.777  10.844
58797W        W59661   8.652   7.250   7.665
58798W        W59662  10.485   9.763   7.538
58799W        W59663   8.194   8.164  10.479
58800W        W59664   8.680  10.091  10.295
58801W        W59665  10.562   7.825   9.996
58802W        W59666  10.245  10.651   7.976
58803W        W59667  10.039   9.490   9.419
58804W        W59668   8.331   7.946   9.992
58805W        W59669   8.959   8.878  10.705
58806W        W59670   8.137   9.929   8.304
58807W        W59671  10.065   9.392   8.222
58808W        W59672   7.848   8.123  10.085
58809W        W59673   8.986  10.033   8.596
58810W        W59674  10.742   8.669   8.800
58811W        W59675   9.154   7.408  10.449
58812W        W59676   9.989   9.992   9.386
58813W        W59677  10.317  10.378   9.202
58814W        W59678   9.142  10.312   7.426
58815W        W59679   7.413  10.167  10.606
58816W        W59680   8.158   8.336   9.639
58817W        W59681   8.112   7.478   8.790
58818W        W59682   9.590   8.374   9.333
58819W        W59683   8.558   9.333   7.380
58820W        W59684  10.477   9.362   9.170
58821W        W59685   7.875  10.391  10.486
58822W        W59686  10.519  10.931   8.316
58823W        W59687   8.600   7.882   8.742
58824W        W59688   7.957   9.212   9.139
58825W        W59689   8.612  10.853   9.500
58826W        W59690  10.462  10.881  10.485
58827W        W59691   9.654   9.186   9.614
58828W        W59692   7.442   8.327   7.100
58829W        W59693  10.777  10.518   8.442
58830W        W59694  10.381   7.913   7.782
58831W        W59695   8.411   7.399  10.011
58832W        W59696  10.391  10.141   8.725
58833W        W59697  10.286   8.568   8.611
58834W        W59698   8.727   8.387   8.824
58835W        W59699   8.860   8.737  10.132
58836W        W59700   9.876   9.816  10.056
58837W        W59701   8.759   8.226  10.136
58838W        W59702   8.438  10.747   8.871
58839W        W59703   7.959  10.880  10.655
58840W        W59704   7.971  10.282   7.394
58841W        W59705  10.416   9.734   8.395
58842W        W59706   8.239   8.501  10.114
58843W        W59707  10.810   8.334   7.608
58844W        W59708   8.824   9.626   8.325
58845W        W59709   9.714   8.987  10.101
58846W        W59710   9.548   8.646   9.762
58847W        W59711   8.024   8.909   9.856
58848W        W59712  10.260  10.712   9.602
58849W        W59713  10.077   7.612  10.709
58850W        W59714   7.778   7.723  10.410
58851W        W59715   8.130   8.772   9.368
58852W        W59716   8.720   8.477   7.323
58853W        W59717   7.371  10.167  10.088
58854W        W59718   8.860   9.021   9.438
58855W        W59719   8.656   7.731   7.488
58856W        W59720   8.097   9.040   8.678
58857W        W59721   7.478  10.690   9.828
58858W        W59722  10.253   8.951   7.804
58859W        W59723  10.548   7.739  10.507
58860W        W59724   9.947   9.908   8.481
58861W        W59725   7.418   8.930  10.506
58862W        W59726  10.584   7.436   7.863
58863W        W59727  10.180   9.846   7.951
58864W        W59728   9.042   8.778   8.240
58865W        W59729  10.039   7.578   7.586
58866W        W59730   9.984   8.355   9.662
58867W        W59731   7.581   8.798   8.946
58868W        W59732   8.017   9.630   8.756
58869W        W59733   9.832   8.377   8.516
58870W        W59734   8.832   7.939   9.228
58871W        W59735  10.815   9.807   9.729
58872W        W59736  10.812   7.880   9.400
58873W        W59737   7.394  10.564   8.992
58874W        W59738   7.641   9.725   8.387
58875W        W59739   7.826   7.677  10.920
58876W        W59740   8.770  10.253  10.775
58877W        W59741  10.787   9.178   8.803
58878W        W59742  10.060   9.432   7.662
58879W        W59743   9.396  10.949   9.741
58880W        W59744  10.207   9.561  10.772
58881W        W59745   8.997   7.249   8.080
58882W        W59746   9.624   8.132   8.887
58883W        W59747   7.376   9.729   9.437
58884W        W59748   8.575   7.566   8.060
58885W        W59749   8.533   9.254  10.642
58886W        W59750   9.410   8.109   8.349
58887W        W59751   9.596   9.723   9.622
58888W        W59752   7.844  10.324   9.976
58889W        W59753   8.253  10.058  10.568
58890W        W59754   8.196   7.734   7.733
58891W        W59755   9.823   8.147   8.004
58892W        W59756   9.707  10.284  10.224
58893W        W59757   8.474   9.039   9.069
58894W        W59758   8.126  10.678   9.711
58895W        W59759  10.649  10.624   7.347
58896W        W59760   7.612   9.431  10.610
58897W        W59761   9.619   9.632   9.107
58898W        W59762   8.132   9.412   8.298
58899W        W59763   8.500  10.328   9.757
58900W        W59764   8.991   7.591   8.892
58901W        W59765   7.323   9.502   7.857
58902W        W59766   9.248   8.538   7.396
58903W        W59767   7.629   9.271   8.705
58904W        W59768   8.767   7.703  10.222
58905W        W59769  10.488   7.598   7.353
58906W        W59770  10.642   9.371  10.563
58907W        W59771   9.309  10.674  10.682
58908W        W59772  10.838   9.709  10.228
58909W        W59773  10.305  10.375  10.729
58910W        W59774   8.135  10.929   9.264
58911W        W59775  10.839   9.465   8.380
58912W        W59776   9.679   8.715   8.927
58913W        W59777   9.188   7.258   8.559
58914W        W59778   8.294  10.341   8.581
58915W        W59779   8.641   8.218   9.636
58916W        W59780   8.538   7.505   9.112
58917W        W59781   7.571  10.453   7.780
58918W        W59782   9.262   9.577   8.631
58919W        W59783   8.297  10.502  10.183
58920W        W59784   7.629   9.240   8.191
58921W        W59785   7.386   7.880   9.283
58922W        W59786   9.094   9.824   9.072
58923W        W59787   7.319   7.479   8.108
58924W        W59788  10.110   8.780   9.892
58925W        W59789   9.955   8.083   7.469
58926W        W59790  10.481   9.861   9.296
58927W        W59791   9.146  10.335   8.969
58928W        W59792   8.473  10.610   8.160
58929W        W59793   9.583   7.412   7.345
58930W        W59794   7.742  10.608   9.381
58931W        W59795   9.583   8.361  10.640
58932W        W59796   7.714   8.175  10.644
58933W        W59797   7.418   8.362   8.409
58934W        W59798   8.922   8.522   7.808
58935W        W59799   9.787   8.852  10.583
58936W        W59800   8.314   9.214   9.533
58937W        W59801   9.762   7.339   8.508
58938W        W59802   8.920  10.781   9.049
58939W        W59803  10.052  10.248   9.821
58940W        W59804   9.929  10.212   8.927
58941W        W59805   9.769   9.442   8.647
58942W        W59806   9.106   7.625   7.742
58943W        W59807  10.908   7.387   8.627
58944W        W59808   8.378   8.870   7.141
58945W        W59809  10.646   8.212   8.564
58946W        W59810   9.518   9.342   7.686
58947W        W59811  10.316   9.622  10.257
58948W        W59812  10.332  10.250   7.626
58949W        W59813   8.675   8.058  10.617
58950W        W59814   8.509   8.741   9.747
58951W        W59815  10.463  10.100  10.138
58952W        W59816   9.601   7.945  10.239
58953W        W59817   7.252   8.511  10.157
58954W        W59818   9.211   9.036   9.856
58955W        W59819   7.529   9.729   8.912
58956W        W59820   7.628   8.885   9.454
58957W        W59821  10.049   9.336   9.908
58958W        W59822   9.827  10.674  10.568
58959W        W59823   9.787   8.423  10.152
58960W        W59824  10.176  10.599   8.540
58961W        W59825   8.995  10.312   9.938
58962W        W59826   8.351  10.469   9.286
58963W        W59827  10.296   9.779   9.764
58964W        W59828   9.208   9.856  10.838
58965W        W59829   7.882   9.707   9.278
58966W        W59830  10.293   9.313   8.692
58967W        W59831   9.839  10.490   9.395
58968W        W59832   8.033  10.166   9.525
58969W        W59833   9.071   8.399  10.549
58970W        W59834   9.099  10.350   8.187
58971W        W59835   8.662   9.759  10.711
58972W        W59836   8.622  10.128   8.242
58973W        W59837   8.055   8.391   7.081
58974W        W59838   7.247  11.038  14.394
58975W        W59839   7.752   9.913  13.930
58976W        W59840  10.570   9.489  11.662
58977W        W59841  10.769  10.576  13.623
58978W        W59842   8.505  10.482  11.161
58979W        W59843   8.598   8.829  12.223
58980W        W59844   8.255   8.575  12.537
58981W        W59845   9.210   9.349  11.774
58982W        W59846   8.825  10.663  13.905
58983W        W59847   7.408   8.044  13.975
58984W        W59848   8.003   7.224  13.825
58985W        W59849   9.893   7.681  12.747
58986W        W59850   9.695   8.496  11.325
58987W        W59851   9.989   8.138  14.252
58988W        W59852   7.471   7.726  13.553
58989W        W59853   7.449  10.592  14.535
58990W        W59854   8.845   9.973  11.214
58991W        W59855   7.407   8.427  13.007
58992W        W59856   8.518   8.487  14.151
58993W        W59857  10.597   8.218  12.816
58994W        W59858  10.609   9.406  13.634
58995W        W59859   8.972   8.813  12.611
58996W        W59860   9.509  10.044  12.952
58997W        W59861   7.866   9.338  13.305
58998W        W59862   7.214   8.900  12.899
58999W        W59863   8.449   8.945  13.879
59000W        W59864  10.676   8.734  14.150
59001W        W59865   8.211  10.065  12.756
59002W        W59866   9.366   9.963  13.661
59003W        W59867   8.642   8.530  12.910
59004W        W59868   8.894   9.323  12.667
59005W        W59869   9.657  10.369  14.397
59006W        W59870   8.905   9.359  14.430
59007W        W59871   9.089   9.158  13.937
59008W        W59872   6.965   8.262  14.212
59009W        W59873  10.086  10.133  14.086
59010W        W59874   7.790   7.582  12.148
59011W        W59875   8.305   9.750  13.220
59012W        W59876  10.672   9.881  12.496
59013W        W59877  10.109   8.210  13.002
59014W        W59878  10.352   8.027  10.921
59015W        W59879  10.883   9.024  13.420
59016W        W59880   8.864  10.640  13.169
59017W        W59881  10.663  10.119  11.543
59018W        W59882   7.758  10.806  11.688
59019W        W59883   8.138  10.824  12.060
59020W        W59884   8.003   7.581  13.421
59021W        W59885  10.496   8.695  13.596
59022W        W59886   9.965   8.908  12.262
59023W        W59887   9.971   8.913  11.267
59024W        W59888   9.075   9.924  13.241
59025W        W59889   9.174   8.046  12.422
59026W        W59890   9.608  10.350  13.382
59027W        W59891  10.449   9.076  12.343
59028W        W59892   9.571   7.662  11.783
59029W        W59893   7.951  10.348  11.860
59030W        W59894   7.441   7.959  12.175
59031W        W59895  10.175   8.584  12.628
59032W        W59896   7.704  10.158  12.826
59033W        W59897   8.906  10.435  11.486
59034W        W59898  10.074   8.542  10.877
59035W        W59899   7.469  10.241  13.299
59036W        W59900   8.217   9.978  13.672
59037W        W59901   8.523   9.350  12.300
59038W        W59902   8.409   7.786  13.116
59039W        W59903  10.879   7.396  12.838
59040W        W59904   8.015   9.156  10.830
59041W        W59905   7.868   8.156  11.137
59042W        W59906   7.913  10.128  12.340
59043W        W59907   8.541   9.876  12.403
59044W        W59908  10.340  10.562  13.913
59045W        W59909   9.373   8.148  11.551
59046W        W59910  10.414  10.684  12.627
59047W        W59911  10.208   8.571  14.029
59048W        W59912  10.981  10.179  12.227
59049W        W59913   9.546   9.508  13.813
59050W        W59914   7.280   9.020  11.990
59051W        W59915   8.272   9.427  13.631
59052W        W59916   9.537   8.584  11.817
59053W        W59917   9.481   9.029  12.098
59054W        W59918   7.747   8.493  13.471
59055W        W59919   7.805   8.424  13.998
59056W        W59920   7.720   7.397  12.615
59057W        W59921   9.384   7.837  12.846
59058W        W59922   9.149   7.828  14.129
59059W        W59923   9.576   7.755  11.254
59060W        W59924  10.773  10.486  14.182
59061W        W59925   9.594   7.444  14.055
59062W        W59926  10.532   9.953  14.318
59063W        W59927  10.143   7.962  13.799
59064W        W59928   9.954   7.852  12.123
59065W        W59929  10.244   8.998  14.411
59066W        W59930   7.991  10.551  12.613
59067W        W59931   8.857   8.196  11.481
59068W        W59932   8.221   7.571  14.132
59069W        W59933  10.293   8.166  11.880
59070W        W59934  10.582   8.530  11.642
59071W        W59935   8.357  10.756  14.117
59072W        W59936   8.291   7.428  11.458
59073W        W59937  10.655   7.771  12.579
59074W        W59938  10.758  10.195  10.987
59075W        W59939   7.523   9.307  12.819
59076W        W59940   9.597   7.827  10.731
59077W        W59941  10.699  10.292  12.785
59078W        W59942  10.706   7.404  13.354
59079W        W59943   9.311   8.673  14.047
59080W        W59944   9.289   9.923  11.954
59081W        W59945   9.779   9.057  14.703
59082W        W59946   9.463   7.324  12.833
59083W        W59947   7.880   8.340  12.815
59084W        W59948   7.558   9.475  13.726
59085W        W59949   9.325  10.501  12.444
59086W        W59950  10.538   8.231  13.332
59087W        W59951   9.358  10.757  13.751
59088W        W59952  10.337   9.288  11.195
59089W        W59953   9.000   9.137  12.207
59090W        W59954  10.796   7.417  13.904
59091W        W59955   9.133   9.497  13.528
59092W        W59956   9.141   8.372  12.815
59093W        W59957  10.041   8.590  11.718
59094W        W59958  10.215   8.331  11.325
59095W        W59959  10.263  10.393  11.762
59096W        W59960   9.950   9.873  12.697
59097W        W59961   9.860   9.064  11.773
59098W        W59962   9.386   9.111  12.592
59099W        W59963  10.374   9.101  12.832
59100W        W59964   7.684   8.040  13.203
59101W        W59965  10.341   9.080  13.911
59102W        W59966  10.783  10.692  13.074
59103W        W59967   8.628  10.347  12.620
59104W        W59968   9.892  10.718  13.684
59105W        W59969   9.671   8.066  13.455
59106W        W59970   8.892  11.012  13.527
59107W        W59971  10.537   7.746  12.053
59108W        W59972  10.318   9.089  13.331
59109W        W59973   7.293   8.220  13.488
59110W        W59974  10.200   8.044  12.520
59111W        W59975  10.608   8.272  13.853
59112W        W59976   9.517   9.970  12.432
59113W        W59977   8.832  10.598  12.229
59114W        W59978   7.864   7.714  11.424
59115W        W59979   9.053   7.542  13.158
59116W        W59980   7.887  10.813  11.182
59117W        W59981   8.688   9.220  11.802
59118W        W59982   9.100   9.696  14.008
59119W        W59983   9.102   7.716  12.016
59120W        W59984  10.257   7.488  12.406
59121W        W59985   9.878  10.851  12.659
59122W        W59986   9.463  10.570  12.934
59123W        W59987   8.779   9.494  13.138
59124W        W59988  10.574  10.231  13.291
59125W        W59989   8.231   7.678  11.919
59126W        W59990   8.682   9.929  12.901
59127W        W59991   8.287   7.890  10.907
59128W        W59992   9.044   8.540  13.304
59129W        W59993   9.925   7.367  13.169
59130W        W59994   7.344   9.248  13.306
59131W        W59995   8.996   9.060  11.213
59132W        W59996   8.295   7.395  10.928
59133W        W59997   9.272   8.560  12.275
59134W        W59998   9.817   7.595  13.616
59135W        W59999   8.660   9.435  13.978
59136W        W60000   9.413   9.344  14.277
59137W        W60001   9.916   9.311  14.139
59138W        W60002   9.154   7.503  14.562
59139W        W60003   8.379   8.111  12.716
59140W        W60004   7.930   8.030  12.384
59141W        W60005   7.670  10.628  12.209
59142W        W60006   9.164  10.237  14.073
59143W        W60007   8.608   9.736  11.631
59144W        W60008   9.866   9.087  12.779
59145W        W60009   9.955   8.704  13.109
59146W        W60010   9.249   9.310  13.062
59147W        W60011   9.764   9.771  10.956
59148W        W60012   9.528   7.655  12.350
59149W        W60013  10.835   8.088  11.797
59150W        W60014   7.438  10.729  14.018
59151W        W60015   7.774   9.836  13.407
59152W        W60016   7.293  10.822  11.892
59153W        W60017   9.181   8.049  13.262
59154W        W60018   8.388  10.220  11.579
59155W        W60019  10.399  10.466  11.264
59156W        W60020   9.469   8.992  11.461
59157W        W60021   9.017   8.240  11.964
59158W        W60022   9.263   8.129  11.022
59159W        W60023   9.588   9.884  14.160
59160W        W60024  10.144   7.596  11.723
59161W        W60025   7.438   7.387  11.312
59162W        W60026   8.688   9.744  13.573
59163W        W60027   8.407   9.513  12.777
59164W        W60028   8.354   9.980  11.073
59165W        W60029   7.420  10.306  11.888
59166W        W60030   8.100   8.784  14.206
59167W        W60031   8.706   7.439  14.308
59168W        W60032   9.285   7.696  13.644
59169W        W60033   8.657   7.421  12.126
59170W        W60034   9.783   7.322  11.442
59171W        W60035   7.615   7.538  13.098
59172W        W60036   7.473   8.353  12.495
59173W        W60037  10.374   7.467  12.929
59174W        W60038   7.838   8.019  11.846
59175W        W60039  10.216   7.793  13.309
59176W        W60040  10.455   8.751  11.172
59177W        W60041   7.979   7.824  12.857
59178W        W60042   9.253   8.257  13.740
59179W        W60043   7.413   7.900  11.236
59180W        W60044   7.952   9.222  13.977
59181W        W60045   9.379   8.806  13.004
59182W        W60046   9.194  10.796  11.220
59183W        W60047   7.451   9.124  11.007
59184W        W60048   8.221   9.674  14.102
59185W        W60049   7.590   8.962  13.698
59186W        W60050   8.739   9.176  13.541
59187W        W60051  10.292   7.435  13.742
59188W        W60052  10.913   9.116  13.923
59189W        W60053  10.742   9.038  11.926
59190W        W60054   9.685   9.544  11.891
59191W        W60055  10.184  10.827  10.915
59192W        W60056   9.323   8.892  14.503
59193W        W60057   7.917   9.935  14.429
59194W        W60058  10.894   7.841  14.455
59195W        W60059  10.477   8.661  13.068
59196W        W60060   8.774  10.895  14.427
59197W        W60061   8.756   7.402  11.236
59198W        W60062  10.255   9.989  11.075
59199W        W60063   8.209   8.087  14.066
59200W        W60064   8.697  10.165  13.850
59201W        W60065  10.624   7.821  13.630
59202W        W60066  10.033  10.798  11.422
59203W        W60067  10.057   9.486  13.072
59204W        W60068   8.362   7.896  13.616
59205W        W60069   8.856   8.854  14.282
59206W        W60070   8.252   9.913  11.985
59207W        W60071  10.192   9.381  12.006
59208W        W60072   7.864   8.022  13.689
59209W        W60073   9.012  10.090  12.371
59210W        W60074  10.676   8.664  12.571
59211W        W60075   9.113   7.309  14.042
59212W        W60076   9.943   9.984  13.191
59213W        W60077  10.185  10.385  12.977
59214W        W60078   9.197  10.324  11.044
59215W        W60079   7.400  10.084  14.331
59216W        W60080   8.164   8.231  13.236
59217W        W60081   8.251   7.595  12.474
59218W        W60082   9.602   8.319  13.017
59219W        W60083   8.640   9.473  11.151
59220W        W60084  10.580   9.475  13.130
59221W        W60085   7.781  10.381  14.158
59222W        W60086  10.331  10.915  11.856
59223W        W60087   8.682   7.878  12.341
59224W        W60088   8.010   9.175  12.816
59225W        W60089   8.498  11.008  13.181
59226W        W60090  10.461  10.920  14.264
59227W        W60091   9.695   9.124  13.289
59228W        W60092   7.672   8.652  10.858
59229W        W60093  10.582  10.495  12.165
59230W        W60094  10.468   7.920  11.463
59231W        W60095   8.517   7.228  13.859
59232W        W60096  10.281  10.200  12.481
59233W        W60097  10.385   8.633  12.111
59234W        W60098   8.769   8.375  12.434
59235W        W60099   8.884   8.690  13.778
59236W        W60100   9.870   9.872  13.699
59237W        W60101   8.742   8.191  13.794
59238W        W60102   8.435  10.812  12.532
59239W        W60103   7.866  10.852  14.346
59240W        W60104   8.006  10.356  10.991
59241W        W60105  10.489   9.989  12.030
59242W        W60106   8.241   8.445  13.705
59243W        W60107  10.741   8.267  11.162
59244W        W60108   8.871   9.648  12.076
59245W        W60109   9.585   9.020  13.826
59246W        W60110   9.557   8.603  13.450
59247W        W60111   8.074   8.913  13.524
59248W        W60112  10.331  10.700  13.372
59249W        W60113  10.033   7.605  14.316
59250W        W60114   7.685   7.587  14.000
59251W        W60115   8.166   8.720  13.035
59252W        W60116   8.818   8.423  10.993
59253W        W60117   7.341  10.235  13.823
59254W        W60118   8.859   8.978  13.080
59255W        W60119   8.774   7.895  11.094
59256W        W60120   8.116   9.038  12.337
59257W        W60121   7.501  10.830  13.508
59258W        W60122  10.339   9.004  11.630
59259W        W60123  10.493   7.795  14.139
59260W        W60124  10.010   9.845  12.188
59261W        W60125   7.589   8.867  14.209
59262W        W60126  10.597   7.431  11.503
59263W        W60127  10.152   9.804  11.667
59264W        W60128   9.077   8.822  11.794
59265W        W60129  10.083   7.688  11.220
59266W        W60130  10.082   8.368  13.496
59267W        W60131   7.663   8.827  12.616
59268W        W60132   8.074   9.620  12.409
59269W        W60133   9.927   8.393  12.186
59270W        W60134   8.855   7.939  12.846
59271W        W60135  10.855   9.824  13.451
59272W        W60136  10.814   7.846  13.130
59273W        W60137   7.377  10.642  12.630
59274W        W60138   7.737   9.788  12.013
59275W        W60139   7.819   7.525  14.501
59276W        W60140   8.706  10.396  14.330
59277W        W60141  10.791   9.424  12.674
59278W        W60142   9.867   9.423  11.399
59279W        W60143   9.380  10.944  13.265
59280W        W60144  10.214   9.566  14.496
59281W        W60145   8.975   7.273  11.727
59282W        W60146   9.683   8.123  12.541
59283W        W60147   7.405   9.765  13.013
59284W        W60148   8.682   7.710  11.688
59285W        W60149   8.405   9.186  14.336
59286W        W60150   9.515   8.109  12.043
59287W        W60151   9.584   9.639  13.307
59288W        W60152   7.821  10.351  13.650
59289W        W60153   8.262  10.216  14.136
59290W        W60154   8.329   7.964  11.411
59291W        W60155   9.879   8.046  11.595
59292W        W60156   9.647  10.330  13.890
59293W        W60157   8.492   9.000  12.711
59294W        W60158   8.041  10.786  13.350
59295W        W60159  10.685  10.693  10.917
59296W        W60160   7.597   9.529  14.254
59297W        W60161   9.600   9.540  12.796
59298W        W60162   8.132   9.403  11.948
59299W        W60163   8.595  10.202  13.326
59300W        W60164   9.051   7.553  12.532
59301W        W60165   7.299   9.482  11.373
59302W        W60166   9.189   8.577  11.323
59303W        W60167   7.659   9.270  12.303
59304W        W60168   8.787   7.657  13.791
59305W        W60169  10.554   7.570  11.023
59306W        W60170  10.605   9.365  14.249
59307W        W60171   9.281  10.726  14.279
59308W        W60172  10.865   9.703  13.961
59309W        W60173  10.319  10.443  14.428
59310W        W60174   8.071  10.990  12.869
59311W        W60175  10.671   9.499  12.174
59312W        W60176   9.659   8.642  12.602
59313W        W60177   9.261   7.223  12.176
59314W        W60178   8.350  10.377  12.201
59315W        W60179   8.675   8.185  13.288
59316W        W60180   8.657   7.441  12.841
59317W        W60181   7.594  10.414  11.378
59318W        W60182   9.320   9.522  12.297
59319W        W60183   8.328  10.488  13.670
59320W        W60184   7.620   9.341  11.772
59321W        W60185   7.511   7.878  12.686
59322W        W60186   9.138   9.754  12.746
59323W        W60187   7.456   7.676  11.752
59324W        W60188   9.994   8.839  13.626
59325W        W60189   9.855   8.115  11.036
59326W        W60190  10.392   9.900  12.933
59327W        W60191   9.064  10.274  12.857
59328W        W60192   8.571  10.668  11.801
59329W        W60193   9.659   7.350  10.923
59330W        W60194   7.676  10.641  13.035
59331W        W60195   9.500   8.373  14.443
59332W        W60196   7.778   7.997  14.312
59333W        W60197   7.421   8.498  11.985
59334W        W60198   8.696   8.699  11.438
59335W        W60199   9.783   8.800  14.253
59336W        W60200   8.368   9.183  13.185
59337W        W60201   9.871   7.331  12.091
59338W        W60202   8.944  10.782  12.688
59339W        W60203  10.123  10.279  13.556
59340W        W60204   9.805  10.353  12.620
59341W        W60205   9.815   9.389  12.363
59342W        W60206   9.123   7.710  11.459
59343W        W60207  10.866   7.371  12.297
59344W        W60208   8.512   8.861  10.966
59345W        W60209  10.617   8.203  12.283
59346W        W60210   9.390   9.411  11.139
59347W        W60211  10.285   9.656  13.962
59348W        W60212   9.910  10.421  11.070
59349W        W60213   8.655   7.930  14.231
59350W        W60214   8.544   8.709  13.390
59351W        W60215  10.557  10.103  13.812
59352W        W60216   9.626   7.945  13.946
59353W        W60217   7.317   8.545  13.891
59354W        W60218   9.216   8.990  13.470
59355W        W60219   7.591   9.730  12.516
59356W        W60220   7.687   8.886  13.134
59357W        W60221  10.010   9.381  13.612
59358W        W60222   9.953  10.765  14.196
59359W        W60223   9.740   8.433  13.890
59360W        W60224  10.065  10.595  12.218
59361W        W60225   9.078  10.367  13.544
59362W        W60226   8.360  10.556  12.994
59363W        W60227  10.327   9.791  13.455
59364W        W60228   9.199   9.788  14.506
59365W        W60229   7.908   9.676  12.912
59366W        W60230  10.289   9.529  12.544
59367W        W60231   9.872  10.762  13.172
59368W        W60232   8.050  10.227  13.219
59369W        W60233   9.000   8.326  14.233
59370W        W60234   9.212  10.461  11.922
59371W        W60235   8.698   9.878  14.278
59372W        W60236   8.753  10.158  11.936
59373W        W60237   8.306   8.387  10.951
59374W        W60238   7.253  10.990  18.042
59375W        W60239   7.734   9.881  17.596
59376W        W60240  10.498   9.406  15.256
59377W        W60241  10.687  10.610  17.441
59378W        W60242   8.323  10.654  14.597
59379W        W60243   8.756   8.759  15.644
59380W        W60244   8.240   8.774  16.288
59381W        W60245   9.062   9.087  15.352
59382W        W60246   8.769  10.619  17.639
59383W        W60247   7.299   8.027  17.598
59384W        W60248   8.091   7.143  17.445
59385W        W60249   9.790   7.724  16.224
59386W        W60250   9.788   8.578  14.941
59387W        W60251  10.005   8.187  17.822
59388W        W60252   7.393   7.702  17.168
59389W        W60253   7.457  10.544  18.194
59390W        W60254   8.498  10.118  15.163
59391W        W60255   7.466   8.428  16.670
59392W        W60256   8.503   8.691  17.799
59393W        W60257  10.502   8.178  16.422
59394W        W60258  10.599   9.345  17.162
59395W        W60259   9.163   8.635  16.304
59396W        W60260   9.557  10.109  16.621
59397W        W60261   7.818   9.410  16.943
59398W        W60262   7.171   8.856  16.592
59399W        W60263   8.491   9.083  17.428
59400W        W60264  10.657   8.817  17.940
59401W        W60265   8.173  10.087  16.344
59402W        W60266   9.348   9.965  17.325
59403W        W60267   8.664   8.610  16.564
59404W        W60268   8.827   9.432  16.240
59405W        W60269   9.589  10.284  18.063
59406W        W60270   8.966   9.423  18.109
59407W        W60271   8.968   9.238  17.609
59408W        W60272   7.148   8.347  17.968
59409W        W60273  10.059  10.042  17.838
59410W        W60274   7.627   7.427  15.745
59411W        W60275   8.213   9.857  16.864
59412W        W60276  10.573   9.796  16.186
59413W        W60277   9.980   8.113  16.515
59414W        W60278  10.299   7.949  14.619
59415W        W60279  10.868   8.851  17.059
59416W        W60280   8.908  10.486  16.790
59417W        W60281  10.846   9.790  15.326
59418W        W60282   7.711  10.888  15.356
59419W        W60283   8.073  10.822  15.746
59420W        W60284   7.893   7.563  17.228
59421W        W60285  10.404   8.682  17.220
59422W        W60286  10.108   9.006  15.990
59423W        W60287  10.213   8.870  14.966
59424W        W60288   9.114   9.989  16.874
59425W        W60289   9.013   8.034  16.012
59426W        W60290   9.443  10.391  17.064
59427W        W60291  10.453   9.482  15.772
59428W        W60292   9.476   7.613  15.431
59429W        W60293   7.905  10.411  15.473
59430W        W60294   7.311   7.943  15.690
59431W        W60295  10.174   8.562  16.295
59432W        W60296   7.636  10.180  16.431
59433W        W60297   8.719  10.491  14.855
59434W        W60298  10.115   8.525  14.557
59435W        W60299   7.430  10.293  16.953
59436W        W60300   8.192   9.982  17.353
59437W        W60301   8.708   9.279  15.752
59438W        W60302   8.248   7.689  16.858
59439W        W60303  10.781   7.436  16.466
59440W        W60304   8.421   9.620  14.621
59441W        W60305   7.653   7.928  14.805
59442W        W60306   7.747  10.162  15.921
59443W        W60307   8.497   9.736  15.952
59444W        W60308  10.255  10.560  17.744
59445W        W60309   9.388   8.260  14.999
59446W        W60310  10.496  10.759  16.254
59447W        W60311  10.135   8.658  17.664
59448W        W60312  11.005  10.150  15.962
59449W        W60313   9.526   9.452  17.390
59450W        W60314   7.401   9.010  15.796
59451W        W60315   8.429   9.436  17.047
59452W        W60316   9.560   8.551  15.414
59453W        W60317   9.643   8.891  15.803
59454W        W60318   7.771   8.504  17.138
59455W        W60319   7.824   8.585  17.740
59456W        W60320   7.619   7.476  16.244
59457W        W60321   9.321   7.808  16.457
59458W        W60322   9.093   7.924  17.716
59459W        W60323   9.507   7.756  14.930
59460W        W60324  10.732  10.429  17.960
59461W        W60325   9.526   7.538  17.694
59462W        W60326  10.560   9.920  18.053
59463W        W60327  10.097   7.844  17.455
59464W        W60328   9.785   7.917  15.741
59465W        W60329  10.219   9.055  18.053
59466W        W60330   7.966  10.571  16.252
59467W        W60331   8.895   8.088  15.082
59468W        W60332   8.120   7.585  17.761
59469W        W60333  10.233   8.115  15.530
59470W        W60334  10.569   8.464  15.345
59471W        W60335   8.328  10.807  17.868
59472W        W60336   8.285   7.239  15.156
59473W        W60337  10.610   7.767  16.122
59474W        W60338  10.776  10.226  14.685
59475W        W60339   7.521   9.291  16.504
59476W        W60340   9.569   7.822  14.428
59477W        W60341  10.745  10.260  16.393
59478W        W60342  10.678   7.404  16.983
59479W        W60343   9.302   8.864  17.752
59480W        W60344   9.052   9.596  15.538
59481W        W60345   9.792   9.253  18.250
59482W        W60346   9.436   7.326  16.275
59483W        W60347   7.886   8.312  16.396
59484W        W60348   7.511   9.486  17.347
59485W        W60349   9.358  10.514  16.076
59486W        W60350  10.305   8.197  16.933
59487W        W60351   9.364  10.705  17.487
59488W        W60352  10.530   9.230  14.758
59489W        W60353   9.147   9.014  15.869
59490W        W60354  10.749   7.333  17.495
59491W        W60355   9.043   9.569  17.215
59492W        W60356   8.972   8.199  16.498
59493W        W60357  10.064   8.579  15.381
59494W        W60358  10.237   8.288  15.002
59495W        W60359  10.256  10.371  15.566
59496W        W60360  10.032   9.934  16.406
59497W        W60361   9.806   9.008  15.263
59498W        W60362   9.440   9.110  16.287
59499W        W60363  10.422   9.014  16.403
59500W        W60364   7.799   8.048  16.860
59501W        W60365  10.359   9.102  17.566
59502W        W60366  10.776  10.641  16.735
59503W        W60367   8.641  10.250  16.159
59504W        W60368   9.884  10.730  17.332
59505W        W60369   9.740   7.997  16.952
59506W        W60370   8.981  10.852  17.182
59507W        W60371  10.575   7.747  15.614
59508W        W60372  10.252   9.064  16.892
59509W        W60373   7.335   8.208  17.121
59510W        W60374  10.180   8.075  16.042
59511W        W60375  10.429   8.242  17.474
59512W        W60376   9.582   9.912  16.135
59513W        W60377   8.885  10.572  15.822
59514W        W60378   8.032   7.634  14.979
59515W        W60379   9.073   7.368  16.654
59516W        W60380   7.902  10.882  14.854
59517W        W60381   8.562   9.130  15.266
59518W        W60382   9.035   9.751  17.692
59519W        W60383   8.967   7.699  15.593
59520W        W60384  10.169   7.576  15.905
59521W        W60385  10.017  10.899  16.420
59522W        W60386   9.377  10.609  16.593
59523W        W60387   8.819   9.552  16.743
59524W        W60388  10.603  10.267  17.052
59525W        W60389   8.106   7.591  15.509
59526W        W60390   8.646  10.042  16.628
59527W        W60391   8.228   7.872  14.549
59528W        W60392   9.060   8.627  16.916
59529W        W60393   9.775   7.492  16.692
59530W        W60394   7.337   9.210  16.967
59531W        W60395   8.885   8.993  14.832
59532W        W60396   8.304   7.372  14.619
59533W        W60397   9.211   8.502  15.809
59534W        W60398   9.762   7.551  17.219
59535W        W60399   8.571   9.597  17.518
59536W        W60400   9.415   9.361  17.894
59537W        W60401   9.887   9.511  17.776
59538W        W60402   9.131   7.617  18.132
59539W        W60403   8.364   8.151  16.593
59540W        W60404   7.747   7.894  15.977
59541W        W60405   7.599  10.674  15.896
59542W        W60406   9.179  10.263  17.735
59543W        W60407   7.984  10.077  15.061
59544W        W60408   9.920   9.041  16.479
59545W        W60409   9.951   8.574  16.770
59546W        W60410   9.290   9.351  16.824
59547W        W60411   9.715   9.587  14.602
59548W        W60412   9.367   7.699  15.928
59549W        W60413  10.887   8.051  15.347
59550W        W60414   7.469  10.679  17.669
59551W        W60415   7.728   9.896  17.069
59552W        W60416   7.245  10.876  15.573
59553W        W60417   9.206   8.011  16.930
59554W        W60418   8.216  10.538  15.075
59555W        W60419  10.660  10.267  15.235
59556W        W60420   9.369   8.851  15.010
59557W        W60421   8.803   8.219  15.579
59558W        W60422   9.124   8.012  14.624
59559W        W60423   9.529   9.862  17.775
59560W        W60424  10.034   7.632  15.399
59561W        W60425   7.439   7.426  14.890
59562W        W60426   8.670   9.900  17.124
59563W        W60427   8.384   9.612  16.462
59564W        W60428   8.364  10.142  14.651
59565W        W60429   7.386  10.387  15.531
59566W        W60430   8.076   9.045  17.755
59567W        W60431   8.628   7.588  17.954
59568W        W60432   9.260   7.612  17.255
59569W        W60433   8.573   7.404  15.802
59570W        W60434   9.686   7.289  15.094
59571W        W60435   7.677   7.551  16.753
59572W        W60436   7.447   8.313  16.097
59573W        W60437  10.253   7.628  16.449
59574W        W60438   7.643   7.769  15.307
59575W        W60439  10.189   7.703  16.948
59576W        W60440  10.601   8.687  14.676
59577W        W60441   7.989   7.799  16.428
59578W        W60442   9.120   8.291  17.350
59579W        W60443   7.177   7.865  15.018
59580W        W60444   8.049   9.457  17.417
59581W        W60445   9.486   8.835  16.719
59582W        W60446   9.115  10.825  14.830
59583W        W60447   7.296   9.117  14.584
59584W        W60448   8.192   9.778  17.824
59585W        W60449   7.709   8.984  17.356
59586W        W60450   8.865   9.119  17.058
59587W        W60451  10.258   7.361  17.324
59588W        W60452  10.863   9.106  17.538
59589W        W60453  10.697   8.927  15.150
59590W        W60454   9.491   9.308  15.549
59591W        W60455  10.158  10.881  14.682
59592W        W60456   9.356   8.974  18.254
59593W        W60457   7.787   9.858  18.138
59594W        W60458  10.916   7.909  18.094
59595W        W60459  10.498   8.620  16.718
59596W        W60460   8.780  10.863  18.116
59597W        W60461   8.729   7.239  14.857
59598W        W60462  10.576   9.745  14.857
59599W        W60463   8.172   8.217  17.673
59600W        W60464   8.643  10.109  17.610
59601W        W60465  10.584   7.808  17.273
59602W        W60466  10.316  10.645  15.123
59603W        W60467  10.106   9.573  16.796
59604W        W60468   8.312   7.833  17.367
59605W        W60469   8.889   8.910  18.053
59606W        W60470   8.140   9.932  15.562
59607W        W60471  10.015   9.429  15.509
59608W        W60472   7.779   8.046  17.382
59609W        W60473   8.987   9.902  15.996
59610W        W60474  10.685   8.605  16.208
59611W        W60475   9.023   7.407  17.663
59612W        W60476   9.998  10.082  16.895
59613W        W60477  10.291  10.417  16.602
59614W        W60478   9.149  10.327  14.589
59615W        W60479   7.381  10.094  17.953
59616W        W60480   8.223   8.242  17.097
59617W        W60481   8.093   7.474  16.022
59618W        W60482   9.481   8.315  16.610
59619W        W60483   8.829   9.494  14.971
59620W        W60484  10.581   9.439  16.644
59621W        W60485   7.829  10.341  17.815
59622W        W60486  10.397  10.892  15.590
59623W        W60487   8.480   7.753  16.257
59624W        W60488   8.032   9.195  16.537
59625W        W60489   8.561  10.857  16.894
59626W        W60490  10.601  10.927  17.872
59627W        W60491   9.753   9.219  16.930
59628W        W60492   7.445   8.393  14.375
59629W        W60493  10.682  10.519  15.833
59630W        W60494  10.446   7.809  15.115
59631W        W60495   8.548   7.387  17.467
59632W        W60496  10.318  10.255  16.105
59633W        W60497  10.347   8.591  15.810
59634W        W60498   8.720   8.437  16.074
59635W        W60499   8.906   8.757  17.428
59636W        W60500   9.881   9.859  17.377
59637W        W60501   8.613   8.327  17.439
59638W        W60502   8.450  10.731  16.081
59639W        W60503   7.840  10.831  18.005
59640W        W60504   7.901  10.394  14.658
59641W        W60505  10.579  10.010  15.716
59642W        W60506   8.185   8.662  17.399
59643W        W60507  10.723   8.178  14.835
59644W        W60508   8.562   9.659  15.411
59645W        W60509   9.774   9.043  17.648
59646W        W60510   9.525   8.474  17.100
59647W        W60511   8.133   9.026  17.044
59648W        W60512  10.331  10.721  17.028
59649W        W60513  10.018   7.676  17.951
59650W        W60514   7.606   7.619  17.658
59651W        W60515   8.133   8.604  16.755
59652W        W60516   8.628   8.249  14.616
59653W        W60517   7.362  10.211  17.461
59654W        W60518   9.007   9.034  16.568
59655W        W60519   8.691   7.740  14.734
59656W        W60520   8.329   9.257  16.115
59657W        W60521   7.527  10.797  17.166
59658W        W60522  10.322   9.004  15.506
59659W        W60523  10.514   7.788  17.787
59660W        W60524  10.095   9.827  15.895
59661W        W60525   7.461   8.934  17.879
59662W        W60526  10.682   7.301  15.138
59663W        W60527  10.297   9.871  15.313
59664W        W60528   9.072   8.548  15.291
59665W        W60529  10.006   7.626  14.869
59666W        W60530   9.968   8.322  17.292
59667W        W60531   7.584   8.796  16.285
59668W        W60532   7.995   9.709  16.020
59669W        W60533   9.860   8.420  15.827
59670W        W60534   8.758   7.773  16.715
59671W        W60535  10.853   9.772  17.007
59672W        W60536  10.684   7.860  16.764
59673W        W60537   7.281  10.665  16.302
59674W        W60538   7.393   9.899  15.641
59675W        W60539   7.748   7.604  18.171
59676W        W60540   8.800  10.340  18.080
59677W        W60541  10.905   9.368  16.240
59678W        W60542  10.072   9.388  14.974
59679W        W60543   9.480  10.913  17.007
59680W        W60544  10.205   9.564  18.158
59681W        W60545   8.830   7.218  15.372
59682W        W60546   9.505   8.170  16.113
59683W        W60547   7.380   9.772  16.652
59684W        W60548   8.571   7.654  15.245
59685W        W60549   8.522   9.281  17.908
59686W        W60550   9.317   8.093  15.513
59687W        W60551   9.614   9.726  16.953
59688W        W60552   7.817  10.362  17.297
59689W        W60553   8.307  10.272  17.983
59690W        W60554   8.361   8.064  15.013
59691W        W60555   9.799   8.096  15.257
59692W        W60556   9.684  10.303  17.546
59693W        W60557   8.727   8.935  16.156
59694W        W60558   8.093  10.719  17.058
59695W        W60559  10.652  10.721  14.722
59696W        W60560   7.684   9.414  17.828
59697W        W60561   9.699   9.522  16.483
59698W        W60562   8.187   9.401  15.647
59699W        W60563   8.458  10.348  17.033
59700W        W60564   8.943   7.544  16.182
59701W        W60565   7.274   9.591  15.242
59702W        W60566   9.045   8.521  14.726
59703W        W60567   7.805   9.226  16.078
59704W        W60568   8.811   7.841  17.278
59705W        W60569  10.536   7.518  14.682
59706W        W60570  10.651   9.359  17.952
59707W        W60571   9.263  10.727  17.997
59708W        W60572  10.839   9.662  17.521
59709W        W60573  10.298  10.348  18.225
59710W        W60574   8.103  10.931  16.606
59711W        W60575  10.933   9.654  15.814
59712W        W60576   9.675   8.643  16.261
59713W        W60577   9.153   7.239  15.805
59714W        W60578   8.225  10.328  15.872
59715W        W60579   8.729   8.235  16.952
59716W        W60580   8.574   7.309  16.522
59717W        W60581   7.578  10.485  15.049
59718W        W60582   9.281   9.492  15.992
59719W        W60583   8.278  10.473  17.495
59720W        W60584   7.658   9.468  15.652
59721W        W60585   7.468   7.940  16.456
59722W        W60586   9.220   9.709  16.455
59723W        W60587   7.221   7.508  15.418
59724W        W60588   9.901   8.828  17.215
59725W        W60589   9.831   8.111  14.745
59726W        W60590  10.472   9.936  16.679
59727W        W60591   9.098  10.207  16.399
59728W        W60592   8.481  10.624  15.507
59729W        W60593   9.645   7.335  14.576
59730W        W60594   7.655  10.660  16.670
59731W        W60595   9.401   8.458  18.125
59732W        W60596   7.720   8.082  17.902
59733W        W60597   7.310   8.506  15.632
59734W        W60598   8.625   8.549  15.057
59735W        W60599   9.793   8.760  18.074
59736W        W60600   8.514   9.106  16.646
59737W        W60601   9.717   7.343  15.822
59738W        W60602   8.916  10.695  16.321
59739W        W60603  10.161  10.299  17.319
59740W        W60604   9.832  10.417  16.320
59741W        W60605   9.780   9.397  15.983
59742W        W60606   9.058   7.588  15.081
59743W        W60607  10.900   7.380  15.916
59744W        W60608   8.472   8.744  14.602
59745W        W60609  10.654   8.203  15.849
59746W        W60610   9.299   9.323  14.794
59747W        W60611  10.349   9.641  17.648
59748W        W60612  10.291  10.179  14.873
59749W        W60613   8.618   8.094  17.902
59750W        W60614   8.551   8.710  17.052
59751W        W60615  10.561  10.116  17.576
59752W        W60616   9.568   8.007  17.448
59753W        W60617   7.369   8.540  17.541
59754W        W60618   9.362   8.974  17.227
59755W        W60619   7.492   9.661  16.127
59756W        W60620   7.700   8.890  16.788
59757W        W60621  10.058   9.389  17.287
59758W        W60622   9.771  10.728  17.842
59759W        W60623   9.624   8.497  17.631
59760W        W60624  10.083  10.687  15.949
59761W        W60625   8.965  10.319  17.265
59762W        W60626   8.413  10.513  16.544
59763W        W60627  10.364   9.821  17.175
59764W        W60628   9.173   9.915  18.160
59765W        W60629   7.864   9.699  16.515
59766W        W60630  10.197   9.456  16.277
59767W        W60631   9.856  10.590  16.822
59768W        W60632   7.983  10.296  16.794
59769W        W60633   8.984   8.441  17.832
59770W        W60634   8.921  10.410  15.319
59771W        W60635   8.654   9.825  18.038
59772W        W60636   8.646  10.126  15.654
59773W        W60637   8.114   8.364  14.495
59774W        W60638   7.346  10.909  21.666
59775W        W60639   7.787   9.707  21.236
59776W        W60640  10.485   9.463  18.979
59777W        W60641  10.816  10.554  20.818
59778W        W60642   8.344  10.658  18.360
59779W        W60643   8.540   8.907  19.316
59780W        W60644   8.012   8.999  20.042
59781W        W60645   9.093   9.277  19.125
59782W        W60646   8.779  10.569  21.198
59783W        W60647   7.347   7.996  21.287
59784W        W60648   7.984   7.318  21.110
59785W        W60649   9.776   7.746  19.869
59786W        W60650   9.628   8.608  18.583
59787W        W60651  10.053   8.101  21.506
59788W        W60652   7.549   7.691  20.894
59789W        W60653   7.572  10.405  21.739
59790W        W60654   8.734  10.048  18.510
59791W        W60655   7.440   8.439  20.332
59792W        W60656   8.494   8.522  21.509
59793W        W60657  10.580   8.147  20.067
59794W        W60658  10.548   9.336  20.774
59795W        W60659   9.018   8.774  19.979
59796W        W60660   9.527  10.033  20.254
59797W        W60661   7.958   9.337  20.433
59798W        W60662   7.220   8.892  20.169
59799W        W60663   8.449   8.947  21.220
59800W        W60664  10.546   8.722  21.417
59801W        W60665   8.168  10.080  19.930
59802W        W60666   9.370   9.955  21.029
59803W        W60667   8.656   8.625  20.298
59804W        W60668   8.821   9.288  20.002
59805W        W60669   9.731  10.380  21.731
59806W        W60670   9.027   9.350  21.812
59807W        W60671   8.967   9.181  21.313
59808W        W60672   7.223   8.328  21.657
59809W        W60673  10.159  10.097  21.420
59810W        W60674   7.689   7.496  19.368
59811W        W60675   8.277   9.780  20.398
59812W        W60676  10.676   9.703  19.809
59813W        W60677  10.089   8.160  20.249
59814W        W60678  10.315   8.030  18.219
59815W        W60679  10.951   8.806  20.701
59816W        W60680   8.905  10.549  20.369
59817W        W60681  10.686   9.956  18.972
59818W        W60682   7.770  10.938  19.004
59819W        W60683   8.109  10.859  19.397
59820W        W60684   7.977   7.540  20.636
59821W        W60685  10.492   8.646  20.887
59822W        W60686   9.972   8.982  19.560
59823W        W60687  10.059   8.883  18.528
59824W        W60688   9.135   9.901  20.557
59825W        W60689   9.036   8.103  19.722
59826W        W60690   9.582  10.299  20.706
59827W        W60691  10.460   9.160  19.440
59828W        W60692   9.449   7.741  19.027
59829W        W60693   7.936  10.464  19.086
59830W        W60694   7.338   7.907  19.597
59831W        W60695  10.121   8.561  19.875
59832W        W60696   7.599  10.154  20.014
59833W        W60697   8.751  10.552  18.648
59834W        W60698  10.239   8.540  18.146
59835W        W60699   7.407  10.189  20.497
59836W        W60700   8.057   9.978  20.871
59837W        W60701   8.605   9.409  19.547
59838W        W60702   8.398   7.807  20.519
59839W        W60703  10.792   7.420  20.142
59840W        W60704   8.091   9.407  18.167
59841W        W60705   7.666   8.012  18.470
59842W        W60706   7.792  10.182  19.541
59843W        W60707   8.472   9.907  19.522
59844W        W60708  10.407  10.577  21.142
59845W        W60709   9.320   8.224  18.782
59846W        W60710  10.577  10.644  19.766
59847W        W60711  10.064   8.575  21.249
59848W        W60712  10.857  10.030  19.457
59849W        W60713   9.503   9.449  21.036
59850W        W60714   7.276   9.012  19.282
59851W        W60715   8.281   9.452  20.799
59852W        W60716   9.488   8.629  19.093
59853W        W60717   9.461   9.037  19.445
59854W        W60718   7.756   8.514  20.742
59855W        W60719   7.724   8.425  21.437
59856W        W60720   7.606   7.536  19.873
59857W        W60721   9.317   7.855  20.086
59858W        W60722   9.157   7.873  21.444
59859W        W60723   9.505   7.851  18.488
59860W        W60724  10.737  10.444  21.510
59861W        W60725   9.621   7.295  21.209
59862W        W60726  10.546  10.020  21.770
59863W        W60727  10.165   7.894  21.043
59864W        W60728   9.815   7.927  19.368
59865W        W60729  10.230   9.045  21.662
59866W        W60730   7.934  10.550  19.878
59867W        W60731   8.805   8.228  18.740
59868W        W60732   8.239   7.573  21.504
59869W        W60733  10.239   8.161  19.169
59870W        W60734  10.580   8.536  18.960
59871W        W60735   8.370  10.804  21.460
59872W        W60736   8.207   7.296  18.789
59873W        W60737  10.618   7.736  19.768
59874W        W60738  10.768  10.195  18.466
59875W        W60739   7.565   9.296  20.089
59876W        W60740   9.540   7.965  17.982
59877W        W60741  10.773  10.196  19.952
59878W        W60742  10.810   7.384  20.692
59879W        W60743   9.311   8.766  21.402
59880W        W60744   8.822   9.711  19.187
59881W        W60745   9.822   9.281  21.892
59882W        W60746   9.384   7.365  19.899
59883W        W60747   7.881   8.297  20.115
59884W        W60748   7.693   9.310  20.900
59885W        W60749   9.334  10.435  19.710
59886W        W60750  10.502   8.186  20.619
59887W        W60751   9.333  10.599  21.108
59888W        W60752  10.461   9.256  18.483
59889W        W60753   8.963   9.038  19.561
59890W        W60754  10.890   7.444  21.215
59891W        W60755   8.993   9.582  20.947
59892W        W60756   9.090   8.328  20.203
59893W        W60757   9.987   8.581  18.988
59894W        W60758  10.231   8.366  18.616
59895W        W60759  10.431  10.307  19.281
59896W        W60760   9.938   9.851  19.981
59897W        W60761   9.792   9.047  19.044
59898W        W60762   9.334   9.168  19.957
59899W        W60763  10.373   9.003  19.935
59900W        W60764   7.771   8.016  20.529
59901W        W60765  10.301   9.080  21.159
59902W        W60766  10.784  10.586  20.287
59903W        W60767   8.631  10.287  19.867
59904W        W60768   9.870  10.693  20.925
59905W        W60769   9.601   8.066  20.857
59906W        W60770   8.951  10.854  20.798
59907W        W60771  10.545   7.735  19.255
59908W        W60772  10.268   9.058  20.435
59909W        W60773   7.348   8.166  20.770
59910W        W60774  10.160   8.068  19.730
59911W        W60775  10.508   8.240  21.230
59912W        W60776   9.460   9.908  19.763
59913W        W60777   8.763  10.548  19.448
59914W        W60778   7.731   7.556  18.799
59915W        W60779   9.094   7.480  20.355
59916W        W60780   7.882  10.857  18.509
59917W        W60781   8.601   9.278  18.948
59918W        W60782   9.180   9.672  21.420
59919W        W60783   8.968   7.788  19.251
59920W        W60784  10.161   7.579  19.563
59921W        W60785  10.193  10.905  20.078
59922W        W60786   9.399  10.537  20.232
59923W        W60787   8.746   9.538  20.462
59924W        W60788  10.539  10.208  20.583
59925W        W60789   8.132   7.656  19.165
59926W        W60790   8.681  10.091  20.377
59927W        W60791   8.163   7.950  18.127
59928W        W60792   9.048   8.581  20.667
59929W        W60793   9.654   7.505  20.318
59930W        W60794   7.321   9.278  20.561
59931W        W60795   8.918   9.121  18.537
59932W        W60796   8.234   7.456  18.261
59933W        W60797   9.220   8.581  19.551
59934W        W60798   9.828   7.582  20.817
59935W        W60799   8.556   9.504  21.216
59936W        W60800   9.450   9.249  21.516
59937W        W60801   9.924   9.388  21.383
59938W        W60802   9.171   7.588  21.884
59939W        W60803   8.377   8.200  20.197
59940W        W60804   7.835   7.971  19.702
59941W        W60805   7.624  10.682  19.465
59942W        W60806   9.262  10.206  21.487
59943W        W60807   7.791  10.022  18.754
59944W        W60808   9.890   9.115  20.062
59945W        W60809   9.903   8.665  20.335
59946W        W60810   9.265   9.409  20.549
59947W        W60811   9.729   9.772  18.228
59948W        W60812   9.367   7.753  19.569
59949W        W60813  10.836   8.082  19.020
59950W        W60814   7.514  10.616  21.249
59951W        W60815   7.670   9.741  20.612
59952W        W60816   7.297  10.814  19.084
59953W        W60817   9.173   7.961  20.574
59954W        W60818   8.275  10.281  18.725
59955W        W60819  10.709  10.518  18.900
59956W        W60820   9.366   9.021  18.768
59957W        W60821   8.866   8.311  19.269
59958W        W60822   9.068   8.111  18.278
59959W        W60823   9.667   9.852  21.543
59960W        W60824  10.079   7.631  19.025
59961W        W60825   7.388   7.358  18.478
59962W        W60826   8.568   9.884  20.828
59963W        W60827   8.666   9.783  19.972
59964W        W60828   8.247   9.907  18.357
59965W        W60829   7.441  10.294  19.150
59966W        W60830   8.044   8.835  21.544
59967W        W60831   8.730   7.498  21.633
59968W        W60832   9.302   7.660  20.979
59969W        W60833   8.595   7.427  19.399
59970W        W60834   9.687   7.401  18.720
59971W        W60835   7.516   7.573  20.402
59972W        W60836   7.480   8.377  19.795
59973W        W60837  10.232   7.641  20.086
59974W        W60838   7.470   7.889  19.106
59975W        W60839  10.348   7.662  20.586
59976W        W60840  10.563   8.753  18.475
59977W        W60841   8.022   7.773  20.151
59978W        W60842   9.111   8.205  21.033
59979W        W60843   7.218   7.788  18.674
59980W        W60844   8.067   9.271  21.247
59981W        W60845   9.396   8.764  20.333
59982W        W60846   9.143  10.884  18.516
59983W        W60847   7.320   9.280  18.257
59984W        W60848   8.333   9.990  21.313
59985W        W60849   7.697   8.850  21.131
59986W        W60850   8.719   9.154  20.845
59987W        W60851  10.395   7.406  21.035
59988W        W60852  10.834   9.069  21.123
59989W        W60853  10.790   9.054  18.840
59990W        W60854   9.553   9.504  19.202
59991W        W60855  10.173  10.870  18.178
59992W        W60856   9.357   8.958  21.925
59993W        W60857   7.852   9.956  21.742
59994W        W60858  10.938   7.825  21.773
59995W        W60859  10.424   8.589  20.306
59996W        W60860   8.812  10.781  21.707
59997W        W60861   8.685   7.400  18.510
59998W        W60862  10.426   9.784  18.557
59999W        W60863   8.142   8.104  21.426
60000W        W60864   8.870  10.033  21.202
60001W        W60865  10.676   7.828  20.949
60002W        W60866  10.275  10.787  18.737
60003W        W60867  10.084   9.523  20.353
60004W        W60868   8.240   7.792  21.019
60005W        W60869   8.896   8.824  21.718
60006W        W60870   8.113   9.995  19.168
60007W        W60871  10.055   9.413  19.276
60008W        W60872   7.808   8.106  21.042
60009W        W60873   8.976  10.047  19.564
60010W        W60874  10.717   8.692  19.737
60011W        W60875   9.161   7.355  21.401
60012W        W60876  10.001  10.095  20.428
60013W        W60877  10.311  10.414  20.164
60014W        W60878   9.188  10.378  18.405
60015W        W60879   7.369   9.976  21.486
60016W        W60880   8.205   8.236  20.713
60017W        W60881   8.126   7.538  19.697
60018W        W60882   9.578   8.256  20.363
60019W        W60883   8.548   9.470  18.416
60020W        W60884  10.577   9.401  20.216
60021W        W60885   7.811  10.209  21.300
60022W        W60886  10.525  10.847  19.248
60023W        W60887   8.502   7.907  19.769
60024W        W60888   8.294   9.433  20.005
60025W        W60889   8.555  10.899  20.470
60026W        W60890  10.456  10.907  21.536
60027W        W60891   9.691   9.129  20.546
60028W        W60892   7.587   8.488  18.195
60029W        W60893  10.900  10.525  19.389
60030W        W60894  10.421   7.919  18.743
60031W        W60895   8.516   7.346  21.122
60032W        W60896  10.305  10.123  19.745
60033W        W60897  10.326   8.641  19.396
60034W        W60898   8.664   8.429  19.812
60035W        W60899   8.876   8.680  21.148
60036W        W60900   9.893   9.817  21.084
60037W        W60901   8.570   8.225  21.098
60038W        W60902   8.407  10.741  19.801
60039W        W60903   7.861  10.796  21.567
60040W        W60904   7.920  10.344  18.334
60041W        W60905  10.408   9.772  19.387
60042W        W60906   8.129   8.538  21.123
60043W        W60907  10.724   8.258  18.451
60044W        W60908   8.428   9.769  18.834
60045W        W60909   9.706   8.983  21.151
60046W        W60910   9.558   8.589  20.816
60047W        W60911   8.087   8.966  20.803
60048W        W60912  10.343  10.689  20.635
60049W        W60913  10.070   7.487  21.413
60050W        W60914   7.756   7.696  21.369
60051W        W60915   8.146   8.646  20.401
60052W        W60916   8.674   8.464  18.264
60053W        W60917   7.443  10.024  20.983
60054W        W60918   8.959   9.029  20.419
60055W        W60919   8.611   7.891  18.387
60056W        W60920   8.154   9.170  19.575
60057W        W60921   7.512  10.844  20.775
60058W        W60922  10.300   8.987  18.976
60059W        W60923  10.515   7.763  21.453
60060W        W60924   9.906   9.871  19.471
60061W        W60925   7.401   8.807  21.556
60062W        W60926  10.563   7.440  18.816
60063W        W60927  10.117   9.839  18.976
60064W        W60928   9.002   8.776  19.076
60065W        W60929  10.013   7.724  18.490
60066W        W60930  10.030   8.329  20.754
60067W        W60931   7.569   8.884  19.774
60068W        W60932   8.013   9.690  19.618
60069W        W60933   9.830   8.453  19.454
60070W        W60934   8.808   7.903  20.197
60071W        W60935  10.813   9.783  20.721
60072W        W60936  10.847   7.848  20.445
60073W        W60937   7.355  10.586  19.898
60074W        W60938   7.633   9.806  19.237
60075W        W60939   7.836   7.543  21.855
60076W        W60940   8.663  10.281  21.602
60077W        W60941  10.830   9.216  19.791
60078W        W60942  10.024   9.388  18.717
60079W        W60943   9.442  10.824  20.652
60080W        W60944  10.270   9.560  21.732
60081W        W60945   8.943   7.328  18.959
60082W        W60946   9.547   8.214  19.806
60083W        W60947   7.329   9.740  20.222
60084W        W60948   8.579   7.703  18.910
60085W        W60949   8.555   9.215  21.645
60086W        W60950   9.371   8.175  19.294
60087W        W60951   9.675   9.737  20.641
60088W        W60952   7.747  10.401  20.830
60089W        W60953   8.149  10.376  21.639
60090W        W60954   8.148   7.803  18.630
60091W        W60955   9.829   8.087  18.846
60092W        W60956   9.719  10.289  21.226
60093W        W60957   8.505   8.922  19.875
60094W        W60958   8.106  10.698  20.639
60095W        W60959  10.667  10.705  18.404
60096W        W60960   7.570   9.271  21.430
60097W        W60961   9.611   9.524  20.186
60098W        W60962   8.105   9.477  19.154
60099W        W60963   8.553  10.443  20.736
60100W        W60964   8.923   7.600  19.794
60101W        W60965   7.348   9.663  18.625
60102W        W60966   9.097   8.621  18.530
60103W        W60967   7.669   9.302  19.490
60104W        W60968   8.783   7.771  20.907
60105W        W60969  10.525   7.576  18.299
60106W        W60970  10.682   9.259  21.571
60107W        W60971   9.327  10.711  21.614
60108W        W60972  10.870   9.602  21.199
60109W        W60973  10.266  10.457  21.771
60110W        W60974   8.106  10.944  20.194
60111W        W60975  10.845   9.512  19.352
60112W        W60976   9.612   8.728  19.861
60113W        W60977   9.137   7.300  19.435
60114W        W60978   8.270  10.374  19.481
60115W        W60979   8.716   8.205  20.605
60116W        W60980   8.509   7.498  20.107
60117W        W60981   7.576  10.494  18.703
60118W        W60982   9.144   9.520  19.598
60119W        W60983   8.216  10.457  21.112
60120W        W60984   7.562   9.361  18.989
60121W        W60985   7.440   7.974  20.103
60122W        W60986   9.142   9.663  20.103
60123W        W60987   7.277   7.380  19.038
60124W        W60988  10.024   8.833  20.803
60125W        W60989   9.838   8.220  18.318
60126W        W60990  10.420   9.891  20.206
60127W        W60991   9.078  10.165  20.064
60128W        W60992   8.444  10.667  19.057
60129W        W60993   9.632   7.452  18.200
60130W        W60994   7.676  10.634  20.324
60131W        W60995   9.443   8.456  21.820
60132W        W60996   7.694   8.037  21.759
60133W        W60997   7.365   8.497  19.316
60134W        W60998   8.623   8.739  18.727
60135W        W60999   9.775   8.811  21.643
60136W        W61000   8.432   9.100  20.397
60137W        W61001   9.698   7.401  19.421
60138W        W61002   8.935  10.724  19.899
60139W        W61003  10.114  10.247  20.894
60140W        W61004   9.817  10.352  19.963
60141W        W61005   9.704   9.435  19.689
60142W        W61006   9.041   7.758  18.675
60143W        W61007  10.869   7.356  19.530
60144W        W61008   8.422   8.940  18.277
60145W        W61009  10.607   8.205  19.528
60146W        W61010   9.352   9.458  18.446
60147W        W61011  10.359   9.601  21.215
60148W        W61012  10.310  10.257  18.739
60149W        W61013   8.629   7.997  21.567
60150W        W61014   8.514   8.665  20.783
60151W        W61015  10.569  10.072  21.107
60152W        W61016   9.684   7.800  21.291
60153W        W61017   7.293   8.503  21.153
60154W        W61018   9.240   9.012  20.894
60155W        W61019   7.512   9.698  19.749
60156W        W61020   7.684   8.909  20.427
60157W        W61021  10.010   9.368  20.857
60158W        W61022   9.990  10.713  21.421
60159W        W61023   9.575   8.317  21.327
60160W        W61024  10.104  10.610  19.615
60161W        W61025   9.046  10.324  20.806
60162W        W61026   8.344  10.473  20.244
60163W        W61027  10.290   9.788  20.736
60164W        W61028   9.121   9.861  21.910
60165W        W61029   7.854   9.723  20.121
60166W        W61030  10.215   9.469  19.792
60167W        W61031   9.885  10.610  20.413
60168W        W61032   7.940  10.182  20.401
60169W        W61033   9.005   8.358  21.532
60170W        W61034   9.070  10.448  19.052
60171W        W61035   8.710   9.761  21.624
60172W        W61036   8.616  10.183  19.104
60173W        W61037   8.157   8.475  18.126
60174W        W61038   7.391  10.947  25.406
60175W        W61039   7.780   9.882  24.898
60176W        W61040  10.530   9.439  22.659
60177W        W61041  10.802  10.545  24.641
60178W        W61042   8.475  10.522  22.013
60179W        W61043   8.541   8.658  23.020
60180W        W61044   8.228   8.541  23.445
60181W        W61045   9.059   9.287  22.801
60182W        W61046   8.845  10.594  24.951
60183W        W61047   7.396   8.118  24.884
60184W        W61048   8.115   7.351  24.747
60185W        W61049   9.863   7.786  23.595
60186W        W61050   9.643   8.657  22.253
60187W        W61051  10.075   8.163  25.191
60188W        W61052   7.468   7.750  24.513
60189W        W61053   7.599  10.468  25.490
60190W        W61054   8.767   9.977  22.298
60191W        W61055   7.422   8.444  23.939
60192W        W61056   8.464   8.637  25.148
60193W        W61057  10.625   8.100  23.848
60194W        W61058  10.513   9.329  24.579
60195W        W61059   9.086   8.849  23.648
60196W        W61060   9.635  10.146  24.017
60197W        W61061   7.926   9.377  24.109
60198W        W61062   7.295   8.920  23.790
60199W        W61063   8.344   9.009  24.806
60200W        W61064  10.580   8.736  25.129
60201W        W61065   8.229  10.206  23.633
60202W        W61066   9.417   9.950  24.672
60203W        W61067   8.750   8.580  23.936
60204W        W61068   8.872   9.310  23.680
60205W        W61069   9.496  10.249  25.492
60206W        W61070   8.920   9.391  25.469
60207W        W61071   9.010   9.263  24.976
60208W        W61072   7.316   8.442  25.266
60209W        W61073  10.035   9.989  25.306
60210W        W61074   7.841   7.552  23.083
60211W        W61075   8.377   9.827  24.193
60212W        W61076  10.693   9.727  23.533
60213W        W61077  10.108   8.090  23.988
60214W        W61078  10.460   8.083  21.877
60215W        W61079  11.042   8.900  24.420
60216W        W61080   8.957  10.586  24.104
60217W        W61081  10.723   9.944  22.617
60218W        W61082   7.672  10.787  22.686
60219W        W61083   8.042  10.700  23.048
60220W        W61084   8.002   7.698  24.380
60221W        W61085  10.570   8.691  24.575
60222W        W61086   9.951   9.019  23.220
60223W        W61087  10.078   8.880  22.117
60224W        W61088   9.222   9.910  24.201
60225W        W61089   9.097   8.096  23.387
60226W        W61090   9.563  10.400  24.473
60227W        W61091  10.460   9.045  23.032
60228W        W61092   9.548   7.689  22.761
60229W        W61093   7.921  10.326  22.705
60230W        W61094   7.507   7.955  23.113
60231W        W61095  10.018   8.503  23.613
60232W        W61096   7.722  10.213  23.745
60233W        W61097   8.842  10.502  22.398
60234W        W61098  10.201   8.521  21.761
60235W        W61099   7.565  10.228  24.234
60236W        W61100   8.264   9.985  24.675
60237W        W61101   8.563   9.393  23.271
60238W        W61102   8.467   7.756  24.155
60239W        W61103  10.823   7.462  23.862
60240W        W61104   8.212   9.600  21.626
60241W        W61105   7.824   8.134  22.248
60242W        W61106   7.879  10.215  23.228
60243W        W61107   8.700   9.886  23.206
60244W        W61108  10.339  10.539  24.883
60245W        W61109   9.402   8.209  22.373
60246W        W61110  10.471  10.706  23.462
60247W        W61111  10.152   8.585  24.887
60248W        W61112  10.980  10.130  23.337
60249W        W61113   9.528   9.459  24.821
60250W        W61114   7.028   8.980  22.944
60251W        W61115   8.243   9.450  24.505
60252W        W61116   9.452   8.620  22.724
60253W        W61117   9.427   9.024  23.107
60254W        W61118   7.773   8.539  24.352
60255W        W61119   7.812   8.544  25.041
60256W        W61120   7.731   7.476  23.578
60257W        W61121   9.394   7.875  23.804
60258W        W61122   9.169   7.910  25.108
60259W        W61123   9.655   7.756  22.227
60260W        W61124  10.785  10.441  25.177
60261W        W61125   9.617   7.408  24.918
60262W        W61126  10.567   9.974  25.364
60263W        W61127  10.164   8.025  24.695
60264W        W61128   9.907   8.030  23.114
60265W        W61129  10.211   9.086  25.570
60266W        W61130   7.940  10.631  23.540
60267W        W61131   8.878   8.176  22.423
60268W        W61132   8.255   7.689  25.107
60269W        W61133  10.324   8.179  22.783
60270W        W61134  10.637   8.611  22.787
60271W        W61135   8.389  10.823  25.240
60272W        W61136   8.349   7.314  22.521
60273W        W61137  10.708   7.776  23.469
60274W        W61138  10.921  10.142  22.143
60275W        W61139   7.616   9.331  23.698
60276W        W61140   9.574   7.962  21.758
60277W        W61141  10.778  10.163  23.832
60278W        W61142  10.785   7.388  24.411
60279W        W61143   9.308   8.833  25.070
60280W        W61144   9.125   9.837  22.849
60281W        W61145   9.742   9.222  25.750
60282W        W61146   9.502   7.372  23.602
60283W        W61147   7.898   8.336  23.789
60284W        W61148   7.671   9.450  24.619
60285W        W61149   9.532  10.519  23.462
60286W        W61150  10.523   8.210  24.355
60287W        W61151   9.467  10.751  24.874
60288W        W61152  10.485   9.223  22.103
60289W        W61153   8.898   9.000  23.205
60290W        W61154  10.893   7.351  24.922
60291W        W61155   9.124   9.532  24.540
60292W        W61156   9.199   8.378  23.807
60293W        W61157   9.993   8.570  22.666
60294W        W61158  10.336   8.451  22.289
60295W        W61159  10.380  10.281  22.844
60296W        W61160  10.166   9.768  23.661
60297W        W61161   9.781   9.036  22.697
60298W        W61162   9.410   9.265  23.591
60299W        W61163  10.334   8.909  23.570
60300W        W61164   7.680   8.055  24.167
60301W        W61165  10.236   9.092  25.023
60302W        W61166  10.841  10.627  24.117
60303W        W61167   8.723  10.279  23.553
60304W        W61168   9.936  10.719  24.637
60305W        W61169   9.721   8.058  24.370
60306W        W61170   9.059  10.856  24.554
60307W        W61171  10.597   7.774  22.959
60308W        W61172  10.478   8.996  24.174
60309W        W61173   7.299   8.301  24.417
60310W        W61174  10.273   8.089  23.476
60311W        W61175  10.576   8.279  24.891
60312W        W61176   9.557   9.987  23.494
60313W        W61177   8.813  10.597  23.132
60314W        W61178   8.011   7.659  22.325
60315W        W61179   9.157   7.438  23.990
60316W        W61180   7.691  10.786  22.066
60317W        W61181   8.575   9.121  22.796
60318W        W61182   9.066   9.769  25.014
60319W        W61183   9.006   7.756  22.985
60320W        W61184  10.237   7.616  23.286
60321W        W61185   9.968  10.794  23.649
60322W        W61186   9.453  10.639  23.977
60323W        W61187   8.816   9.564  24.119
60324W        W61188  10.568  10.207  24.322
60325W        W61189   8.342   7.693  22.977
60326W        W61190   8.775  10.094  24.025
60327W        W61191   8.203   7.911  21.900
60328W        W61192   9.069   8.587  24.350
60329W        W61193   9.743   7.551  24.042
60330W        W61194   7.421   9.312  24.181
60331W        W61195   8.839   9.051  22.208
60332W        W61196   8.350   7.428  21.996
60333W        W61197   9.233   8.568  23.230
60334W        W61198   9.901   7.604  24.538
60335W        W61199   8.582   9.594  24.891
60336W        W61200   9.404   9.382  25.318
60337W        W61201   9.893   9.436  25.202
60338W        W61202   9.246   7.625  25.553
60339W        W61203   8.422   8.189  23.789
60340W        W61204   7.979   7.979  23.365
60341W        W61205   7.544  10.604  23.164
60342W        W61206   9.259  10.286  25.024
60343W        W61207   8.275   9.754  22.393
60344W        W61208   9.953   9.229  23.711
60345W        W61209   9.963   8.834  24.031
60346W        W61210   9.298   9.387  24.078
60347W        W61211  10.048   9.991  21.925
60348W        W61212   9.468   7.770  23.269
60349W        W61213  10.871   8.146  22.703
60350W        W61214   7.533  10.610  24.983
60351W        W61215   7.873   9.837  24.364
60352W        W61216   7.185  10.619  22.791
60353W        W61217   9.210   8.096  24.250
60354W        W61218   8.362  10.268  22.437
60355W        W61219  10.761  10.473  22.533
60356W        W61220   9.319   9.036  22.435
60357W        W61221   8.903   8.282  22.938
60358W        W61222   9.113   8.092  21.961
60359W        W61223   9.552   9.860  25.160
60360W        W61224  10.107   7.675  22.781
60361W        W61225   7.513   7.404  22.233
60362W        W61226   8.773   9.890  24.511
60363W        W61227   8.555   9.743  23.695
60364W        W61228   8.366  10.009  21.942
60365W        W61229   7.441  10.177  22.859
60366W        W61230   8.037   8.957  25.247
60367W        W61231   8.789   7.564  25.293
60368W        W61232   9.362   7.684  24.538
60369W        W61233   8.685   7.370  23.230
60370W        W61234  10.083   7.442  22.305
60371W        W61235   7.630   7.530  24.077
60372W        W61236   7.521   8.380  23.413
60373W        W61237  10.327   7.647  23.796
60374W        W61238   7.935   7.952  22.755
60375W        W61239  10.356   7.712  24.302
60376W        W61240  10.625   8.766  21.923
60377W        W61241   8.031   7.839  23.859
60378W        W61242   9.234   8.297  24.748
60379W        W61243   7.351   7.895  22.186
60380W        W61244   8.064   9.416  24.974
60381W        W61245   9.416   8.863  24.048
60382W        W61246   9.288  10.817  22.123
60383W        W61247   7.378   9.094  21.969
60384W        W61248   8.231   9.865  25.174
60385W        W61249   7.803   8.975  24.763
60386W        W61250   8.713   9.232  24.530
60387W        W61251  10.366   7.416  24.741
60388W        W61252  10.840   9.080  24.870
60389W        W61253  10.812   9.031  22.476
60390W        W61254   9.535   9.477  22.882
60391W        W61255  10.239  10.903  22.024
60392W        W61256   9.326   8.957  25.580
60393W        W61257   7.791   9.909  25.437
60394W        W61258  10.997   7.645  25.347
60395W        W61259  10.406   8.544  23.958
60396W        W61260   8.860  10.793  25.418
60397W        W61261   8.815   7.352  22.211
60398W        W61262  10.453   9.723  22.194
60399W        W61263   8.191   8.201  25.060
60400W        W61264   8.691  10.114  24.953
60401W        W61265  10.674   7.819  24.700
60402W        W61266  10.225  10.646  22.468
60403W        W61267  10.143   9.417  24.164
60404W        W61268   8.372   7.936  24.651
60405W        W61269   8.868   8.901  25.345
60406W        W61270   8.284   9.968  22.852
60407W        W61271  10.072   9.420  22.895
60408W        W61272   7.858   8.119  24.664
60409W        W61273   9.132  10.195  23.252
60410W        W61274  10.728   8.709  23.323
60411W        W61275   9.112   7.403  24.932
60412W        W61276  10.127  10.045  24.083
60413W        W61277  10.380  10.476  23.902
60414W        W61278   9.041  10.377  21.938
60415W        W61279   7.359  10.098  25.208
60416W        W61280   8.170   8.207  24.243
60417W        W61281   8.232   7.504  23.460
60418W        W61282   9.675   8.401  23.991
60419W        W61283   8.604   9.526  22.066
60420W        W61284  10.509   9.328  23.804
60421W        W61285   7.956  10.320  25.147
60422W        W61286  10.438  10.817  22.896
60423W        W61287   8.611   7.877  23.402
60424W        W61288   8.150   9.334  23.615
60425W        W61289   8.596  10.883  24.335
60426W        W61290  10.490  10.887  25.217
60427W        W61291   9.698   9.193  24.336
60428W        W61292   7.599   8.528  21.950
60429W        W61293  10.769  10.505  23.096
60430W        W61294  10.258   7.926  22.328
60431W        W61295   8.621   7.489  24.785
60432W        W61296  10.449  10.190  23.419
60433W        W61297  10.259   8.562  23.149
60434W        W61298   8.759   8.468  23.443
60435W        W61299   8.853   8.807  24.818
60436W        W61300   9.920   9.870  24.825
60437W        W61301   8.666   8.343  24.773
60438W        W61302   8.453  10.742  23.476
60439W        W61303   7.890  10.835  25.279
60440W        W61304   7.954  10.325  22.115
60441W        W61305  10.455   9.804  23.059
60442W        W61306   8.185   8.534  24.669
60443W        W61307  10.841   8.380  22.187
60444W        W61308   8.669   9.640  22.726
60445W        W61309   9.735   8.986  24.838
60446W        W61310   9.594   8.624  24.476
60447W        W61311   8.099   8.960  24.355
60448W        W61312  10.373  10.688  24.377
60449W        W61313  10.051   7.649  25.067
60450W        W61314   7.725   7.709  24.988
60451W        W61315   8.251   8.666  23.967
60452W        W61316   8.655   8.340  21.966
60453W        W61317   7.394  10.181  24.703
60454W        W61318   8.926   9.031  24.115
60455W        W61319   8.694   7.822  22.058
60456W        W61320   8.199   9.020  23.203
60457W        W61321   7.603  10.805  24.510
60458W        W61322  10.305   8.966  22.559
60459W        W61323  10.526   7.869  25.199
60460W        W61324  10.004   9.991  23.200
60461W        W61325   7.490   8.952  25.171
60462W        W61326  10.546   7.527  22.519
60463W        W61327  10.192   9.852  22.615
60464W        W61328   8.971   8.773  22.734
60465W        W61329  10.048   7.743  21.873
60466W        W61330  10.074   8.449  24.374
60467W        W61331   7.672   8.882  23.425
60468W        W61332   8.190   9.782  23.322
60469W        W61333   9.750   8.549  23.127
60470W        W61334   8.877   7.948  23.862
60471W        W61335  10.837   9.784  24.484
60472W        W61336  10.861   7.844  24.208
60473W        W61337   7.388  10.608  23.653
60474W        W61338   7.807   9.806  22.926
60475W        W61339   7.793   7.676  25.518
60476W        W61340   8.956  10.285  25.437
60477W        W61341  10.798   9.211  23.404
60478W        W61342  10.068   9.384  22.364
60479W        W61343   9.544  10.918  24.395
60480W        W61344  10.255   9.586  25.537
60481W        W61345   8.837   7.252  22.742
60482W        W61346   9.589   8.234  23.489
60483W        W61347   7.540   9.770  23.958
60484W        W61348   8.663   7.722  22.570
60485W        W61349   8.482   9.237  25.243
60486W        W61350   9.416   8.161  22.944
60487W        W61351   9.761   9.737  24.352
60488W        W61352   7.880  10.347  24.630
60489W        W61353   8.446  10.318  25.344
60490W        W61354   8.352   8.099  22.357
60491W        W61355   9.841   8.089  22.597
60492W        W61356   9.787  10.345  24.985
60493W        W61357   8.541   8.932  23.597
60494W        W61358   8.128  10.708  24.354
60495W        W61359  10.692  10.619  22.012
60496W        W61360   7.601   9.458  25.186
60497W        W61361   9.687   9.646  23.855
60498W        W61362   8.200   9.462  22.905
60499W        W61363   8.543  10.348  24.412
60500W        W61364   9.047   7.610  23.508
60501W        W61365   7.181   9.765  22.630
60502W        W61366   9.092   8.594  22.193
60503W        W61367   7.771   9.350  23.197
60504W        W61368   8.903   7.895  24.653
60505W        W61369  10.522   7.552  21.964
60506W        W61370  10.651   9.265  25.314
60507W        W61371   9.369  10.754  25.388
60508W        W61372  10.851   9.663  24.990
60509W        W61373  10.302  10.429  25.385
60510W        W61374   8.171  10.960  23.884
60511W        W61375  10.891   9.555  23.044
60512W        W61376   9.596   8.779  23.569
60513W        W61377   9.233   7.303  23.133
60514W        W61378   8.381  10.335  23.167
60515W        W61379   8.689   8.211  24.280
60516W        W61380   8.643   7.445  23.779
60517W        W61381   7.489  10.417  22.367
60518W        W61382   9.094   9.511  23.255
60519W        W61383   8.335  10.504  24.844
60520W        W61384   7.385   9.300  22.790
60521W        W61385   7.533   7.944  23.680
60522W        W61386   9.132   9.746  23.717
60523W        W61387   7.502   7.681  22.675
60524W        W61388  10.120   8.941  24.515
60525W        W61389   9.895   8.225  22.077
60526W        W61390  10.549   9.758  24.051
60527W        W61391   9.196  10.246  23.774
60528W        W61392   8.464  10.660  22.756
60529W        W61393   9.642   7.441  21.711
60530W        W61394   7.751  10.666  24.016
60531W        W61395   9.454   8.468  25.435
60532W        W61396   7.749   8.147  25.337
60533W        W61397   7.396   8.611  22.931
60534W        W61398   8.598   8.616  22.413
60535W        W61399   9.788   8.880  25.337
60536W        W61400   8.438   9.210  24.047
60537W        W61401   9.794   7.397  23.157
60538W        W61402   9.027  10.693  23.591
60539W        W61403  10.085  10.253  24.537
60540W        W61404   9.973  10.274  23.645
60541W        W61405   9.788   9.531  23.335
60542W        W61406   9.151   7.735  22.387
60543W        W61407  10.897   7.412  23.169
60544W        W61408   8.428   8.810  21.944
60545W        W61409  10.665   8.224  23.181
60546W        W61410   9.047   9.522  22.339
60547W        W61411  10.343   9.619  25.016
60548W        W61412  10.410  10.227  22.243
60549W        W61413   8.653   8.032  25.186
60550W        W61414   8.568   8.740  24.390
60551W        W61415  10.542  10.077  24.845
60552W        W61416   9.661   7.947  24.874
60553W        W61417   7.393   8.636  24.775
60554W        W61418   9.255   9.032  24.558
60555W        W61419   7.696   9.784  23.459
60556W        W61420   7.776   8.882  23.951
60557W        W61421  10.013   9.403  24.679
60558W        W61422   9.957  10.835  25.138
60559W        W61423   9.672   8.461  24.975
60560W        W61424  10.079  10.523  23.197
60561W        W61425   9.053  10.319  24.544
60562W        W61426   8.467  10.538  23.946
60563W        W61427  10.303   9.787  24.498
60564W        W61428   9.190   9.824  25.514
60565W        W61429   8.033   9.790  23.834
60566W        W61430  10.304   9.400  23.348
60567W        W61431   9.931  10.572  24.132
60568W        W61432   8.079  10.248  24.134
60569W        W61433   8.983   8.426  25.195
60570W        W61434   9.188  10.463  22.800
60571W        W61435   8.686   9.837  25.399
60572W        W61436   8.741  10.194  22.798
60573W        W61437   8.100   8.406  21.847
60574W        W61438   7.470  10.995  28.805
60575W        W61439   7.788   9.900  28.465
60576W        W61440  10.584   9.317  26.369
60577W        W61441  10.722  10.534  28.199
60578W        W61442   8.445  10.662  25.729
60579W        W61443   8.545   8.774  26.571
60580W        W61444   8.082   8.700  26.845
60581W        W61445   8.962   9.255  26.341
60582W        W61446   8.835  10.544  28.368
60583W        W61447   7.542   8.185  28.558
60584W        W61448   8.072   7.575  28.247
60585W        W61449   9.857   7.675  27.272
60586W        W61450   9.478   8.499  25.938
60587W        W61451  10.089   8.032  28.769
60588W        W61452   7.587   7.783  28.133
60589W        W61453   7.615  10.338  28.827
60590W        W61454   8.832   9.709  25.899
60591W        W61455   7.495   8.476  27.563
60592W        W61456   8.280   8.619  28.841
60593W        W61457  10.706   8.257  27.330
60594W        W61458  10.611   9.290  28.036
60595W        W61459   9.005   8.787  27.247
60596W        W61460   9.594  10.147  27.545
60597W        W61461   7.907   9.522  27.839
60598W        W61462   7.286   8.960  27.433
60599W        W61463   8.341   8.945  28.404
60600W        W61464  10.738   8.736  28.722
60601W        W61465   8.214  10.134  27.113
60602W        W61466   9.407   9.940  28.214
60603W        W61467   8.700   8.408  27.434
60604W        W61468   8.850   9.297  27.162
60605W        W61469   9.907  10.297   0.046
60606W        W61470   8.905   9.357  28.877
60607W        W61471   9.058   9.134  28.447
60608W        W61472   7.238   8.288   0.007
60609W        W61473  10.151   9.952  28.731
60610W        W61474   7.838   7.451  26.663
60611W        W61475   8.286   9.921  27.657
60612W        W61476  10.775   9.733  27.105
60613W        W61477  10.085   8.014  27.619
60614W        W61478  10.457   8.164  25.634
60615W        W61479  11.196   8.828  27.981
60616W        W61480   8.849  10.571  27.604
60617W        W61481  10.682  10.154  26.293
60618W        W61482   7.839  10.969  26.246
60619W        W61483   8.210  10.746  26.587
60620W        W61484   8.286   7.683  27.787
60621W        W61485  10.736   8.652  28.190
60622W        W61486   9.872   8.961  26.798
60623W        W61487   9.914   8.748  25.855
60624W        W61488   9.205   9.856  27.713
60625W        W61489   8.926   8.103  27.032
60626W        W61490   9.689  10.324  28.027
60627W        W61491  10.406   9.014  26.753
60628W        W61492   9.506   7.743  26.375
60629W        W61493   8.033  10.491  26.180
60630W        W61494   7.569   7.873  26.764
60631W        W61495   9.832   8.648  27.204
60632W        W61496   7.687  10.086  27.094
60633W        W61497   8.922  10.579  25.877
60634W        W61498  10.215   8.586  25.453
60635W        W61499   7.408  10.456  27.940
60636W        W61500   8.178  10.006  28.159
60637W        W61501   8.581   9.287  26.720
60638W        W61502   8.807   7.718  27.925
60639W        W61503  10.847   7.417  27.370
60640W        W61504   8.030   9.422  25.491
60641W        W61505   7.801   8.103  25.864
60642W        W61506   7.920  10.238  26.649
60643W        W61507   8.732   9.789  26.752
60644W        W61508  10.254  10.435  28.563
60645W        W61509   9.270   8.210  26.298
60646W        W61510  10.540  10.774  27.100
60647W        W61511  10.303   8.571  28.445
60648W        W61512  10.973  10.105  26.800
60649W        W61513   9.522   9.377  28.274
60650W        W61514   7.252   9.090  26.518
60651W        W61515   8.405   9.545  27.993
60652W        W61516   9.550   8.652  26.427
60653W        W61517   9.444   9.143  26.570
60654W        W61518   7.987   8.542  27.918
60655W        W61519   7.685   8.555  28.911
60656W        W61520   7.728   7.505  27.155
60657W        W61521   9.521   7.877  27.609
60658W        W61522   9.103   7.976  28.844
60659W        W61523   9.517   7.970  25.888
60660W        W61524  10.800  10.289  28.696
60661W        W61525   9.617   7.433  28.723
60662W        W61526  10.643   9.812  28.860
60663W        W61527  10.273   8.081  28.284
60664W        W61528   9.825   7.856  26.780
60665W        W61529  10.346   8.990   0.001
60666W        W61530   7.953  10.568  27.132
60667W        W61531   8.821   8.225  26.055
60668W        W61532   8.234   7.516  28.730
60669W        W61533  10.230   8.114  26.542
60670W        W61534  10.590   8.616  26.439
60671W        W61535   8.493  10.695  28.759
60672W        W61536   8.436   7.310  26.046
60673W        W61537  10.671   7.808  27.071
60674W        W61538  10.847  10.229  25.774
60675W        W61539   7.702   9.281  27.325
60676W        W61540   9.618   7.971  25.383
60677W        W61541  10.804  10.213  27.333
60678W        W61542  10.816   7.437  27.915
60679W        W61543   9.191   8.731  28.740
60680W        W61544   9.163   9.727  26.313
60681W        W61545   9.857   9.178   0.085
60682W        W61546   9.536   7.254  27.322
60683W        W61547   7.990   8.359  27.316
60684W        W61548   7.514   9.568  28.210
60685W        W61549   9.616  10.579  27.203
60686W        W61550  10.573   8.253  27.863
60687W        W61551   9.355  10.544  28.345
60688W        W61552  10.609   9.323  25.839
60689W        W61553   8.993   8.954  26.761
60690W        W61554  10.918   7.413  28.414
60691W        W61555   9.098   9.456  28.014
60692W        W61556   9.262   8.355  27.362
60693W        W61557  10.086   8.647  26.443
60694W        W61558  10.283   8.414  26.046
60695W        W61559  10.284  10.415  26.472
60696W        W61560   9.925   9.701  27.368
60697W        W61561   9.866   9.059  26.265
60698W        W61562   9.368   9.118  27.096
60699W        W61563  10.335   8.947  27.286
60700W        W61564   7.810   8.088  27.742
60701W        W61565  10.423   9.072  28.478
60702W        W61566  10.787  10.632  27.646
60703W        W61567   8.722  10.202  27.076
60704W        W61568   9.855  10.715  28.374
60705W        W61569   9.771   8.032  28.048
60706W        W61570   9.044  10.844  28.014
60707W        W61571  10.577   7.690  26.568
60708W        W61572  10.436   8.840  27.814
60709W        W61573   7.508   8.337  28.067
60710W        W61574  10.209   8.062  27.097
60711W        W61575  10.697   8.240  28.546
60712W        W61576   9.528   9.943  27.071
60713W        W61577   8.814  10.553  26.669
60714W        W61578   8.067   7.662  25.956
60715W        W61579   9.164   7.480  27.604
60716W        W61580   7.959  10.806  25.779
60717W        W61581   8.468   9.120  26.193
60718W        W61582   9.111   9.641  28.492
60719W        W61583   9.007   7.826  26.569
60720W        W61584  10.237   7.556  26.933
60721W        W61585  10.095  10.922  27.320
60722W        W61586   9.362  10.592  27.662
60723W        W61587   8.768   9.546  27.628
60724W        W61588  10.590  10.177  27.813
60725W        W61589   8.118   7.819  26.436
60726W        W61590   8.765  10.063  27.566
60727W        W61591   8.211   7.980  25.529
60728W        W61592   9.000   8.670  27.751
60729W        W61593   9.917   7.556  27.784
60730W        W61594   7.434   9.309  27.794
60731W        W61595   8.883   9.066  25.869
60732W        W61596   8.360   7.485  25.569
60733W        W61597   8.823   8.324  26.572
60734W        W61598   9.989   7.653  28.369
60735W        W61599   8.630   9.458  28.441
60736W        W61600   9.423   9.256  28.802
60737W        W61601   9.934   9.247  28.583
60738W        W61602   9.235   7.497   0.067
60739W        W61603   8.525   7.913  27.283
60740W        W61604   8.047   8.052  26.890
60741W        W61605   7.697  10.703  26.693
60742W        W61606   9.105  10.154  28.605
60743W        W61607   8.085   9.494  26.050
60744W        W61608   9.845   9.170  27.286
60745W        W61609   9.949   8.837  27.672
60746W        W61610   9.134   9.184  27.579
60747W        W61611   9.703   9.717  25.632
60748W        W61612   9.317   7.735  27.147
60749W        W61613  10.698   8.093  26.284
60750W        W61614   7.424  10.644  28.449
60751W        W61615   7.684   9.988  27.943
60752W        W61616   7.339  10.989  26.360
60753W        W61617   9.286   8.252  27.883
60754W        W61618   8.613  10.176  25.826
60755W        W61619  10.633  10.653  26.161
60756W        W61620   9.384   9.001  26.081
60757W        W61621   8.298   8.326  26.489
60758W        W61622   9.103   8.115  25.601
60759W        W61623   9.693   9.716  28.612
60760W        W61624  10.073   7.584  26.426
60761W        W61625   7.529   7.393  25.847
60762W        W61626   8.806   9.865  28.092
60763W        W61627   8.513   9.714  27.211
60764W        W61628   8.261   9.836  25.696
60765W        W61629   7.529  10.430  26.288
60766W        W61630   7.918   8.998  28.726
60767W        W61631   8.736   7.489  28.882
60768W        W61632   9.306   7.774  28.079
60769W        W61633   8.429   7.412  26.547
60770W        W61634   9.840   7.572  25.961
60771W        W61635   7.729   7.581  27.690
60772W        W61636   7.658   8.385  26.903
60773W        W61637  10.365   7.626  27.431
60774W        W61638   7.794   8.219  26.417
60775W        W61639  10.385   7.731  27.933
60776W        W61640  10.659   8.832  25.630
60777W        W61641   8.035   7.851  27.364
60778W        W61642   9.308   8.358  28.402
60779W        W61643   7.331   7.875  25.850
60780W        W61644   8.062   9.409  28.359
60781W        W61645   9.459   8.802  27.529
60782W        W61646   9.283  10.927  25.929
60783W        W61647   7.420   9.187  25.642
60784W        W61648   8.258   9.770  28.668
60785W        W61649   7.716   9.055  28.217
60786W        W61650   8.715   9.111  28.053
60787W        W61651  10.406   7.339  28.272
60788W        W61652  10.955   9.086  28.383
60789W        W61653  10.865   8.950  26.118
60790W        W61654   9.636   9.505  26.209
60791W        W61655  10.159  10.867  25.626
60792W        W61656   9.535   8.798   0.114
60793W        W61657   7.837   9.863  28.969
60794W        W61658  10.951   7.781  28.799
60795W        W61659  10.252   8.468  27.459
60796W        W61660   8.999  10.619  28.859
60797W        W61661   8.859   7.376  25.776
60798W        W61662  10.520   9.834  25.904
60799W        W61663   8.059   8.165  28.733
60800W        W61664   8.568  10.134  28.472
60801W        W61665  10.801   7.886  28.194
60802W        W61666  10.156  10.834  26.145
60803W        W61667  10.187   9.306  27.641
60804W        W61668   8.433   7.958  28.188
60805W        W61669   8.707   8.902  28.761
60806W        W61670   8.254  10.025  26.196
60807W        W61671  10.109   9.411  26.571
60808W        W61672   7.959   8.113  28.234
60809W        W61673   9.125  10.116  26.754
60810W        W61674  10.741   8.692  27.048
60811W        W61675   9.140   7.548  28.540
60812W        W61676  10.063  10.099  27.719
60813W        W61677  10.344  10.451  27.446
60814W        W61678   9.146  10.118  25.926
60815W        W61679   7.352   9.859  28.733
60816W        W61680   8.315   8.192  27.704
60817W        W61681   8.234   7.561  26.988
60818W        W61682   9.725   8.366  27.624
60819W        W61683   8.484   9.376  25.742
60820W        W61684  10.665   9.467  27.533
60821W        W61685   8.098  10.263  28.677
60822W        W61686  10.435  10.915  26.586
60823W        W61687   8.525   7.920  26.734
60824W        W61688   8.140   9.248  27.036
60825W        W61689   8.487  10.815  27.880
60826W        W61690  10.632  10.774  28.677
60827W        W61691   9.641   9.236  27.772
60828W        W61692   7.666   8.727  25.582
60829W        W61693  10.776  10.547  26.644
60830W        W61694  10.248   7.902  26.048
60831W        W61695   8.634   7.542  28.389
60832W        W61696  10.460  10.233  26.947
60833W        W61697  10.260   8.555  26.929
60834W        W61698   8.459   8.371  26.984
60835W        W61699   8.888   8.660  28.277
60836W        W61700  10.012   9.945  28.223
60837W        W61701   8.421   8.424  28.376
60838W        W61702   8.455  10.631  27.028
60839W        W61703   7.919  10.775  28.602
60840W        W61704   8.061  10.307  25.686
60841W        W61705  10.559   9.782  26.644
60842W        W61706   7.927   8.585  28.431
60843W        W61707  10.787   8.463  25.953
60844W        W61708   8.533   9.611  26.313
60845W        W61709   9.568   8.894  28.454
60846W        W61710   9.620   8.608  28.042
60847W        W61711   8.177   9.073  27.939
60848W        W61712  10.339  10.866  27.761
60849W        W61713  10.117   7.470  28.852
60850W        W61714   7.744   7.705  28.626
60851W        W61715   8.192   8.809  27.469
60852W        W61716   8.595   8.358  25.585
60853W        W61717   7.314  10.102  28.287
60854W        W61718   8.655   9.009  27.559
60855W        W61719   8.674   7.859  25.715
60856W        W61720   8.065   8.796  26.334
60857W        W61721   7.690  10.887  28.086
60858W        W61722  10.347   8.935  26.076
60859W        W61723  10.489   7.727  28.598
60860W        W61724  10.092   9.844  26.869
60861W        W61725   7.414   9.023  28.865
60862W        W61726  10.485   7.437  26.116
60863W        W61727  10.193   9.894  26.308
60864W        W61728   9.006   8.707  26.270
60865W        W61729  10.102   7.794  25.557
60866W        W61730  10.105   8.443  27.969
60867W        W61731   7.725   8.788  27.208
60868W        W61732   8.212   9.741  26.772
60869W        W61733   9.819   8.369  26.758
60870W        W61734   8.992   7.961  27.526
60871W        W61735  10.872   9.756  27.958
60872W        W61736  10.836   7.863  27.638
60873W        W61737   7.435  10.581  27.123
60874W        W61738   7.818   9.762  26.423
60875W        W61739   7.850   7.458   0.082
60876W        W61740   9.004  10.161   0.139
60877W        W61741  10.771   9.207  27.087
60878W        W61742  10.145   9.433  26.032
60879W        W61743   9.571  10.906  27.998
60880W        W61744  10.249   9.477  28.918
60881W        W61745   8.907   7.379  26.331
60882W        W61746   9.692   8.140  27.187
60883W        W61747   7.552   9.726  27.509
60884W        W61748   8.591   7.785  26.227
60885W        W61749   8.343   9.274  28.827
60886W        W61750   9.373   8.118  26.785
60887W        W61751   9.702   9.740  27.842
60888W        W61752   7.803  10.372  28.275
60889W        W61753   8.491  10.228  28.986
60890W        W61754   8.301   8.148  26.003
60891W        W61755   9.812   8.210  26.247
60892W        W61756   9.731  10.234  28.548
60893W        W61757   8.526   8.889  27.071
60894W        W61758   8.040  10.562  27.875
60895W        W61759  10.680  10.702  25.659
60896W        W61760   7.648   9.440  28.684
60897W        W61761   9.448   9.537  27.386
60898W        W61762   8.101   9.298  26.526
60899W        W61763   8.557  10.305  27.963
60900W        W61764   8.774   7.542  26.969
60901W        W61765   7.200   9.384  26.101
60902W        W61766   9.011   8.594  25.747
60903W        W61767   7.703   9.075  26.782
60904W        W61768   8.927   8.001  28.362
60905W        W61769  10.591   7.661  25.673
60906W        W61770  10.764   9.266  28.829
60907W        W61771   9.526  10.621  28.839
60908W        W61772  10.886   9.611  28.444
60909W        W61773  10.422  10.298   0.029
60910W        W61774   8.112  10.914  27.500
60911W        W61775  10.969   9.483  26.705
60912W        W61776   9.392   8.629  26.925
60913W        W61777   9.238   7.380  26.765
60914W        W61778   8.426  10.222  26.650
60915W        W61779   8.779   8.240  27.934
60916W        W61780   8.655   7.438  27.479
60917W        W61781   7.467  10.759  25.900
60918W        W61782   9.160   9.502  26.795
60919W        W61783   8.302  10.567  28.312
60920W        W61784   7.679   9.180  26.249
60921W        W61785   7.552   8.013  27.261
60922W        W61786   9.029   9.788  27.207
60923W        W61787   7.630   7.753  26.250
60924W        W61788  10.018   8.913  28.182
60925W        W61789   9.914   8.250  25.713
60926W        W61790  10.391   9.907  27.381
60927W        W61791   9.173  10.276  27.298
60928W        W61792   8.545  10.515  26.229
60929W        W61793   9.722   7.463  25.449
60930W        W61794   7.642  10.700  27.568
60931W        W61795   9.554   8.313  28.898
60932W        W61796   7.675   8.004   0.045
60933W        W61797   7.564   8.676  26.480
60934W        W61798   8.517   8.625  26.067
60935W        W61799   9.935   8.755  28.776
60936W        W61800   8.284   9.352  27.519
60937W        W61801   9.773   7.342  26.859
60938W        W61802   8.969  10.724  27.127
60939W        W61803  10.209  10.446  28.055
60940W        W61804   9.976  10.205  27.208
60941W        W61805   9.701   9.477  26.900
60942W        W61806   9.073   7.784  26.042
60943W        W61807  10.923   7.409  26.857
60944W        W61808   8.434   8.875  25.623
60945W        W61809  10.649   8.245  26.803
60946W        W61810   9.271   9.438  25.845
60947W        W61811  10.369   9.580  28.429
60948W        W61812  10.338  10.331  25.903
60949W        W61813   8.537   7.944  28.708
60950W        W61814   8.490   8.660  27.907
60951W        W61815  10.528  10.050  28.315
60952W        W61816   9.553   7.914  28.537
60953W        W61817   7.424   8.680  28.451
60954W        W61818   9.279   8.975  28.028
60955W        W61819   7.711   9.584  26.899
60956W        W61820   7.745   8.927  27.701
60957W        W61821  10.007   9.421  28.107
60958W        W61822  10.137  10.926  28.748
60959W        W61823   9.832   8.364  28.446
60960W        W61824  10.085  10.627  26.905
60961W        W61825   9.087  10.290  27.978
60962W        W61826   8.366  10.440  27.495
60963W        W61827  10.361   9.725  27.897
60964W        W61828   9.282   9.742  28.956
60965W        W61829   8.004   9.709  27.290
60966W        W61830  10.301   9.436  27.107
60967W        W61831   9.886  10.606  27.657
60968W        W61832   7.880  10.221  27.533
60969W        W61833   8.807   8.391  28.730
60970W        W61834   9.163  10.476  26.314
60971W        W61835   8.750   9.824  28.834
60972W        W61836   8.792  10.078  26.314
60973W        W61837   8.106   8.484  25.500
60974W        W61838   7.240  14.549   3.326
60975W        W61839   7.837  13.542   2.794
60976W        W61840  10.629  12.995   0.800
60977W        W61841  10.920  14.263   2.568
60978W        W61842   8.455  14.289   0.322
60979W        W61843   8.501  12.385   1.021
60980W        W61844   8.155  12.218   1.400
60981W        W61845   9.073  13.088   0.681
60982W        W61846   8.870  14.264   2.848
60983W        W61847   7.406  11.640   2.858
60984W        W61848   7.934  10.996   2.676
60985W        W61849   9.853  11.330   1.645
60986W        W61850   9.578  11.818   0.536
60987W        W61851  10.117  11.746   3.198
60988W        W61852   7.463  11.279   2.495
60989W        W61853   7.648  14.231   3.514
60990W        W61854   8.897  13.366   0.301
60991W        W61855   7.397  12.086   1.949
60992W        W61856   8.522  12.198   3.053
60993W        W61857  10.689  11.857   1.729
60994W        W61858  10.503  12.995   2.414
60995W        W61859   8.998  12.494   1.482
60996W        W61860   9.551  13.810   1.951
60997W        W61861   7.909  12.945   2.223
60998W        W61862   7.140  12.573   1.926
60999W        W61863   8.524  12.740   2.958
61000W        W61864  10.664  12.403   3.048
61001W        W61865   8.247  13.734   1.712
61002W        W61866   9.359  13.614   2.625
61003W        W61867   8.903  12.197   1.884
61004W        W61868   8.830  12.980   1.513
61005W        W61869   9.887  14.031   3.414
61006W        W61870   8.892  13.013   3.344
61007W        W61871   9.068  12.854   2.889
61008W        W61872   6.995  11.839   3.119
61009W        W61873  10.121  13.620   3.142
61010W        W61874   7.914  11.208   0.979
61011W        W61875   8.293  13.422   2.106
61012W        W61876  10.780  13.359   1.595
61013W        W61877  10.362  11.443   1.800
61014W        W61878  10.520  11.655   0.002
61015W        W61879  10.919  12.451   2.381
61016W        W61880   8.885  14.253   2.027
61017W        W61881  10.748  13.491   0.723
61018W        W61882   7.989  14.432   0.691
61019W        W61883   8.295  14.416   1.184
61020W        W61884   8.069  11.267   2.267
61021W        W61885  10.460  12.245   2.566
61022W        W61886  10.007  12.554   1.299
61023W        W61887  10.069  12.257   0.284
61024W        W61888   9.163  13.541   2.141
61025W        W61889   9.217  12.018   1.503
61026W        W61890   9.632  13.982   2.424
61027W        W61891  10.497  12.609   1.120
61028W        W61892   9.339  11.365   0.986
61029W        W61893   7.838  13.963   0.821
61030W        W61894   7.519  11.480   1.191
61031W        W61895  10.200  11.974   1.766
61032W        W61896   7.737  13.761   1.782
61033W        W61897   8.873  14.154   0.582
61034W        W61898  10.545  12.163   0.071
61035W        W61899   7.436  13.833   2.199
61036W        W61900   8.290  13.708   2.569
61037W        W61901   8.332  12.774   1.324
61038W        W61902   8.493  11.458   1.984
61039W        W61903  10.794  11.087   1.753
61040W        W61904   7.999  12.993   0.055
61041W        W61905   7.801  11.935   0.368
61042W        W61906   7.669  13.831   1.286
61043W        W61907   8.924  13.312   1.138
61044W        W61908  10.469  14.255   2.837
61045W        W61909   9.077  11.745   0.704
61046W        W61910  10.567  14.308   1.527
61047W        W61911  10.164  12.240   2.993
61048W        W61912  10.899  13.720   1.216
61049W        W61913   9.563  13.195   2.846
61050W        W61914   7.424  12.587   1.126
61051W        W61915   8.268  13.184   2.543
61052W        W61916   9.647  12.258   0.820
61053W        W61917   9.646  12.807   1.035
61054W        W61918   7.740  12.098   2.358
61055W        W61919   7.823  12.019   2.861
61056W        W61920   7.719  11.108   1.490
61057W        W61921   9.460  11.448   2.007
61058W        W61922   9.244  11.568   3.182
61059W        W61923   9.763  11.347   0.672
61060W        W61924  10.906  14.204   3.109
61061W        W61925   9.686  11.105   2.989
61062W        W61926  10.605  13.485   3.329
61063W        W61927  10.119  11.819   2.656
61064W        W61928   9.788  11.508   1.166
61065W        W61929  10.291  12.625   3.338
61066W        W61930   8.011  14.201   1.630
61067W        W61931   8.660  12.056   0.607
61068W        W61932   8.155  11.212   3.093
61069W        W61933  10.531  11.746   0.970
61070W        W61934  10.767  12.226   0.923
61071W        W61935   8.641  14.497   3.249
61072W        W61936   8.470  10.981   0.670
61073W        W61937  10.681  11.432   1.380
61074W        W61938  10.947  13.701   0.235
61075W        W61939   7.516  12.909   1.749
61076W        W61940   9.646  11.433   0.127
61077W        W61941  10.859  13.841   1.786
61078W        W61942  10.781  11.034   2.307
61079W        W61943   9.298  12.373   2.981
61080W        W61944   9.009  13.641   0.737
61081W        W61945   9.858  12.784   3.577
61082W        W61946   9.389  11.029   1.691
61083W        W61947   7.871  11.987   1.800
61084W        W61948   7.629  13.104   2.629
61085W        W61949   9.512  14.171   1.580
61086W        W61950  10.404  11.781   2.218
61087W        W61951   9.377  14.343   2.708
61088W        W61952  10.750  13.064   0.295
61089W        W61953   9.122  12.799   1.097
61090W        W61954  10.853  11.056   2.829
61091W        W61955   9.167  13.158   2.497
61092W        W61956   9.356  11.960   1.994
61093W        W61957  10.179  12.282   0.876
61094W        W61958  10.443  11.999   0.540
61095W        W61959  10.446  13.840   0.970
61096W        W61960  10.169  13.412   1.667
61097W        W61961   9.921  12.638   0.615
61098W        W61962   9.407  12.901   1.517
61099W        W61963  10.384  12.516   1.653
61100W        W61964   7.664  11.628   2.166
61101W        W61965  10.351  12.728   2.834
61102W        W61966  10.783  14.270   2.052
61103W        W61967   8.708  13.556   1.548
61104W        W61968   9.893  14.449   2.575
61105W        W61969   9.597  11.778   2.419
61106W        W61970   8.957  14.678   2.568
61107W        W61971  10.776  11.302   0.877
61108W        W61972  10.202  12.640   2.124
61109W        W61973   7.246  11.828   2.373
61110W        W61974  10.216  11.647   1.364
61111W        W61975  10.551  11.904   2.953
61112W        W61976   9.555  13.660   1.425
61113W        W61977   8.776  14.233   1.084
61114W        W61978   7.858  11.405   0.448
61115W        W61979   8.978  11.222   2.024
61116W        W61980   7.975  14.407   0.162
61117W        W61981   8.145  12.779   0.544
61118W        W61982   9.113  13.379   2.995
61119W        W61983   8.951  11.674   1.196
61120W        W61984  10.253  11.101   1.394
61121W        W61985   9.943  14.465   1.642
61122W        W61986   9.406  14.320   2.091
61123W        W61987   8.785  13.236   1.966
61124W        W61988  10.636  13.891   2.374
61125W        W61989   8.400  11.379   1.000
61126W        W61990   8.685  13.763   2.040
61127W        W61991   8.276  11.488   0.095
61128W        W61992   9.074  12.147   2.371
61129W        W61993   9.869  11.093   2.108
61130W        W61994   7.375  12.890   2.254
61131W        W61995   9.067  12.621   0.217
61132W        W61996   8.399  10.993   0.167
61133W        W61997   9.053  12.218   1.016
61134W        W61998   9.901  11.346   2.556
61135W        W61999   8.650  13.221   2.895
61136W        W62000   9.429  12.902   3.260
61137W        W62001   9.960  12.976   3.092
61138W        W62002   9.223  11.232   3.557
61139W        W62003   8.381  11.945   1.781
61140W        W62004   8.020  11.611   1.323
61141W        W62005   7.786  14.329   1.176
61142W        W62006   9.231  13.938   2.991
61143W        W62007   7.885  13.260   0.491
61144W        W62008   9.892  12.847   1.734
61145W        W62009   9.835  12.337   1.771
61146W        W62010   9.286  13.036   2.008
61147W        W62011   9.816  13.336   0.115
61148W        W62012   9.372  11.516   1.485
61149W        W62013  11.021  11.775   0.786
61150W        W62014   7.506  14.261   2.994
61151W        W62015   7.779  13.450   2.278
61152W        W62016   7.476  14.521   0.799
61153W        W62017   9.071  11.632   2.330
61154W        W62018   8.580  13.751   0.469
61155W        W62019  10.648  14.001   0.532
61156W        W62020   9.354  12.649   0.657
61157W        W62021   8.363  11.892   1.044
61158W        W62022   9.211  11.748   0.177
61159W        W62023   9.593  13.621   3.134
61160W        W62024  10.241  11.307   0.911
61161W        W62025   7.490  11.039   0.302
61162W        W62026   8.727  13.434   2.435
61163W        W62027   8.368  13.178   1.648
61164W        W62028   8.351  13.346   0.252
61165W        W62029   7.375  13.795   0.695
61166W        W62030   8.091  12.452   2.969
61167W        W62031   8.696  11.230   3.243
61168W        W62032   9.382  11.330   2.617
61169W        W62033   8.671  10.956   1.173
61170W        W62034   9.461  10.918   0.727
61171W        W62035   7.640  11.141   2.020
61172W        W62036   7.653  11.984   1.311
61173W        W62037  10.320  10.930   1.880
61174W        W62038   7.852  11.728   0.857
61175W        W62039  10.322  11.262   2.274
61176W        W62040  10.842  12.575   0.153
61177W        W62041   8.007  11.461   1.800
61178W        W62042   9.239  11.884   2.788
61179W        W62043   7.383  11.572   0.272
61180W        W62044   8.035  12.960   2.921
61181W        W62045   9.352  12.501   1.877
61182W        W62046   9.297  14.378   0.384
61183W        W62047   7.494  12.957   0.218
61184W        W62048   8.304  13.563   3.058
61185W        W62049   7.741  12.576   2.578
61186W        W62050   8.721  12.895   2.487
61187W        W62051  10.314  11.079   2.771
61188W        W62052  10.869  12.814   2.746
61189W        W62053  10.967  12.643   0.637
61190W        W62054   9.766  13.134   0.625
61191W        W62055  10.346  14.400   0.180
61192W        W62056   9.429  12.439   3.530
61193W        W62057   7.894  13.331   3.271
61194W        W62058  10.979  11.497   3.422
61195W        W62059  10.548  12.243   2.059
61196W        W62060   9.084  14.405   3.527
61197W        W62061   8.874  11.053   0.346
61198W        W62062  10.466  13.495   0.286
61199W        W62063   8.285  11.734   2.932
61200W        W62064   8.766  13.746   2.841
61201W        W62065  10.600  11.505   2.615
61202W        W62066  10.187  14.748   0.531
61203W        W62067  10.094  13.160   2.106
61204W        W62068   8.472  11.489   2.507
61205W        W62069   8.890  12.504   3.257
61206W        W62070   8.178  13.592   0.779
61207W        W62071  10.138  12.961   0.955
61208W        W62072   7.888  11.541   2.659
61209W        W62073   9.078  13.812   1.238
61210W        W62074  10.837  12.341   1.451
61211W        W62075   9.174  11.083   3.032
61212W        W62076  10.007  13.669   2.135
61213W        W62077  10.370  14.008   1.944
61214W        W62078   9.415  13.493   0.459
61215W        W62079   7.468  13.639   3.182
61216W        W62080   8.142  11.787   2.221
61217W        W62081   8.226  11.127   1.413
61218W        W62082   9.949  11.609   2.084
61219W        W62083   8.645  12.926   0.356
61220W        W62084  10.534  12.999   1.892
61221W        W62085   7.919  13.925   3.149
61222W        W62086  10.414  14.555   1.006
61223W        W62087   8.522  11.556   1.473
61224W        W62088   8.042  12.756   1.755
61225W        W62089   8.558  14.604   2.237
61226W        W62090  10.530  14.587   3.239
61227W        W62091   9.701  12.799   2.213
61228W        W62092   7.651  12.525   0.455
61229W        W62093  10.813  14.201   1.002
61230W        W62094  10.508  11.494   0.490
61231W        W62095   8.508  11.025   2.765
61232W        W62096  10.456  13.791   1.481
61233W        W62097  10.407  12.120   1.310
61234W        W62098   8.698  12.076   1.406
61235W        W62099   8.848  12.422   2.729
61236W        W62100   9.875  13.568   2.685
61237W        W62101   8.734  11.913   2.694
61238W        W62102   8.614  14.063   1.537
61239W        W62103   7.996  14.390   2.935
61240W        W62104   8.087  13.921   0.353
61241W        W62105  10.491  13.355   1.167
61242W        W62106   8.273  12.139   2.580
61243W        W62107  10.919  12.154   0.441
61244W        W62108   8.593  13.291   0.729
61245W        W62109   9.550  12.717   2.706
61246W        W62110   9.559  12.314   2.326
61247W        W62111   8.246  12.661   2.519
61248W        W62112  10.380  14.397   2.359
61249W        W62113  10.125  11.206   3.254
61250W        W62114   7.617  11.192   2.998
61251W        W62115   8.151  12.326   2.095
61252W        W62116   8.278  11.990   0.180
61253W        W62117   7.313  13.751   2.711
61254W        W62118   8.884  12.722   1.951
61255W        W62119   8.745  11.558   0.333
61256W        W62120   7.969  12.538   1.024
61257W        W62121   7.647  14.545   2.536
61258W        W62122  10.469  12.534   0.524
61259W        W62123  10.578  11.399   3.120
61260W        W62124  10.037  13.631   1.207
61261W        W62125   7.594  12.453   3.077
61262W        W62126  10.516  10.978   0.543
61263W        W62127  10.208  13.431   0.733
61264W        W62128   8.844  12.573   0.685
61265W        W62129  10.108  11.218   0.327
61266W        W62130  10.025  12.123   2.230
61267W        W62131   7.705  12.448   1.534
61268W        W62132   8.042  13.437   1.332
61269W        W62133   9.893  12.050   1.246
61270W        W62134   8.933  11.687   1.788
61271W        W62135  10.873  13.436   2.422
61272W        W62136  10.796  11.490   2.085
61273W        W62137   7.498  14.239   1.589
61274W        W62138   7.694  13.432   0.949
61275W        W62139   7.762  11.177   3.491
61276W        W62140   8.826  14.014   3.301
61277W        W62141  10.789  12.864   1.450
61278W        W62142  10.252  13.009   0.432
61279W        W62143   9.453  14.750   2.411
61280W        W62144  10.278  13.122   3.470
61281W        W62145   8.942  10.758   0.755
61282W        W62146   9.721  11.830   1.666
61283W        W62147   7.390  13.387   1.916
61284W        W62148   8.872  11.281   0.815
61285W        W62149   8.369  13.098   3.318
61286W        W62150   9.436  11.865   1.065
61287W        W62151   9.631  13.313   2.312
61288W        W62152   7.762  14.027   2.607
61289W        W62153   8.368  13.864   3.477
61290W        W62154   8.289  11.673   0.582
61291W        W62155  10.032  11.789   0.812
61292W        W62156   9.784  14.037   2.904
61293W        W62157   8.493  12.473   1.721
61294W        W62158   8.116  14.377   2.411
61295W        W62159  10.881  14.249   0.155
61296W        W62160   7.545  12.984   3.109
61297W        W62161   9.675  13.322   1.806
61298W        W62162   8.146  13.101   0.949
61299W        W62163   8.574  14.122   2.461
61300W        W62164   8.949  11.247   1.491
61301W        W62165   7.344  13.263   0.608
61302W        W62166   9.164  12.188   0.478
61303W        W62167   7.809  12.941   1.319
61304W        W62168   8.899  11.440   2.794
61305W        W62169  10.523  11.133   0.040
61306W        W62170  10.719  12.910   3.234
61307W        W62171   9.500  14.319   3.228
61308W        W62172  10.907  13.327   2.923
61309W        W62173  10.430  14.038   3.306
61310W        W62174   8.120  14.599   1.936
61311W        W62175  10.996  13.192   1.113
61312W        W62176   9.498  12.405   1.325
61313W        W62177   9.197  10.916   1.180
61314W        W62178   8.170  13.923   1.229
61315W        W62179   8.644  11.898   2.205
61316W        W62180   8.592  11.009   1.753
61317W        W62181   7.588  14.168   0.411
61318W        W62182   9.424  13.287   1.024
61319W        W62183   8.401  14.086   2.986
61320W        W62184   7.684  12.913   0.808
61321W        W62185   7.504  11.621   1.679
61322W        W62186   9.179  13.369   1.620
61323W        W62187   7.449  11.253   0.747
61324W        W62188   9.987  12.503   2.572
61325W        W62189  10.060  11.727   0.298
61326W        W62190  10.531  13.509   2.022
61327W        W62191   9.091  13.884   1.739
61328W        W62192   8.364  14.092   0.784
61329W        W62193   9.708  10.909   0.259
61330W        W62194   7.686  14.293   2.074
61331W        W62195   9.631  11.994   3.295
61332W        W62196   7.838  11.611   3.186
61333W        W62197   7.629  12.190   0.835
61334W        W62198   8.149  12.220   0.640
61335W        W62199   9.765  12.512   3.135
61336W        W62200   8.409  12.888   2.082
61337W        W62201   9.726  10.997   1.198
61338W        W62202   9.038  14.390   1.533
61339W        W62203  10.150  13.975   2.534
61340W        W62204   9.962  13.899   1.657
61341W        W62205   9.829  13.179   1.334
61342W        W62206   9.281  11.331   0.472
61343W        W62207  10.923  10.988   1.265
61344W        W62208   8.562  12.435   0.253
61345W        W62209  10.927  11.874   1.279
61346W        W62210   9.393  13.009   0.289
61347W        W62211  10.395  13.224   2.932
61348W        W62212  10.048  13.789   0.295
61349W        W62213   8.740  11.741   3.178
61350W        W62214   8.626  12.415   2.268
61351W        W62215  10.578  13.745   2.876
61352W        W62216   9.688  11.631   2.922
61353W        W62217   7.312  12.133   2.791
61354W        W62218   9.169  12.655   2.370
61355W        W62219   7.539  13.359   1.440
61356W        W62220   7.674  12.514   2.047
61357W        W62221   9.998  13.042   2.589
61358W        W62222  10.044  14.436   3.103
61359W        W62223   9.707  12.128   2.786
61360W        W62224  10.148  14.169   1.256
61361W        W62225   9.081  13.994   2.431
61362W        W62226   8.382  14.171   1.986
61363W        W62227  10.336  13.475   2.491
61364W        W62228   9.273  13.382   3.469
61365W        W62229   7.892  13.263   1.805
61366W        W62230  10.293  12.973   1.440
61367W        W62231   9.932  14.213   2.092
61368W        W62232   8.015  13.895   2.180
61369W        W62233   9.118  12.046   3.328
61370W        W62234   9.308  14.272   1.100
61371W        W62235   8.743  13.503   3.340
61372W        W62236   8.604  13.720   1.053
61373W        W62237   8.059  12.461   0.156
61374W        W62238   7.309  14.651   7.066
61375W        W62239   7.831  13.475   6.739
61376W        W62240  10.418  12.733   4.335
61377W        W62241  10.795  14.356   6.363
61378W        W62242   8.628  14.266   3.725
61379W        W62243   8.787  12.409   4.915
61380W        W62244   8.205  12.375   5.451
61381W        W62245   9.093  12.924   4.204
61382W        W62246   8.836  14.288   6.788
61383W        W62247   7.359  11.533   6.658
61384W        W62248   7.913  10.756   6.530
61385W        W62249   9.891  11.443   5.364
61386W        W62250   9.623  12.087   3.875
61387W        W62251  10.029  11.762   6.987
61388W        W62252   7.472  11.192   6.259
61389W        W62253   7.527  14.181   7.245
61390W        W62254   8.937  13.242   3.812
61391W        W62255   7.277  12.084   5.791
61392W        W62256   8.486  12.195   6.888
61393W        W62257  10.640  11.959   5.380
61394W        W62258  10.612  13.038   6.189
61395W        W62259   9.076  12.479   5.387
61396W        W62260   9.598  13.813   5.744
61397W        W62261   7.820  13.035   5.935
61398W        W62262   7.120  12.573   5.739
61399W        W62263   8.479  12.662   6.628
61400W        W62264  10.736  12.432   6.867
61401W        W62265   8.199  13.911   5.434
61402W        W62266   9.486  13.695   6.556
61403W        W62267   8.676  12.271   5.671
61404W        W62268   8.990  12.999   5.463
61405W        W62269   9.643  13.846   7.087
61406W        W62270   9.069  13.017   7.133
61407W        W62271   9.000  12.873   6.642
61408W        W62272   6.999  11.829   6.997
61409W        W62273  10.094  13.617   6.982
61410W        W62274   7.647  11.028   4.719
61411W        W62275   8.482  13.633   5.749
61412W        W62276  10.713  13.385   5.271
61413W        W62277  10.216  11.784   5.675
61414W        W62278  10.493  11.653   3.563
61415W        W62279  10.962  12.440   6.038
61416W        W62280   9.087  14.234   5.994
61417W        W62281  10.919  14.114   4.097
61418W        W62282   7.876  14.601   3.829
61419W        W62283   8.241  14.466   4.727
61420W        W62284   8.031  11.099   6.117
61421W        W62285  10.604  12.306   6.378
61422W        W62286   9.974  12.570   5.066
61423W        W62287   9.958  12.292   3.557
61424W        W62288   9.246  13.688   6.094
61425W        W62289   9.114  11.665   5.141
61426W        W62290   9.582  14.065   6.204
61427W        W62291  10.431  12.696   4.865
61428W        W62292   9.569  11.345   4.471
61429W        W62293   8.145  14.377   4.209
61430W        W62294   7.282  11.360   5.018
61431W        W62295   9.998  12.105   5.349
61432W        W62296   7.708  13.906   5.605
61433W        W62297   9.095  14.177   3.993
61434W        W62298  10.414  12.124   3.422
61435W        W62299   7.521  13.993   6.084
61436W        W62300   8.273  13.670   6.397
61437W        W62301   8.698  13.100   5.062
61438W        W62302   8.396  11.425   5.903
61439W        W62303  10.873  11.130   5.530
61440W        W62304   7.922  12.758   3.376
61441W        W62305   7.650  11.655   3.667
61442W        W62306   8.055  14.022   4.965
61443W        W62307   8.516  13.674   4.893
61444W        W62308  10.335  14.313   6.565
61445W        W62309   9.361  11.776   4.197
61446W        W62310  10.576  14.308   5.423
61447W        W62311  10.212  12.339   6.729
61448W        W62312  10.964  13.830   5.098
61449W        W62313   9.544  13.044   6.491
61450W        W62314   7.082  12.255   4.958
61451W        W62315   8.305  13.252   6.056
61452W        W62316   9.675  12.160   4.377
61453W        W62317   9.532  12.493   4.779
61454W        W62318   7.666  12.107   6.122
61455W        W62319   7.695  11.921   6.582
61456W        W62320   7.731  10.966   5.239
61457W        W62321   9.382  11.464   5.550
61458W        W62322   9.151  11.504   6.819
61459W        W62323   9.595  11.352   3.927
61460W        W62324  10.742  14.210   6.886
61461W        W62325   9.515  11.057   6.764
61462W        W62326  10.599  13.622   7.084
61463W        W62327  10.123  11.587   6.512
61464W        W62328   9.885  11.565   4.828
61465W        W62329  10.349  12.664   7.121
61466W        W62330   7.901  14.344   5.354
61467W        W62331   8.851  11.833   4.183
61468W        W62332   8.123  11.154   6.801
61469W        W62333  10.259  11.832   4.582
61470W        W62334  10.567  12.269   4.513
61471W        W62335   8.399  14.423   7.065
61472W        W62336   8.304  10.811   4.043
61473W        W62337  10.697  11.475   5.184
61474W        W62338  10.779  13.818   3.683
61475W        W62339   7.351  13.002   5.593
61476W        W62340   9.716  11.486   3.421
61477W        W62341  10.840  13.893   5.598
61478W        W62342  10.672  11.127   6.009
61479W        W62343   9.374  12.363   6.698
61480W        W62344   8.898  13.338   4.663
61481W        W62345   9.898  12.785   7.325
61482W        W62346   9.483  10.966   5.416
61483W        W62347   7.773  11.964   5.638
61484W        W62348   7.686  13.090   6.434
61485W        W62349   9.611  14.403   5.176
61486W        W62350  10.555  12.128   5.871
61487W        W62351   9.465  14.394   6.585
61488W        W62352  10.648  12.901   3.764
61489W        W62353   9.128  12.799   4.977
61490W        W62354  10.796  10.997   6.541
61491W        W62355   9.113  13.225   6.273
61492W        W62356   9.154  11.998   5.553
61493W        W62357  10.065  12.430   4.558
61494W        W62358  10.177  12.113   4.146
61495W        W62359  10.586  14.078   4.498
61496W        W62360  10.182  13.404   5.412
61497W        W62361   9.879  12.525   4.041
61498W        W62362   9.466  12.854   5.372
61499W        W62363  10.328  12.902   5.353
61500W        W62364   7.768  11.518   5.940
61501W        W62365  10.420  12.781   6.602
61502W        W62366  10.898  14.341   5.837
61503W        W62367   8.716  13.971   5.284
61504W        W62368   9.915  14.446   6.329
61505W        W62369   9.734  11.722   6.182
61506W        W62370   9.019  14.563   6.362
61507W        W62371  10.625  11.399   4.660
61508W        W62372  10.495  12.637   5.877
61509W        W62373   7.329  11.701   6.140
61510W        W62374  10.256  11.726   5.131
61511W        W62375  10.482  11.911   6.718
61512W        W62376   9.669  13.535   5.298
61513W        W62377   9.097  14.285   5.053
61514W        W62378   7.810  11.195   4.015
61515W        W62379   9.046  11.034   5.710
61516W        W62380   8.167  14.346   3.429
61517W        W62381   8.751  12.838   4.602
61518W        W62382   9.161  13.363   6.764
61519W        W62383   9.093  11.345   4.719
61520W        W62384  10.276  11.231   5.004
61521W        W62385  10.069  14.468   5.417
61522W        W62386   9.428  14.301   5.634
61523W        W62387   8.820  13.259   5.858
61524W        W62388  10.653  13.929   6.104
61525W        W62389   8.251  11.088   4.502
61526W        W62390   8.941  13.839   5.724
61527W        W62391   8.325  11.563   3.448
61528W        W62392   9.081  12.207   6.061
61529W        W62393   9.829  11.130   5.781
61530W        W62394   7.326  12.916   6.090
61531W        W62395   9.004  12.666   3.731
61532W        W62396   8.258  11.047   3.577
61533W        W62397   9.211  12.145   5.009
61534W        W62398   9.813  11.211   6.322
61535W        W62399   8.686  13.310   6.564
61536W        W62400   9.518  12.837   6.957
61537W        W62401  10.004  12.970   6.846
61538W        W62402   9.230  11.161   7.202
61539W        W62403   8.300  11.885   5.655
61540W        W62404   7.785  11.446   5.021
61541W        W62405   7.746  14.434   4.875
61542W        W62406   9.160  13.870   6.941
61543W        W62407   8.240  13.520   4.301
61544W        W62408   9.914  12.683   5.568
61545W        W62409  10.049  12.269   5.827
61546W        W62410   9.322  12.993   5.869
61547W        W62411   9.778  13.278   3.468
61548W        W62412   9.492  11.339   5.048
61549W        W62413  10.772  11.806   4.368
61550W        W62414   7.529  14.322   6.725
61551W        W62415   7.801  13.550   6.206
61552W        W62416   7.687  14.583   4.370
61553W        W62417   9.233  11.707   5.987
61554W        W62418   8.835  13.779   3.775
61555W        W62419  10.482  14.448   4.090
61556W        W62420   9.363  12.490   4.070
61557W        W62421   8.884  11.839   4.719
61558W        W62422   9.339  11.722   3.673
61559W        W62423   9.659  13.348   6.889
61560W        W62424  10.144  11.325   4.453
61561W        W62425   7.390  10.862   3.927
61562W        W62426   8.750  13.653   6.188
61563W        W62427   8.814  13.487   5.366
61564W        W62428   8.445  13.428   3.773
61565W        W62429   7.786  14.088   4.480
61566W        W62430   7.942  12.718   6.719
61567W        W62431   8.612  11.194   6.874
61568W        W62432   9.311  11.309   6.345
61569W        W62433   8.676  11.004   4.816
61570W        W62434  10.173  10.920   4.109
61571W        W62435   7.603  11.018   5.786
61572W        W62436   7.226  11.825   5.327
61573W        W62437  10.363  11.304   5.525
61574W        W62438   7.569  11.453   4.438
61575W        W62439  10.202  11.398   6.015
61576W        W62440  10.772  12.458   3.545
61577W        W62441   8.044  11.402   5.509
61578W        W62442   9.292  11.902   6.473
61579W        W62443   7.297  11.392   3.947
61580W        W62444   8.203  13.155   6.564
61581W        W62445   9.425  12.486   5.770
61582W        W62446   9.389  14.600   4.180
61583W        W62447   7.307  12.681   3.437
61584W        W62448   8.323  13.558   6.902
61585W        W62449   7.694  12.593   6.293
61586W        W62450   8.673  12.922   6.229
61587W        W62451  10.310  11.099   6.424
61588W        W62452  10.911  12.730   6.472
61589W        W62453  10.813  12.505   4.087
61590W        W62454   9.608  12.816   4.374
61591W        W62455  10.205  14.431   3.610
61592W        W62456   9.311  12.444   7.196
61593W        W62457   7.914  13.577   7.249
61594W        W62458  10.957  11.470   7.140
61595W        W62459  10.395  12.409   5.428
61596W        W62460   8.864  14.521   7.249
61597W        W62461   8.738  11.116   3.759
61598W        W62462  10.541  13.378   3.923
61599W        W62463   8.175  11.805   6.709
61600W        W62464   8.721  13.799   6.689
61601W        W62465  10.589  11.544   6.316
61602W        W62466   9.929  14.566   4.042
61603W        W62467  10.225  13.084   5.839
61604W        W62468   8.387  11.424   6.431
61605W        W62469   8.830  12.568   7.021
61606W        W62470   8.284  13.982   4.515
61607W        W62471  10.028  12.935   4.655
61608W        W62472   7.865  11.457   6.455
61609W        W62473   9.018  13.777   4.907
61610W        W62474  10.789  12.370   5.063
61611W        W62475   9.022  10.993   6.677
61612W        W62476  10.033  13.580   5.871
61613W        W62477  10.323  13.983   5.728
61614W        W62478   9.298  13.917   3.511
61615W        W62479   7.450  13.669   7.066
61616W        W62480   8.126  11.828   6.168
61617W        W62481   8.218  11.156   5.075
61618W        W62482   9.639  11.971   5.725
61619W        W62483   8.552  12.908   3.772
61620W        W62484  10.719  13.036   5.650
61621W        W62485   7.863  13.971   6.905
61622W        W62486  10.445  14.568   4.628
61623W        W62487   8.642  11.481   5.042
61624W        W62488   8.428  13.169   5.519
61625W        W62489   8.678  14.590   5.979
61626W        W62490  10.434  14.676   6.923
61627W        W62491   9.750  12.784   6.053
61628W        W62492   7.475  11.976   3.265
61629W        W62493  10.771  14.278   4.940
61630W        W62494  10.372  11.627   4.083
61631W        W62495   8.426  10.890   6.435
61632W        W62496  10.458  13.822   5.270
61633W        W62497  10.315  12.204   4.959
61634W        W62498   8.733  11.992   5.241
61635W        W62499   8.895  12.360   6.538
61636W        W62500   9.960  13.536   6.488
61637W        W62501   8.558  11.982   6.420
61638W        W62502   8.407  14.360   5.234
61639W        W62503   7.890  14.496   7.049
61640W        W62504   8.377  13.917   4.003
61641W        W62505  10.582  13.654   4.802
61642W        W62506   8.119  12.282   6.461
61643W        W62507  10.644  12.043   3.887
61644W        W62508   8.640  13.206   4.231
61645W        W62509   9.791  12.600   6.564
61646W        W62510   9.631  12.259   6.181
61647W        W62511   8.162  12.766   6.237
61648W        W62512  10.371  14.393   6.040
61649W        W62513   9.999  11.210   6.827
61650W        W62514   7.629  11.110   6.786
61651W        W62515   8.099  12.319   5.946
61652W        W62516   8.644  12.101   3.547
61653W        W62517   7.484  13.820   6.579
61654W        W62518   8.926  12.673   5.859
61655W        W62519   8.838  11.617   3.670
61656W        W62520   8.219  12.912   5.113
61657W        W62521   7.543  14.510   6.260
61658W        W62522  10.348  12.489   3.839
61659W        W62523  10.502  11.407   6.853
61660W        W62524  10.075  13.651   4.970
61661W        W62525   7.488  12.370   6.712
61662W        W62526  10.610  11.172   4.181
61663W        W62527  10.412  13.252   4.440
61664W        W62528   9.176  12.196   4.480
61665W        W62529  10.100  11.306   3.764
61666W        W62530  10.205  12.001   6.239
61667W        W62531   7.422  12.313   5.361
61668W        W62532   8.156  13.450   5.177
61669W        W62533   9.831  12.079   4.861
61670W        W62534   8.856  11.550   5.569
61671W        W62535  10.908  13.469   6.162
61672W        W62536  10.726  11.608   5.774
61673W        W62537   7.408  14.314   5.529
61674W        W62538   7.729  13.664   4.771
61675W        W62539   7.753  11.167   7.292
61676W        W62540   8.737  14.005   7.206
61677W        W62541  10.817  12.883   5.154
61678W        W62542  10.163  12.976   3.962
61679W        W62543   9.486  14.587   6.082
61680W        W62544  10.312  13.187   7.192
61681W        W62545   8.750  10.952   4.266
61682W        W62546   9.581  11.829   5.226
61683W        W62547   7.511  13.448   5.785
61684W        W62548   8.657  11.425   4.463
61685W        W62549   8.578  13.045   6.980
61686W        W62550   9.420  11.778   4.717
61687W        W62551   9.634  13.362   6.112
61688W        W62552   7.895  14.075   6.401
61689W        W62553   8.243  13.963   7.238
61690W        W62554   8.354  11.326   4.027
61691W        W62555   9.871  11.702   4.220
61692W        W62556   9.883  14.024   6.659
61693W        W62557   8.615  12.674   5.337
61694W        W62558   8.229  14.386   6.143
61695W        W62559  10.720  14.328   3.644
61696W        W62560   7.578  13.024   6.949
61697W        W62561   9.758  13.177   5.653
61698W        W62562   8.355  13.220   4.704
61699W        W62563   8.655  14.150   6.283
61700W        W62564   9.019  11.173   5.217
61701W        W62565   7.366  13.264   4.611
61702W        W62566   9.087  12.138   3.835
61703W        W62567   7.831  13.070   5.413
61704W        W62568   8.880  11.574   6.367
61705W        W62569  10.596  11.172   3.642
61706W        W62570  10.735  12.996   6.938
61707W        W62571   9.336  14.388   7.084
61708W        W62572  10.869  13.435   6.669
61709W        W62573  10.261  14.106   7.028
61710W        W62574   8.229  14.606   5.678
61711W        W62575  10.845  13.208   4.759
61712W        W62576   9.568  12.351   5.299
61713W        W62577   9.311  10.875   4.907
61714W        W62578   8.661  14.162   4.798
61715W        W62579   8.717  11.850   5.959
61716W        W62580   8.556  11.143   5.470
61717W        W62581   7.453  14.272   4.029
61718W        W62582   9.224  13.305   5.111
61719W        W62583   8.316  14.111   6.681
61720W        W62584   7.827  13.175   4.887
61721W        W62585   7.518  11.429   5.482
61722W        W62586   9.268  13.433   5.625
61723W        W62587   7.188  11.112   4.373
61724W        W62588  10.162  12.533   6.240
61725W        W62589  10.027  11.813   3.717
61726W        W62590  10.550  13.509   5.753
61727W        W62591   9.273  13.887   5.342
61728W        W62592   8.657  14.263   4.267
61729W        W62593   9.710  10.982   3.511
61730W        W62594   7.809  14.355   5.857
61731W        W62595   9.483  11.935   6.971
61732W        W62596   7.792  11.564   6.961
61733W        W62597   7.370  11.818   4.789
61734W        W62598   8.844  12.464   4.185
61735W        W62599   9.804  12.344   7.050
61736W        W62600   8.404  12.743   5.795
61737W        W62601   9.843  11.027   4.828
61738W        W62602   8.918  14.376   5.527
61739W        W62603  10.135  13.959   6.219
61740W        W62604   9.945  13.967   5.378
61741W        W62605   9.880  13.074   5.148
61742W        W62606   9.072  11.359   4.083
61743W        W62607  10.914  11.062   4.969
61744W        W62608   8.395  12.551   3.415
61745W        W62609  10.690  11.882   4.872
61746W        W62610   9.420  12.959   3.785
61747W        W62611  10.380  13.294   6.693
61748W        W62612   9.548  14.326   3.753
61749W        W62613   8.671  11.694   6.824
61750W        W62614   8.563  12.415   6.156
61751W        W62615  10.475  13.819   6.618
61752W        W62616   9.641  11.554   6.679
61753W        W62617   7.162  11.993   6.534
61754W        W62618   9.278  12.651   6.264
61755W        W62619   7.648  13.529   5.270
61756W        W62620   7.631  12.536   5.791
61757W        W62621  10.072  13.060   6.334
61758W        W62622   9.929  14.491   6.864
61759W        W62623   9.818  12.042   6.599
61760W        W62624  10.264  14.205   4.998
61761W        W62625   9.121  14.031   6.454
61762W        W62626   8.516  14.155   5.760
61763W        W62627  10.391  13.494   6.228
61764W        W62628   9.311  13.464   7.276
61765W        W62629   8.006  13.475   5.682
61766W        W62630  10.357  13.207   4.951
61767W        W62631   9.895  14.234   5.842
61768W        W62632   8.093  13.914   5.956
61769W        W62633   8.995  12.073   6.965
61770W        W62634   9.099  14.142   4.525
61771W        W62635   8.816  13.496   7.116
61772W        W62636   8.729  13.756   4.395
61773W        W62637   8.101  12.051   3.314
61774W        W62638   7.229  14.593  10.703
61775W        W62639   7.673  13.540  10.179
61776W        W62640  10.569  13.033   8.008
61777W        W62641  10.671  14.330   9.949
61778W        W62642   8.295  14.353   7.570
61779W        W62643   8.664  12.585   8.461
61780W        W62644   8.105  12.078   8.887
61781W        W62645   9.229  12.925   7.940
61782W        W62646   8.759  14.239  10.153
61783W        W62647   7.327  11.649  10.259
61784W        W62648   7.877  10.818  10.141
61785W        W62649   9.897  11.367   9.044
61786W        W62650   9.537  12.030   7.462
61787W        W62651  10.088  11.729  10.595
61788W        W62652   7.460  11.223   9.948
61789W        W62653   7.507  14.186  10.856
61790W        W62654   8.825  13.714   7.655
61791W        W62655   7.306  12.049   9.344
61792W        W62656   8.525  12.134  10.317
61793W        W62657  10.795  11.859   9.063
61794W        W62658  10.636  13.036   9.818
61795W        W62659   8.969  12.392   8.847
61796W        W62660   9.535  13.754   9.334
61797W        W62661   7.846  12.945   9.607
61798W        W62662   7.150  12.538   9.287
61799W        W62663   8.536  12.640  10.184
61800W        W62664  10.844  12.262  10.262
61801W        W62665   8.142  13.719   8.981
61802W        W62666   9.391  13.561   9.818
61803W        W62667   8.715  12.161   9.282
61804W        W62668   8.771  12.875   8.917
61805W        W62669   9.632  13.942  10.664
61806W        W62670   9.117  13.108  10.779
61807W        W62671   8.993  12.878  10.251
61808W        W62672   6.888  11.910  10.687
61809W        W62673  10.079  13.664  10.402
61810W        W62674   7.732  11.154   8.492
61811W        W62675   8.193  13.343   9.550
61812W        W62676  10.686  13.305   8.868
61813W        W62677  10.315  11.647   9.238
61814W        W62678  10.515  11.691   7.344
61815W        W62679  11.135  12.341   9.843
61816W        W62680   8.835  14.052   9.377
61817W        W62681  10.768  13.522   8.059
61818W        W62682   7.724  14.566   8.061
61819W        W62683   8.101  14.493   8.429
61820W        W62684   7.950  11.184   9.767
61821W        W62685  10.637  12.456   9.817
61822W        W62686   9.931  12.659   8.583
61823W        W62687   9.950  12.324   7.570
61824W        W62688   9.033  13.544   9.443
61825W        W62689   9.093  11.738   8.724
61826W        W62690   9.460  14.067   9.761
61827W        W62691  10.458  12.759   8.470
61828W        W62692   9.540  11.251   8.152
61829W        W62693   7.932  14.096   8.118
61830W        W62694   7.354  11.481   8.567
61831W        W62695   9.901  12.276   8.938
61832W        W62696   7.642  13.804   9.102
61833W        W62697   8.770  14.228   7.677
61834W        W62698  10.294  12.144   7.204
61835W        W62699   7.443  13.871   9.572
61836W        W62700   8.143  13.670   9.957
61837W        W62701   8.721  13.109   8.457
61838W        W62702   8.375  11.309   9.523
61839W        W62703  10.900  11.040   9.153
61840W        W62704   8.076  13.122   7.062
61841W        W62705   7.649  11.653   7.462
61842W        W62706   7.794  13.845   8.599
61843W        W62707   8.451  13.508   8.616
61844W        W62708  10.217  14.178  10.225
61845W        W62709   9.248  12.034   7.936
61846W        W62710  10.574  14.491   8.910
61847W        W62711  10.286  12.260  10.395
61848W        W62712  10.852  13.659   8.542
61849W        W62713   9.575  13.087   9.926
61850W        W62714   7.363  12.577   8.500
61851W        W62715   8.440  12.966   9.784
61852W        W62716   9.524  12.441   8.189
61853W        W62717   9.594  12.944   8.286
61854W        W62718   7.672  12.044   9.741
61855W        W62719   7.717  12.045  10.252
61856W        W62720   7.683  10.987   8.971
61857W        W62721   9.381  11.536   9.177
61858W        W62722   9.204  11.523  10.508
61859W        W62723   9.466  11.610   7.748
61860W        W62724  10.681  14.151  10.452
61861W        W62725   9.523  11.081  10.419
61862W        W62726  10.581  13.615  10.584
61863W        W62727  10.136  11.575  10.107
61864W        W62728   9.901  11.540   8.404
61865W        W62729  10.274  12.683  10.679
61866W        W62730   7.939  14.221   8.921
61867W        W62731   8.873  11.705   7.742
61868W        W62732   8.067  11.259  10.299
61869W        W62733  10.214  11.908   8.202
61870W        W62734  10.574  12.301   8.164
61871W        W62735   8.479  14.431  10.553
61872W        W62736   8.231  11.009   7.964
61873W        W62737  10.626  11.408   8.878
61874W        W62738  10.902  13.840   7.456
61875W        W62739   7.524  12.893   9.178
61876W        W62740   9.640  11.513   7.232
61877W        W62741  10.776  13.894   8.994
61878W        W62742  10.659  11.038   9.643
61879W        W62743   9.411  12.309  10.381
61880W        W62744   8.977  13.393   8.096
61881W        W62745   9.831  12.920  10.725
61882W        W62746   9.484  11.038   9.061
61883W        W62747   7.775  11.894   9.226
61884W        W62748   7.533  13.078  10.021
61885W        W62749   9.441  14.177   8.810
61886W        W62750  10.597  12.012   9.524
61887W        W62751   9.394  14.428  10.127
61888W        W62752  10.651  12.911   7.471
61889W        W62753   9.153  12.724   8.454
61890W        W62754  10.809  11.061  10.145
61891W        W62755   9.063  13.162   9.816
61892W        W62756   9.199  12.031   9.159
61893W        W62757  10.060  12.416   8.132
61894W        W62758  10.388  12.061   7.727
61895W        W62759  10.427  13.837   8.310
61896W        W62760   9.869  13.441   9.007
61897W        W62761   9.803  12.748   7.839
61898W        W62762   9.283  12.816   8.964
61899W        W62763  10.322  12.628   8.980
61900W        W62764   7.533  11.575   9.572
61901W        W62765  10.361  12.753  10.170
61902W        W62766  10.771  14.337   9.374
61903W        W62767   8.637  13.902   8.893
61904W        W62768   9.870  14.413   9.898
61905W        W62769   9.659  11.647   9.761
61906W        W62770   9.028  14.366   9.744
61907W        W62771  10.419  11.446   8.351
61908W        W62772  10.322  12.721   9.510
61909W        W62773   7.164  11.858   9.801
61910W        W62774  10.091  11.803   8.793
61911W        W62775  10.496  11.964  10.035
61912W        W62776   9.498  13.637   8.715
61913W        W62777   8.777  14.190   8.481
61914W        W62778   7.810  11.286   7.800
61915W        W62779   9.046  11.167   9.398
61916W        W62780   7.817  14.511   7.558
61917W        W62781   8.713  12.914   7.979
61918W        W62782   9.036  13.459  10.227
61919W        W62783   9.068  11.310   8.370
61920W        W62784  10.227  11.134   8.702
61921W        W62785  10.038  14.480   9.022
61922W        W62786   9.307  14.226   9.307
61923W        W62787   8.768  13.090   9.393
61924W        W62788  10.580  13.938   9.622
61925W        W62789   8.196  11.356   8.342
61926W        W62790   8.535  13.641   9.321
61927W        W62791   8.284  11.522   7.135
61928W        W62792   9.117  12.212   9.650
61929W        W62793   9.835  11.007   9.458
61930W        W62794   7.328  12.850   9.639
61931W        W62795   8.972  12.691   7.530
61932W        W62796   8.303  11.032   7.291
61933W        W62797   9.143  12.171   8.424
61934W        W62798   9.794  11.198   9.978
61935W        W62799   8.575  13.195  10.216
61936W        W62800   9.447  13.032  10.405
61937W        W62801   9.924  13.174  10.301
61938W        W62802   9.239  11.156  10.864
61939W        W62803   8.320  11.660   9.119
61940W        W62804   7.834  11.598   8.775
61941W        W62805   7.610  14.340   8.525
61942W        W62806   9.239  13.950  10.270
61943W        W62807   7.994  13.499   7.756
61944W        W62808   9.860  12.797   9.160
61945W        W62809  10.035  12.313   9.415
61946W        W62810   9.358  12.911   9.474
61947W        W62811   9.831  13.310   7.364
61948W        W62812   9.491  11.388   8.679
61949W        W62813  10.693  11.777   8.066
61950W        W62814   7.489  14.279  10.355
61951W        W62815   7.708  13.439   9.676
61952W        W62816   7.242  14.443   8.165
61953W        W62817   9.129  11.689   9.614
61954W        W62818   8.345  13.882   7.766
61955W        W62819  10.695  14.021   7.896
61956W        W62820   9.411  12.470   7.694
61957W        W62821   8.871  11.768   8.257
61958W        W62822   9.158  11.688   7.308
61959W        W62823   9.550  13.530  10.314
61960W        W62824  10.067  11.115   8.156
61961W        W62825   7.425  10.939   7.655
61962W        W62826   8.639  13.462   9.787
61963W        W62827   8.355  13.227   9.070
61964W        W62828   8.402  13.488   7.411
61965W        W62829   7.415  13.955   8.246
61966W        W62830   8.067  12.424  10.293
61967W        W62831   8.484  11.010  10.498
61968W        W62832   9.275  11.365  10.023
61969W        W62833   8.608  11.025   8.482
61970W        W62834   9.861  11.283   7.703
61971W        W62835   7.547  11.068   9.466
61972W        W62836   7.404  11.886   8.874
61973W        W62837  10.366  11.109   9.224
61974W        W62838   7.724  11.603   8.229
61975W        W62839  10.165  11.359   9.635
61976W        W62840  10.695  12.385   7.412
61977W        W62841   7.905  11.376   9.247
61978W        W62842   9.326  11.899  10.083
61979W        W62843   7.204  11.420   7.660
61980W        W62844   8.039  13.177  10.027
61981W        W62845   9.511  12.426   9.284
61982W        W62846   9.205  14.529   7.639
61983W        W62847   7.293  12.615   7.139
61984W        W62848   8.198  13.476  10.428
61985W        W62849   7.665  12.552   9.981
61986W        W62850   8.871  12.693   9.779
61987W        W62851  10.290  11.037  10.027
61988W        W62852  10.955  12.765  10.116
61989W        W62853  10.868  12.636   7.869
61990W        W62854   9.726  13.250   7.882
61991W        W62855  10.193  14.519   7.343
61992W        W62856   9.402  12.658  10.752
61993W        W62857   7.775  13.465  10.715
61994W        W62858  10.934  11.513  10.773
61995W        W62859  10.370  12.130   9.076
61996W        W62860   8.826  14.425  10.942
61997W        W62861   8.654  10.955   7.682
61998W        W62862  10.572  13.420   7.585
61999W        W62863   8.180  11.767  10.397
62000W        W62864   8.597  13.753  10.210
62001W        W62865  10.598  11.480   9.901
62002W        W62866  10.365  14.412   7.829
62003W        W62867  10.195  13.177   9.318
62004W        W62868   8.347  11.541   9.979
62005W        W62869   8.928  12.498  10.598
62006W        W62870   8.104  13.622   8.239
62007W        W62871  10.093  12.990   8.195
62008W        W62872   7.804  11.605  10.034
62009W        W62873   8.969  13.687   8.543
62010W        W62874  10.755  12.305   8.781
62011W        W62875   9.007  11.049  10.399
62012W        W62876  10.045  13.695   9.390
62013W        W62877  10.334  14.077   9.185
62014W        W62878   9.199  14.020   7.439
62015W        W62879   7.383  13.765  10.561
62016W        W62880   8.052  11.700   9.597
62017W        W62881   8.157  11.195   8.824
62018W        W62882   9.810  11.858   9.279
62019W        W62883   8.924  13.214   7.588
62020W        W62884  10.696  13.050   9.312
62021W        W62885   7.867  13.910  10.456
62022W        W62886  10.465  14.539   8.357
62023W        W62887   8.619  11.495   8.672
62024W        W62888   8.058  12.773   9.169
62025W        W62889   8.572  14.493   9.539
62026W        W62890  10.312  14.547  10.531
62027W        W62891   9.788  12.684   9.664
62028W        W62892   7.480  11.967   7.050
62029W        W62893  10.779  14.171   8.532
62030W        W62894  10.351  11.469   7.805
62031W        W62895   8.413  11.010   9.982
62032W        W62896  10.308  13.663   8.814
62033W        W62897  10.275  12.277   8.585
62034W        W62898   8.642  11.987   8.805
62035W        W62899   8.968  12.325  10.125
62036W        W62900   9.889  13.528   9.922
62037W        W62901   8.820  11.832  10.020
62038W        W62902   8.425  14.378   8.841
62039W        W62903   7.961  14.365  10.645
62040W        W62904   7.871  13.993   7.594
62041W        W62905  10.435  13.327   8.422
62042W        W62906   8.155  12.040   9.954
62043W        W62907  10.892  11.943   7.614
62044W        W62908   8.493  13.386   7.906
62045W        W62909   9.815  12.669  10.216
62046W        W62910   9.643  12.179   9.745
62047W        W62911   8.140  12.541   9.783
62048W        W62912  10.295  14.417   9.575
62049W        W62913  10.033  11.184  10.481
62050W        W62914   7.570  11.147  10.431
62051W        W62915   8.199  12.170   9.412
62052W        W62916   8.646  11.859   7.301
62053W        W62917   7.286  13.897  10.066
62054W        W62918   9.000  12.585   9.309
62055W        W62919   8.762  11.348   7.349
62056W        W62920   8.294  12.892   8.698
62057W        W62921   7.431  14.411   9.851
62058W        W62922  10.355  12.594   7.756
62059W        W62923  10.510  11.395  10.421
62060W        W62924   9.928  13.412   8.472
62061W        W62925   7.546  12.475  10.492
62062W        W62926  10.601  10.988   7.802
62063W        W62927  10.227  13.469   7.980
62064W        W62928   8.993  12.471   8.019
62065W        W62929  10.144  11.351   7.285
62066W        W62930  10.117  11.886   9.695
62067W        W62931   7.604  12.376   8.968
62068W        W62932   7.968  13.329   8.666
62069W        W62933   9.806  12.100   8.450
62070W        W62934   8.844  11.637   9.171
62071W        W62935  10.858  13.508   9.706
62072W        W62936  10.782  11.491   9.413
62073W        W62937   7.386  14.254   8.975
62074W        W62938   7.552  13.471   8.346
62075W        W62939   7.651  11.204  10.939
62076W        W62940   8.849  14.014  10.608
62077W        W62941  10.807  12.812   8.859
62078W        W62942  10.177  13.064   7.669
62079W        W62943   9.461  14.605   9.633
62080W        W62944  10.252  13.225  10.700
62081W        W62945   8.940  10.856   8.118
62082W        W62946   9.569  11.879   8.827
62083W        W62947   7.326  13.411   9.281
62084W        W62948   8.649  11.322   8.061
62085W        W62949   8.651  12.940  10.656
62086W        W62950   9.427  11.743   8.311
62087W        W62951   9.724  13.281   9.482
62088W        W62952   7.768  14.021   9.952
62089W        W62953   8.348  13.922  10.643
62090W        W62954   8.339  11.409   7.649
62091W        W62955   9.764  12.009   7.944
62092W        W62956   9.745  13.983  10.166
62093W        W62957   8.453  12.459   8.937
62094W        W62958   8.107  14.317   9.706
62095W        W62959  10.683  14.335   7.403
62096W        W62960   7.517  13.020  10.521
62097W        W62961   9.351  13.314   9.108
62098W        W62962   8.221  13.122   8.251
62099W        W62963   8.488  13.981   9.745
62100W        W62964   9.041  11.253   8.881
62101W        W62965   7.250  13.293   7.961
62102W        W62966   9.028  12.156   7.497
62103W        W62967   7.773  12.834   8.737
62104W        W62968   8.796  11.339   9.827
62105W        W62969  10.607  11.149   7.313
62106W        W62970  10.684  12.983  10.518
62107W        W62971   9.273  14.330  10.629
62108W        W62972  10.901  13.400  10.216
62109W        W62973  10.271  14.017  10.733
62110W        W62974   8.126  14.578   9.265
62111W        W62975  10.891  13.117   8.425
62112W        W62976   9.476  12.412   8.722
62113W        W62977   9.231  10.864   8.605
62114W        W62978   8.275  14.009   8.530
62115W        W62979   8.565  11.782   9.581
62116W        W62980   8.590  11.184   9.091
62117W        W62981   7.409  14.165   7.762
62118W        W62982   9.199  13.216   8.609
62119W        W62983   8.238  14.138  10.184
62120W        W62984   7.655  12.980   8.258
62121W        W62985   7.424  11.428   9.086
62122W        W62986   8.839  13.394   8.960
62123W        W62987   7.369  11.233   8.115
62124W        W62988  10.130  12.367   9.911
62125W        W62989   9.997  11.786   7.523
62126W        W62990  10.529  13.563   9.276
62127W        W62991   9.128  13.822   9.021
62128W        W62992   8.441  14.288   8.089
62129W        W62993   9.739  11.006   7.246
62130W        W62994   7.700  14.277   9.388
62131W        W62995   9.604  11.908  10.686
62132W        W62996   7.740  11.605  10.582
62133W        W62997   7.413  12.030   8.386
62134W        W62998   8.571  12.359   7.414
62135W        W62999   9.840  12.377  10.658
62136W        W63000   8.498  12.627   9.411
62137W        W63001   9.760  10.965   8.581
62138W        W63002   8.940  14.333   8.953
62139W        W63003  10.105  13.973   9.790
62140W        W63004   9.877  13.954   8.965
62141W        W63005   9.669  13.063   8.763
62142W        W63006   9.098  11.253   7.809
62143W        W63007  10.908  11.039   8.627
62144W        W63008   8.278  12.632   7.096
62145W        W63009  10.570  11.862   8.597
62146W        W63010   9.444  12.963   7.479
62147W        W63011  10.402  13.285  10.205
62148W        W63012  10.381  13.905   7.490
62149W        W63013   8.690  11.464  10.360
62150W        W63014   8.587  12.261   9.785
62151W        W63015  10.503  13.780  10.108
62152W        W63016   9.670  11.567  10.306
62153W        W63017   7.224  12.163  10.218
62154W        W63018   9.358  12.611   9.941
62155W        W63019   7.480  13.257   8.812
62156W        W63020   7.688  12.472   9.461
62157W        W63021  10.093  13.050   9.833
62158W        W63022   9.815  14.405  10.470
62159W        W63023   9.847  12.041  10.212
62160W        W63024  10.256  14.170   8.669
62161W        W63025   8.973  13.857   9.849
62162W        W63026   8.334  14.116   9.264
62163W        W63027  10.352  13.473   9.733
62164W        W63028   9.203  13.626  10.694
62165W        W63029   7.843  13.311   9.179
62166W        W63030  10.193  13.088   8.801
62167W        W63031   9.824  14.213   9.413
62168W        W63032   7.985  13.833   9.492
62169W        W63033   8.986  11.981  10.513
62170W        W63034   9.040  14.021   8.062
62171W        W63035   8.698  13.485  10.632
62172W        W63036   8.603  13.788   8.197
62173W        W63037   7.947  12.223   6.942
62174W        W63038   7.327  14.610  14.392
62175W        W63039   7.848  13.512  13.940
62176W        W63040  10.415  13.264  11.479
62177W        W63041  10.805  14.300  13.704
62178W        W63042   8.365  14.211  11.063
62179W        W63043   8.589  12.602  12.149
62180W        W63044   8.287  12.154  12.580
62181W        W63045   9.197  12.571  11.796
62182W        W63046   8.844  14.274  14.039
62183W        W63047   7.261  11.658  13.944
62184W        W63048   7.922  10.805  13.851
62185W        W63049   9.906  11.369  12.582
62186W        W63050   9.552  11.993  11.253
62187W        W63051   9.955  11.813  14.216
62188W        W63052   7.383  11.362  13.521
62189W        W63053   7.534  14.161  14.526
62190W        W63054   8.685  13.795  11.052
62191W        W63055   7.392  12.090  13.024
62192W        W63056   8.507  12.249  14.103
62193W        W63057  10.526  11.888  12.825
62194W        W63058  10.592  13.093  13.740
62195W        W63059   9.090  12.435  12.666
62196W        W63060   9.582  13.690  12.964
62197W        W63061   7.842  13.045  13.205
62198W        W63062   7.181  12.548  12.911
62199W        W63063   8.422  12.749  13.916
62200W        W63064  10.510  12.366  14.258
62201W        W63065   8.230  13.866  12.702
62202W        W63066   9.361  13.601  13.805
62203W        W63067   8.730  12.141  12.897
62204W        W63068   8.912  12.972  12.739
62205W        W63069   9.606  13.901  14.517
62206W        W63070   9.061  12.998  14.537
62207W        W63071   8.924  12.863  14.001
62208W        W63072   6.897  11.948  14.224
62209W        W63073  10.045  13.738  14.303
62210W        W63074   7.676  11.139  12.082
62211W        W63075   8.412  13.710  13.195
62212W        W63076  10.674  13.227  12.754
62213W        W63077  10.062  11.681  12.959
62214W        W63078  10.427  11.643  10.975
62215W        W63079  10.874  12.405  13.445
62216W        W63080   9.044  14.239  13.201
62217W        W63081  10.693  13.719  11.485
62218W        W63082   7.623  14.361  11.662
62219W        W63083   8.111  14.445  12.127
62220W        W63084   7.876  11.227  13.584
62221W        W63085  10.428  12.299  13.655
62222W        W63086  10.004  12.492  11.902
62223W        W63087   9.975  12.616  11.104
62224W        W63088   9.263  13.518  13.313
62225W        W63089   9.134  11.801  12.445
62226W        W63090   9.595  13.923  13.449
62227W        W63091  10.449  12.766  12.064
62228W        W63092   9.451  11.319  11.836
62229W        W63093   7.994  14.050  11.823
62230W        W63094   7.387  11.487  12.345
62231W        W63095  10.122  12.266  12.736
62232W        W63096   7.681  13.840  12.769
62233W        W63097   8.798  14.153  11.407
62234W        W63098  10.230  12.132  10.906
62235W        W63099   7.482  13.926  13.257
62236W        W63100   8.300  13.683  13.689
62237W        W63101   8.491  13.033  12.463
62238W        W63102   8.137  11.388  13.188
62239W        W63103  10.730  11.076  12.725
62240W        W63104   8.173  12.922  10.449
62241W        W63105   7.580  11.703  11.084
62242W        W63106   7.867  13.833  12.283
62243W        W63107   8.627  13.523  12.242
62244W        W63108  10.329  14.289  13.980
62245W        W63109   9.255  11.711  11.559
62246W        W63110  10.547  14.170  12.416
62247W        W63111  10.073  12.268  14.017
62248W        W63112  10.870  13.776  12.248
62249W        W63113   9.556  13.131  13.758
62250W        W63114   7.273  12.720  12.075
62251W        W63115   8.310  13.248  13.368
62252W        W63116   9.552  12.209  11.736
62253W        W63117   9.590  12.652  12.172
62254W        W63118   7.698  12.152  13.461
62255W        W63119   7.744  12.154  13.978
62256W        W63120   7.632  11.090  12.595
62257W        W63121   9.359  11.511  12.871
62258W        W63122   9.149  11.585  14.139
62259W        W63123   9.588  11.370  11.314
62260W        W63124  10.795  14.148  14.225
62261W        W63125   9.587  11.126  14.051
62262W        W63126  10.553  13.659  14.393
62263W        W63127  10.093  11.504  13.833
62264W        W63128   9.881  11.543  12.105
62265W        W63129  10.182  12.727  14.488
62266W        W63130   7.942  14.258  12.566
62267W        W63131   8.800  11.714  11.242
62268W        W63132   8.069  11.287  14.066
62269W        W63133  10.203  11.912  11.900
62270W        W63134  10.475  12.333  11.753
62271W        W63135   8.436  14.486  14.290
62272W        W63136   8.239  10.944  11.532
62273W        W63137  10.462  11.462  12.557
62274W        W63138  10.775  13.901  10.971
62275W        W63139   7.508  12.939  12.793
62276W        W63140   9.692  11.411  10.806
62277W        W63141  10.785  13.885  12.767
62278W        W63142  10.670  11.061  13.389
62279W        W63143   9.252  12.469  14.051
62280W        W63144   9.045  13.442  11.851
62281W        W63145   9.704  12.941  14.628
62282W        W63146   9.399  11.026  12.713
62283W        W63147   7.906  12.070  12.952
62284W        W63148   7.559  13.209  13.597
62285W        W63149   9.534  14.117  12.342
62286W        W63150  10.367  11.855  13.357
62287W        W63151   9.373  14.374  13.959
62288W        W63152  10.464  12.931  11.086
62289W        W63153   9.069  12.762  12.265
62290W        W63154  10.798  11.034  13.891
62291W        W63155   9.063  13.181  13.633
62292W        W63156   9.263  12.019  12.910
62293W        W63157   9.983  12.232  11.449
62294W        W63158  10.397  11.944  11.391
62295W        W63159  10.487  13.930  11.946
62296W        W63160  10.045  13.427  12.759
62297W        W63161   9.661  12.785  11.653
62298W        W63162   9.400  12.835  12.655
62299W        W63163  10.359  12.772  12.817
62300W        W63164   7.697  11.678  13.225
62301W        W63165  10.274  12.721  13.945
62302W        W63166  10.736  14.314  13.065
62303W        W63167   8.721  13.900  12.579
62304W        W63168   9.876  14.465  13.791
62305W        W63169   9.636  11.659  13.335
62306W        W63170   9.003  14.543  13.628
62307W        W63171  10.381  11.428  12.031
62308W        W63172  10.417  12.743  13.408
62309W        W63173   7.234  11.850  13.445
62310W        W63174  10.136  11.833  12.450
62311W        W63175  10.414  11.883  13.930
62312W        W63176   9.508  13.550  12.466
62313W        W63177   8.825  14.231  12.188
62314W        W63178   7.828  11.263  11.431
62315W        W63179   8.977  11.183  13.040
62316W        W63180   7.880  14.386  11.202
62317W        W63181   8.709  13.079  11.994
62318W        W63182   9.058  13.352  14.135
62319W        W63183   9.011  11.464  12.045
62320W        W63184  10.234  11.062  12.346
62321W        W63185   9.913  14.387  12.685
62322W        W63186   9.518  14.208  12.982
62323W        W63187   8.799  13.268  13.181
62324W        W63188  10.509  13.951  13.374
62325W        W63189   8.129  11.316  11.878
62326W        W63190   8.889  13.775  13.055
62327W        W63191   8.187  11.384  10.775
62328W        W63192   9.015  12.190  13.331
62329W        W63193   9.762  11.242  13.049
62330W        W63194   7.309  12.922  13.264
62331W        W63195   9.019  12.651  11.092
62332W        W63196   8.343  10.946  10.994
62333W        W63197   9.282  12.252  12.222
62334W        W63198   9.782  11.191  13.564
62335W        W63199   8.574  13.254  13.822
62336W        W63200   9.416  12.928  14.192
62337W        W63201   9.917  13.038  14.151
62338W        W63202   9.185  11.207  14.498
62339W        W63203   8.348  11.771  12.914
62340W        W63204   7.866  11.635  12.245
62341W        W63205   7.622  14.268  12.163
62342W        W63206   9.188  13.900  14.211
62343W        W63207   7.853  13.633  11.547
62344W        W63208  10.041  12.670  12.409
62345W        W63209   9.859  12.705  12.895
62346W        W63210   9.226  13.000  13.162
62347W        W63211   9.774  13.438  10.773
62348W        W63212   9.444  11.401  12.359
62349W        W63213  10.694  11.739  11.767
62350W        W63214   7.570  14.304  14.002
62351W        W63215   7.882  13.558  13.419
62352W        W63216   7.117  14.209  11.576
62353W        W63217   9.113  11.683  13.305
62354W        W63218   8.333  13.877  11.461
62355W        W63219  10.392  14.078  11.268
62356W        W63220   9.496  12.492  11.265
62357W        W63221   8.978  11.981  11.909
62358W        W63222   9.254  11.660  11.005
62359W        W63223   9.583  13.436  14.244
62360W        W63224   9.940  11.228  11.697
62361W        W63225   7.378  10.884  11.263
62362W        W63226   8.811  13.622  13.538
62363W        W63227   8.559  13.441  12.768
62364W        W63228   8.266  13.508  10.952
62365W        W63229   7.489  13.847  11.858
62366W        W63230   7.953  12.616  14.077
62367W        W63231   8.574  11.235  14.095
62368W        W63232   9.299  11.313  13.610
62369W        W63233   8.644  11.087  12.155
62370W        W63234   9.546  10.896  11.574
62371W        W63235   7.649  11.166  13.115
62372W        W63236   7.559  11.940  12.566
62373W        W63237  10.253  11.102  12.904
62374W        W63238   7.610  11.571  11.796
62375W        W63239  10.209  11.352  13.342
62376W        W63240  10.452  12.443  11.245
62377W        W63241   7.888  11.527  12.758
62378W        W63242   9.144  11.944  13.764
62379W        W63243   7.313  11.382  11.401
62380W        W63244   8.035  13.070  13.753
62381W        W63245   9.401  12.510  13.078
62382W        W63246   9.224  14.468  11.308
62383W        W63247   7.113  12.257  11.020
62384W        W63248   8.312  13.542  14.181
62385W        W63249   7.692  12.677  13.630
62386W        W63250   8.682  12.864  13.490
62387W        W63251  10.292  11.048  13.774
62388W        W63252  10.784  12.647  13.893
62389W        W63253  10.680  12.814  11.592
62390W        W63254   9.447  13.124  12.039
62391W        W63255  10.096  14.426  10.995
62392W        W63256   9.334  12.557  14.582
62393W        W63257   7.874  13.524  14.464
62394W        W63258  10.991  11.463  14.427
62395W        W63259  10.454  12.312  13.132
62396W        W63260   8.766  14.687  14.644
62397W        W63261   8.712  10.921  11.336
62398W        W63262  10.331  13.594  11.065
62399W        W63263   8.167  11.868  13.965
62400W        W63264   8.721  13.786  13.997
62401W        W63265  10.589  11.482  13.661
62402W        W63266  10.147  14.238  11.690
62403W        W63267  10.136  13.110  13.145
62404W        W63268   8.326  11.498  13.676
62405W        W63269   8.849  12.535  14.401
62406W        W63270   8.223  13.582  11.917
62407W        W63271   9.997  13.020  11.989
62408W        W63272   7.739  11.698  13.726
62409W        W63273   9.093  13.790  12.224
62410W        W63274  10.640  12.347  12.653
62411W        W63275   9.059  11.102  14.012
62412W        W63276  10.024  13.799  13.173
62413W        W63277  10.314  14.085  12.873
62414W        W63278   9.164  14.027  11.032
62415W        W63279   7.439  13.724  14.218
62416W        W63280   8.151  11.892  13.393
62417W        W63281   8.122  11.211  12.400
62418W        W63282   9.756  12.094  13.056
62419W        W63283   8.720  13.257  11.091
62420W        W63284  10.650  13.158  13.243
62421W        W63285   7.919  13.968  14.204
62422W        W63286  10.520  14.462  11.969
62423W        W63287   8.619  11.642  12.387
62424W        W63288   8.025  13.006  12.719
62425W        W63289   8.629  14.572  13.282
62426W        W63290  10.579  14.622  14.260
62427W        W63291   9.690  12.866  13.344
62428W        W63292   7.402  11.990  10.672
62429W        W63293  10.968  14.259  12.111
62430W        W63294  10.355  11.450  11.513
62431W        W63295   8.384  11.002  13.676
62432W        W63296  10.423  13.650  12.478
62433W        W63297  10.314  12.284  12.251
62434W        W63298   8.772  12.159  12.370
62435W        W63299   8.820  12.422  13.744
62436W        W63300   9.879  13.537  13.837
62437W        W63301   8.610  11.952  13.646
62438W        W63302   8.448  14.347  12.537
62439W        W63303   7.919  14.474  14.361
62440W        W63304   7.937  13.914  10.984
62441W        W63305  10.386  13.413  11.971
62442W        W63306   8.164  12.315  13.708
62443W        W63307  10.807  11.966  11.058
62444W        W63308   8.585  13.421  11.578
62445W        W63309   9.732  12.630  13.803
62446W        W63310   9.508  12.228  13.491
62447W        W63311   8.183  12.729  13.406
62448W        W63312  10.368  14.430  13.471
62449W        W63313  10.057  11.278  14.317
62450W        W63314   7.574  11.235  14.022
62451W        W63315   8.147  12.528  12.925
62452W        W63316   8.560  11.771  10.753
62453W        W63317   7.432  13.710  13.705
62454W        W63318   8.882  12.618  13.099
62455W        W63319   8.740  11.293  10.886
62456W        W63320   8.136  12.625  12.404
62457W        W63321   7.643  14.415  13.477
62458W        W63322  10.176  12.799  11.536
62459W        W63323  10.532  11.425  14.162
62460W        W63324   9.973  13.541  12.240
62461W        W63325   7.434  12.537  14.164
62462W        W63326  10.511  10.974  11.346
62463W        W63327  10.174  13.717  11.571
62464W        W63328   9.094  12.185  11.409
62465W        W63329  10.072  11.253  11.144
62466W        W63330   9.948  11.963  13.624
62467W        W63331   7.658  12.460  12.624
62468W        W63332   8.158  13.436  12.427
62469W        W63333   9.806  12.132  12.193
62470W        W63334   8.864  11.660  12.850
62471W        W63335  10.799  13.542  13.559
62472W        W63336  10.675  11.498  13.130
62473W        W63337   7.320  14.222  12.576
62474W        W63338   7.751  13.400  12.048
62475W        W63339   7.678  11.277  14.562
62476W        W63340   8.864  14.184  14.548
62477W        W63341  10.764  12.804  12.491
62478W        W63342  10.008  13.156  11.165
62479W        W63343   9.476  14.446  13.452
62480W        W63344  10.207  13.257  14.541
62481W        W63345   9.033  10.930  11.739
62482W        W63346   9.643  11.833  12.586
62483W        W63347   7.519  13.428  13.076
62484W        W63348   8.659  11.298  11.685
62485W        W63349   8.610  13.130  14.314
62486W        W63350   9.446  11.798  12.034
62487W        W63351   9.764  13.403  13.368
62488W        W63352   7.869  14.000  13.684
62489W        W63353   8.409  13.980  14.414
62490W        W63354   8.373  11.380  11.266
62491W        W63355   9.792  11.736  11.633
62492W        W63356   9.677  13.975  13.999
62493W        W63357   8.593  12.570  12.661
62494W        W63358   8.201  14.330  13.449
62495W        W63359  10.599  14.386  10.923
62496W        W63360   7.611  13.024  14.066
62497W        W63361   9.637  13.185  12.932
62498W        W63362   8.168  13.065  12.070
62499W        W63363   8.649  14.107  13.531
62500W        W63364   8.971  11.279  12.530
62501W        W63365   6.921  13.195  11.388
62502W        W63366   9.249  12.199  10.899
62503W        W63367   7.709  12.919  12.311
62504W        W63368   8.844  11.494  13.729
62505W        W63369  10.560  11.179  10.887
62506W        W63370  10.571  12.997  14.264
62507W        W63371   9.373  14.363  14.482
62508W        W63372  10.841  13.422  14.049
62509W        W63373  10.361  14.128  14.485
62510W        W63374   8.139  14.517  12.972
62511W        W63375  10.772  13.269  12.268
62512W        W63376   9.608  12.352  12.617
62513W        W63377   9.216  10.958  12.213
62514W        W63378   8.355  13.979  12.206
62515W        W63379   8.627  11.505  13.268
62516W        W63380   8.498  11.292  12.761
62517W        W63381   7.522  13.983  11.334
62518W        W63382   9.061  13.274  12.348
62519W        W63383   8.319  14.135  13.930
62520W        W63384   7.348  13.345  11.716
62521W        W63385   7.375  11.556  12.852
62522W        W63386   9.164  13.407  12.825
62523W        W63387   7.180  11.319  11.902
62524W        W63388   9.992  12.438  13.376
62525W        W63389   9.961  11.746  11.130
62526W        W63390  10.455  13.586  13.024
62527W        W63391   9.217  13.922  12.698
62528W        W63392   8.472  14.287  11.794
62529W        W63393   9.676  10.916  11.023
62530W        W63394   7.638  14.315  12.962
62531W        W63395   9.487  12.062  14.457
62532W        W63396   7.738  11.683  14.233
62533W        W63397   7.432  11.984  12.072
62534W        W63398   8.750  12.191  10.982
62535W        W63399   9.744  12.527  14.301
62536W        W63400   8.458  12.936  12.994
62537W        W63401   9.748  11.027  12.165
62538W        W63402   8.941  14.356  12.699
62539W        W63403  10.073  13.988  13.652
62540W        W63404   9.904  13.888  12.628
62541W        W63405   9.775  13.103  12.446
62542W        W63406   9.076  11.282  11.346
62543W        W63407  10.724  10.982  12.213
62544W        W63408   8.408  12.477  10.681
62545W        W63409  10.613  11.885  12.276
62546W        W63410   9.513  12.990  11.133
62547W        W63411  10.305  13.372  14.038
62548W        W63412   9.919  13.928  11.109
62549W        W63413   8.637  11.738  14.127
62550W        W63414   8.496  12.338  13.309
62551W        W63415  10.519  13.823  13.892
62552W        W63416   9.598  11.624  13.871
62553W        W63417   7.257  12.164  13.845
62554W        W63418   9.237  12.683  13.570
62555W        W63419   7.675  13.373  12.569
62556W        W63420   7.674  12.553  13.127
62557W        W63421  10.058  13.065  13.652
62558W        W63422   9.908  14.342  14.305
62559W        W63423   9.597  12.118  13.974
62560W        W63424  10.077  14.143  12.212
62561W        W63425   9.132  14.027  13.670
62562W        W63426   8.536  14.164  13.006
62563W        W63427  10.288  13.496  13.513
62564W        W63428   9.255  13.463  14.643
62565W        W63429   8.035  13.463  12.943
62566W        W63430  10.296  13.127  12.415
62567W        W63431   9.948  14.308  13.229
62568W        W63432   7.991  13.991  13.146
62569W        W63433   9.006  12.068  14.247
62570W        W63434   9.162  14.106  11.800
62571W        W63435   8.799  13.640  14.475
62572W        W63436   8.709  13.844  11.846
62573W        W63437   7.938  12.107  10.707
62574W        W63438   7.274  14.686  18.020
62575W        W63439   7.781  13.597  17.549
62576W        W63440  10.654  12.998  15.452
62577W        W63441  10.685  14.276  17.438
62578W        W63442   8.385  14.328  14.792
62579W        W63443   8.709  12.396  15.570
62580W        W63444   8.215  12.163  16.232
62581W        W63445   9.101  12.732  15.427
62582W        W63446   8.713  14.229  17.668
62583W        W63447   7.356  11.701  17.586
62584W        W63448   7.924  10.864  17.506
62585W        W63449   9.843  11.379  16.261
62586W        W63450   9.520  12.203  14.950
62587W        W63451  10.025  11.721  17.869
62588W        W63452   7.430  11.324  17.241
62589W        W63453   7.473  14.227  18.166
62590W        W63454   8.822  13.579  14.978
62591W        W63455   7.345  12.099  16.679
62592W        W63456   8.584  12.255  17.802
62593W        W63457  10.595  11.801  16.498
62594W        W63458  10.623  13.047  17.137
62595W        W63459   9.029  12.387  16.310
62596W        W63460   9.588  13.771  16.602
62597W        W63461   7.893  13.098  16.826
62598W        W63462   7.129  12.580  16.633
62599W        W63463   8.573  12.592  17.429
62600W        W63464  10.551  12.406  17.765
62601W        W63465   8.289  13.919  16.354
62602W        W63466   9.389  13.648  17.330
62603W        W63467   8.650  12.117  16.537
62604W        W63468   8.791  13.073  16.242
62605W        W63469   9.647  13.969  18.053
62606W        W63470   9.037  12.954  18.154
62607W        W63471   9.046  12.868  17.590
62608W        W63472   7.360  12.020  17.992
62609W        W63473  10.066  13.743  17.830
62610W        W63474   7.708  11.176  15.801
62611W        W63475   8.349  13.699  16.846
62612W        W63476  10.724  13.370  16.227
62613W        W63477  10.036  11.730  16.655
62614W        W63478  10.289  11.709  14.594
62615W        W63479  10.893  12.582  17.101
62616W        W63480   9.004  14.195  16.836
62617W        W63481  10.798  13.937  15.318
62618W        W63482   7.681  14.424  15.350
62619W        W63483   8.002  14.389  15.769
62620W        W63484   7.932  11.213  17.087
62621W        W63485  10.455  12.288  17.241
62622W        W63486   9.928  12.589  15.927
62623W        W63487   9.932  12.527  14.927
62624W        W63488   9.169  13.664  16.863
62625W        W63489   9.034  11.715  16.033
62626W        W63490   9.482  14.085  17.068
62627W        W63491  10.406  12.655  15.765
62628W        W63492   9.552  11.373  15.416
62629W        W63493   7.886  13.958  15.429
62630W        W63494   7.370  11.580  15.861
62631W        W63495   9.980  12.152  16.333
62632W        W63496   7.653  13.888  16.419
62633W        W63497   8.739  14.090  15.066
62634W        W63498  10.069  12.198  14.540
62635W        W63499   7.487  13.932  16.906
62636W        W63500   8.254  13.777  17.349
62637W        W63501   8.502  12.954  15.809
62638W        W63502   8.376  11.333  16.838
62639W        W63503  10.818  11.085  16.485
62640W        W63504   8.098  13.084  14.259
62641W        W63505   7.617  11.767  14.729
62642W        W63506   7.781  13.951  15.932
62643W        W63507   8.584  13.469  15.901
62644W        W63508  10.206  14.230  17.635
62645W        W63509   9.267  11.769  15.152
62646W        W63510  10.558  14.317  16.236
62647W        W63511  10.063  12.152  17.587
62648W        W63512  10.942  13.780  15.881
62649W        W63513   9.555  13.162  17.416
62650W        W63514   7.197  12.705  15.744
62651W        W63515   8.278  13.274  17.149
62652W        W63516   9.521  12.334  15.441
62653W        W63517   9.441  12.690  15.807
62654W        W63518   7.724  12.116  17.045
62655W        W63519   7.723  12.097  17.563
62656W        W63520   7.672  11.023  16.298
62657W        W63521   9.358  11.438  16.483
62658W        W63522   9.153  11.562  17.752
62659W        W63523   9.512  11.384  14.895
62660W        W63524  10.797  14.065  17.891
62661W        W63525   9.493  11.155  17.733
62662W        W63526  10.540  13.631  18.024
62663W        W63527  10.139  11.608  17.389
62664W        W63528   9.865  11.600  15.779
62665W        W63529  10.304  12.749  18.071
62666W        W63530   7.951  14.294  16.280
62667W        W63531   8.766  11.781  15.003
62668W        W63532   8.081  11.287  17.749
62669W        W63533  10.247  11.811  15.503
62670W        W63534  10.559  12.237  15.471
62671W        W63535   8.272  14.441  17.993
62672W        W63536   8.209  11.022  15.260
62673W        W63537  10.666  11.435  16.144
62674W        W63538  10.779  13.920  14.779
62675W        W63539   7.490  12.968  16.528
62676W        W63540   9.591  11.514  14.398
62677W        W63541  10.829  13.896  16.402
62678W        W63542  10.774  11.011  17.102
62679W        W63543   9.278  12.529  17.907
62680W        W63544   9.201  13.574  15.326
62681W        W63545   9.839  12.891  18.252
62682W        W63546   9.501  10.983  16.261
62683W        W63547   7.816  11.927  16.511
62684W        W63548   7.781  13.136  17.322
62685W        W63549   9.630  14.204  16.113
62686W        W63550  10.431  11.793  17.012
62687W        W63551   9.365  14.396  17.485
62688W        W63552  10.507  12.948  14.856
62689W        W63553   8.935  12.702  15.916
62690W        W63554  11.035  11.006  17.565
62691W        W63555   9.104  13.226  17.175
62692W        W63556   9.143  11.927  16.488
62693W        W63557  10.034  12.290  15.437
62694W        W63558  10.190  12.031  15.026
62695W        W63559  10.334  13.820  15.552
62696W        W63560  10.204  13.433  16.374
62697W        W63561   9.815  12.751  15.434
62698W        W63562   9.279  12.843  16.277
62699W        W63563  10.267  12.593  16.362
62700W        W63564   7.573  11.649  16.876
62701W        W63565  10.375  12.805  17.521
62702W        W63566  10.800  14.326  16.709
62703W        W63567   8.727  13.949  16.077
62704W        W63568   9.866  14.463  17.283
62705W        W63569   9.631  11.658  17.027
62706W        W63570   8.911  14.523  17.245
62707W        W63571  10.553  11.387  15.613
62708W        W63572  10.334  12.690  16.918
62709W        W63573   7.217  11.914  17.139
62710W        W63574  10.214  11.716  16.146
62711W        W63575  10.514  11.902  17.602
62712W        W63576   9.559  13.657  16.071
62713W        W63577   9.132  14.202  15.878
62714W        W63578   7.785  11.335  15.074
62715W        W63579   9.050  11.049  16.687
62716W        W63580   7.882  14.452  14.881
62717W        W63581   8.619  12.827  15.282
62718W        W63582   9.121  13.370  17.670
62719W        W63583   9.054  11.392  15.587
62720W        W63584  10.246  11.188  15.994
62721W        W63585  10.069  14.418  16.366
62722W        W63586   9.441  14.268  16.586
62723W        W63587   8.817  13.289  16.728
62724W        W63588  10.649  13.941  17.048
62725W        W63589   8.210  11.329  15.675
62726W        W63590   8.764  13.808  16.578
62727W        W63591   8.223  11.644  14.432
62728W        W63592   9.046  12.175  16.936
62729W        W63593   9.810  11.242  16.756
62730W        W63594   7.404  12.934  17.040
62731W        W63595   8.957  12.657  14.921
62732W        W63596   8.268  11.140  14.514
62733W        W63597   9.169  12.242  15.817
62734W        W63598   9.817  11.226  17.280
62735W        W63599   8.660  13.198  17.500
62736W        W63600   9.465  13.030  17.911
62737W        W63601   9.933  12.964  17.729
62738W        W63602   9.156  11.238  18.146
62739W        W63603   8.319  11.708  16.467
62740W        W63604   7.853  11.591  16.094
62741W        W63605   7.484  14.350  15.801
62742W        W63606   9.197  13.886  17.791
62743W        W63607   8.460  13.325  15.222
62744W        W63608   9.778  12.788  16.377
62745W        W63609   9.898  12.463  16.757
62746W        W63610   9.291  13.071  16.724
62747W        W63611   9.779  13.458  14.733
62748W        W63612   9.425  11.396  15.953
62749W        W63613  10.811  11.762  15.370
62750W        W63614   7.387  14.295  17.661
62751W        W63615   7.858  13.588  17.046
62752W        W63616   7.145  14.279  15.336
62753W        W63617   9.117  11.618  16.908
62754W        W63618   8.306  13.828  15.132
62755W        W63619  10.432  14.227  15.044
62756W        W63620   9.461  12.724  15.058
62757W        W63621   8.870  11.876  15.543
62758W        W63622   9.160  11.698  14.646
62759W        W63623   9.598  13.527  17.784
62760W        W63624  10.087  11.307  15.394
62761W        W63625   7.384  10.962  14.917
62762W        W63626   8.739  13.590  17.142
62763W        W63627   8.447  13.422  16.400
62764W        W63628   8.354  13.525  14.706
62765W        W63629   7.384  13.897  15.557
62766W        W63630   8.108  12.454  17.708
62767W        W63631   8.575  11.256  17.837
62768W        W63632   9.302  11.312  17.284
62769W        W63633   8.669  11.062  15.764
62770W        W63634   9.795  10.976  15.101
62771W        W63635   7.517  11.138  16.778
62772W        W63636   7.391  11.965  16.192
62773W        W63637  10.324  11.319  16.500
62774W        W63638   7.793  11.621  15.548
62775W        W63639  10.289  11.278  17.006
62776W        W63640  10.451  12.425  14.814
62777W        W63641   7.918  11.406  16.580
62778W        W63642   9.203  11.873  17.343
62779W        W63643   7.260  11.464  14.940
62780W        W63644   8.197  12.940  17.559
62781W        W63645   9.380  12.527  16.677
62782W        W63646   9.119  14.439  14.943
62783W        W63647   7.043  12.410  14.568
62784W        W63648   8.261  13.433  17.719
62785W        W63649   7.746  12.594  17.349
62786W        W63650   8.680  12.937  17.073
62787W        W63651  10.335  11.021  17.447
62788W        W63652  10.884  12.863  17.548
62789W        W63653  10.810  12.593  15.170
62790W        W63654   9.450  13.113  15.454
62791W        W63655  10.295  14.584  14.686
62792W        W63656   9.462  12.579  18.367
62793W        W63657   7.874  13.568  18.046
62794W        W63658  10.942  11.329  17.968
62795W        W63659  10.350  12.206  16.711
62796W        W63660   8.786  14.397  18.158
62797W        W63661   8.596  11.004  14.907
62798W        W63662  10.244  13.736  14.811
62799W        W63663   8.195  11.912  17.650
62800W        W63664   8.718  13.707  17.628
62801W        W63665  10.649  11.446  17.359
62802W        W63666  10.053  14.621  15.135
62803W        W63667  10.015  13.084  16.727
62804W        W63668   8.322  11.511  17.339
62805W        W63669   8.855  12.473  18.182
62806W        W63670   8.171  13.545  15.561
62807W        W63671  10.153  13.098  15.570
62808W        W63672   7.822  11.635  17.368
62809W        W63673   9.080  13.667  15.836
62810W        W63674  10.656  12.321  16.122
62811W        W63675   9.004  11.069  17.654
62812W        W63676  10.049  13.644  16.808
62813W        W63677  10.372  14.026  16.620
62814W        W63678   9.196  13.930  14.853
62815W        W63679   7.413  13.771  17.905
62816W        W63680   8.091  11.766  16.939
62817W        W63681   8.145  11.157  16.149
62818W        W63682   9.603  12.045  16.680
62819W        W63683   8.647  13.085  14.819
62820W        W63684  10.493  13.043  16.571
62821W        W63685   7.829  14.055  17.788
62822W        W63686  10.350  14.585  15.578
62823W        W63687   8.560  11.479  16.053
62824W        W63688   8.020  13.081  16.322
62825W        W63689   8.438  14.641  17.047
62826W        W63690  10.552  14.537  17.930
62827W        W63691   9.646  12.839  17.010
62828W        W63692   7.381  12.045  14.344
62829W        W63693  10.647  14.176  15.751
62830W        W63694  10.429  11.567  15.085
62831W        W63695   8.443  10.992  17.390
62832W        W63696  10.446  13.808  16.081
62833W        W63697  10.238  12.179  15.891
62834W        W63698   8.699  12.115  16.016
62835W        W63699   9.068  12.360  17.463
62836W        W63700   9.905  13.548  17.362
62837W        W63701   8.680  12.043  17.346
62838W        W63702   8.445  14.374  16.094
62839W        W63703   7.776  14.554  17.885
62840W        W63704   7.990  13.970  14.730
62841W        W63705  10.527  13.392  15.765
62842W        W63706   8.194  12.233  17.248
62843W        W63707  10.689  11.959  14.871
62844W        W63708   8.870  13.224  15.519
62845W        W63709   9.528  12.665  17.493
62846W        W63710   9.519  12.301  17.130
62847W        W63711   8.181  12.734  17.078
62848W        W63712  10.330  14.395  17.010
62849W        W63713   9.990  11.204  17.774
62850W        W63714   7.578  11.214  17.714
62851W        W63715   8.153  12.264  16.737
62852W        W63716   8.581  12.012  14.564
62853W        W63717   7.354  13.852  17.396
62854W        W63718   8.894  12.751  16.642
62855W        W63719   8.707  11.437  14.569
62856W        W63720   8.075  12.645  16.059
62857W        W63721   7.416  14.385  17.157
62858W        W63722  10.305  12.678  15.256
62859W        W63723  10.450  11.430  17.838
62860W        W63724  10.040  13.519  15.897
62861W        W63725   7.581  12.483  17.859
62862W        W63726  10.572  11.085  15.136
62863W        W63727  10.421  13.400  15.217
62864W        W63728   9.074  12.244  15.245
62865W        W63729  10.031  11.348  14.844
62866W        W63730   9.983  12.052  17.079
62867W        W63731   7.542  12.457  16.335
62868W        W63732   8.082  13.555  16.059
62869W        W63733   9.750  12.106  15.825
62870W        W63734   8.813  11.531  16.504
62871W        W63735  10.930  13.460  17.060
62872W        W63736  10.788  11.457  16.845
62873W        W63737   7.318  14.246  16.263
62874W        W63738   7.672  13.501  15.710
62875W        W63739   7.679  11.260  18.224
62876W        W63740   8.760  13.871  18.110
62877W        W63741  10.713  12.829  16.166
62878W        W63742  10.019  13.054  15.030
62879W        W63743   9.415  14.618  16.956
62880W        W63744  10.178  13.268  18.117
62881W        W63745   8.908  10.928  15.329
62882W        W63746   9.570  11.824  16.202
62883W        W63747   7.482  13.455  16.699
62884W        W63748   8.611  11.365  15.327
62885W        W63749   8.602  12.826  17.888
62886W        W63750   9.381  11.808  15.651
62887W        W63751   9.629  13.376  16.951
62888W        W63752   7.811  14.054  17.275
62889W        W63753   8.315  13.932  17.857
62890W        W63754   8.298  11.446  14.924
62891W        W63755   9.766  11.855  15.303
62892W        W63756   9.715  14.007  17.535
62893W        W63757   8.552  12.589  16.276
62894W        W63758   7.919  14.494  17.032
62895W        W63759  10.779  14.418  14.692
62896W        W63760   7.668  12.999  17.806
62897W        W63761   9.671  13.294  16.416
62898W        W63762   8.005  13.113  15.806
62899W        W63763   8.560  14.122  17.116
62900W        W63764   9.003  11.188  16.158
62901W        W63765   7.263  13.410  15.383
62902W        W63766   9.037  12.175  14.747
62903W        W63767   7.598  12.885  16.036
62904W        W63768   8.826  11.488  17.343
62905W        W63769  10.556  11.254  14.653
62906W        W63770  10.669  13.118  17.955
62907W        W63771   9.282  14.366  18.005
62908W        W63772  10.782  13.371  17.528
62909W        W63773  10.325  14.103  18.120
62910W        W63774   8.146  14.643  16.602
62911W        W63775  10.965  13.117  15.843
62912W        W63776   9.526  12.359  16.210
62913W        W63777   9.248  10.944  15.769
62914W        W63778   8.299  13.971  15.795
62915W        W63779   8.617  11.781  16.922
62916W        W63780   8.575  11.081  16.429
62917W        W63781   7.507  14.051  15.033
62918W        W63782   9.202  13.169  15.903
62919W        W63783   8.210  14.286  17.481
62920W        W63784   7.563  13.009  15.528
62921W        W63785   7.430  11.489  16.392
62922W        W63786   9.164  13.423  16.360
62923W        W63787   7.393  11.329  15.412
62924W        W63788   9.983  12.551  17.278
62925W        W63789   9.800  11.804  14.772
62926W        W63790  10.585  13.550  16.694
62927W        W63791   9.189  13.927  16.312
62928W        W63792   8.693  14.258  15.596
62929W        W63793   9.663  11.009  14.564
62930W        W63794   7.596  14.371  16.658
62931W        W63795   9.515  12.106  18.154
62932W        W63796   7.765  11.669  17.888
62933W        W63797   7.358  12.175  15.719
62934W        W63798   8.608  12.294  15.030
62935W        W63799   9.811  12.492  17.910
62936W        W63800   8.402  12.955  16.645
62937W        W63801   9.783  11.076  15.789
62938W        W63802   8.964  14.392  16.345
62939W        W63803  10.138  13.969  17.203
62940W        W63804   9.987  13.892  16.307
62941W        W63805   9.730  13.094  15.931
62942W        W63806   9.011  11.322  14.995
62943W        W63807  10.841  11.018  15.877
62944W        W63808   8.352  12.647  14.423
62945W        W63809  10.616  11.854  15.851
62946W        W63810   9.109  13.133  15.054
62947W        W63811  10.292  13.318  17.629
62948W        W63812   9.950  14.200  14.802
62949W        W63813   8.669  11.745  17.776
62950W        W63814   8.600  12.433  16.944
62951W        W63815  10.492  13.808  17.548
62952W        W63816   9.633  11.637  17.544
62953W        W63817   7.220  12.218  17.547
62954W        W63818   9.148  12.707  17.099
62955W        W63819   7.621  13.381  16.208
62956W        W63820   7.732  12.588  16.812
62957W        W63821  10.058  13.076  17.227
62958W        W63822   9.790  14.430  17.849
62959W        W63823   9.534  12.147  17.632
62960W        W63824  10.149  14.206  15.904
62961W        W63825   9.026  14.006  17.315
62962W        W63826   8.530  14.299  16.622
62963W        W63827  10.390  13.496  17.160
62964W        W63828   9.184  13.476  18.167
62965W        W63829   7.975  13.533  16.557
62966W        W63830  10.230  13.026  16.080
62967W        W63831   9.904  14.155  16.783
62968W        W63832   7.999  14.058  16.771
62969W        W63833   9.067  12.057  17.890
62970W        W63834   9.139  14.087  15.374
62971W        W63835   8.716  13.336  17.991
62972W        W63836   8.700  13.745  15.474
62973W        W63837   8.075  12.160  14.380
62974W        W63838   7.348  14.599  21.671
62975W        W63839   7.835  13.481  21.116
62976W        W63840  10.668  13.042  18.859
62977W        W63841  10.595  14.284  20.786
62978W        W63842   8.359  14.386  18.511
62979W        W63843   8.618  12.272  19.371
62980W        W63844   8.100  12.234  19.876
62981W        W63845   9.073  12.950  19.093
62982W        W63846   8.803  14.309  21.194
62983W        W63847   7.336  11.648  21.252
62984W        W63848   7.931  10.886  21.073
62985W        W63849   9.903  11.316  19.859
62986W        W63850   9.648  12.197  18.660
62987W        W63851  10.164  11.745  21.335
62988W        W63852   7.430  11.337  20.854
62989W        W63853   7.499  14.096  21.742
62990W        W63854   8.778  13.575  18.540
62991W        W63855   7.319  12.132  20.319
62992W        W63856   8.558  12.190  21.393
62993W        W63857  10.578  11.882  20.013
62994W        W63858  10.580  12.998  20.819
62995W        W63859   9.036  12.468  19.945
62996W        W63860   9.591  13.706  20.125
62997W        W63861   7.876  12.914  20.385
62998W        W63862   7.169  12.624  20.251
62999W        W63863   8.317  12.557  21.145
63000W        W63864  10.630  12.429  21.398
63001W        W63865   8.145  13.718  19.908
63002W        W63866   9.270  13.562  20.857
63003W        W63867   8.684  12.238  20.246
63004W        W63868   8.824  12.935  19.991
63005W        W63869   9.641  13.979  21.589
63006W        W63870   8.983  12.992  21.675
63007W        W63871   9.234  12.817  21.242
63008W        W63872   6.902  11.851  21.443
63009W        W63873  10.077  13.745  21.364
63010W        W63874   7.728  11.204  19.440
63011W        W63875   8.422  13.614  20.329
63012W        W63876  10.798  13.228  19.758
63013W        W63877   9.937  11.561  20.320
63014W        W63878  10.498  11.701  18.287
63015W        W63879  10.981  12.503  20.624
63016W        W63880   8.845  13.958  20.298
63017W        W63881  10.810  13.544  18.894
63018W        W63882   7.942  14.446  18.911
63019W        W63883   8.218  14.458  19.372
63020W        W63884   7.923  11.203  20.663
63021W        W63885  10.510  12.464  20.882
63022W        W63886   9.912  12.548  19.421
63023W        W63887  10.025  12.407  18.370
63024W        W63888   9.168  13.541  20.356
63025W        W63889   9.117  11.702  19.715
63026W        W63890   9.617  13.866  20.619
63027W        W63891  10.606  12.663  19.187
63028W        W63892   9.515  11.349  19.044
63029W        W63893   8.013  13.968  19.038
63030W        W63894   7.373  11.565  19.475
63031W        W63895  10.070  11.970  20.016
63032W        W63896   7.647  13.828  20.016
63033W        W63897   8.784  14.115  18.587
63034W        W63898  10.283  12.102  18.060
63035W        W63899   7.439  13.907  20.524
63036W        W63900   8.277  13.691  20.822
63037W        W63901   8.449  12.967  19.609
63038W        W63902   8.368  11.365  20.417
63039W        W63903  10.743  11.040  20.037
63040W        W63904   8.180  13.074  18.073
63041W        W63905   7.629  11.761  18.376
63042W        W63906   7.792  13.788  19.515
63043W        W63907   8.477  13.485  19.589
63044W        W63908  10.204  14.225  21.103
63045W        W63909   9.285  11.850  18.851
63046W        W63910  10.606  14.460  19.885
63047W        W63911  10.180  12.273  21.236
63048W        W63912  10.930  13.590  19.427
63049W        W63913   9.531  13.125  20.968
63050W        W63914   7.280  12.569  19.389
63051W        W63915   8.194  13.233  20.617
63052W        W63916   9.556  12.235  19.169
63053W        W63917   9.402  12.666  19.415
63054W        W63918   7.736  12.112  20.661
63055W        W63919   7.629  12.071  21.178
63056W        W63920   7.668  11.005  19.904
63057W        W63921   9.376  11.464  20.129
63058W        W63922   9.113  11.503  21.355
63059W        W63923   9.579  11.529  18.559
63060W        W63924  10.723  14.242  21.303
63061W        W63925   9.599  11.009  21.266
63062W        W63926  10.570  13.671  21.486
63063W        W63927  10.111  11.567  20.860
63064W        W63928   9.884  11.525  19.375
63065W        W63929  10.199  12.581  21.664
63066W        W63930   7.999  14.213  19.818
63067W        W63931   8.791  11.812  18.710
63068W        W63932   8.096  11.254  21.384
63069W        W63933  10.276  11.798  19.153
63070W        W63934  10.609  12.168  19.008
63071W        W63935   8.355  14.453  21.475
63072W        W63936   8.227  11.072  18.834
63073W        W63937  10.745  11.466  19.757
63074W        W63938  10.971  13.739  18.424
63075W        W63939   7.509  12.973  20.031
63076W        W63940   9.578  11.565  18.054
63077W        W63941  10.857  13.824  19.987
63078W        W63942  10.755  11.018  20.558
63079W        W63943   9.400  12.315  21.236
63080W        W63944   8.998  13.461  19.013
63081W        W63945   9.874  12.953  21.808
63082W        W63946   9.443  10.925  19.898
63083W        W63947   7.803  11.922  20.157
63084W        W63948   7.731  13.007  20.870
63085W        W63949   9.572  14.159  19.820
63086W        W63950  10.406  11.719  20.467
63087W        W63951   9.410  14.424  21.029
63088W        W63952  10.745  12.864  18.389
63089W        W63953   8.892  12.687  19.504
63090W        W63954  10.767  10.987  21.093
63091W        W63955   9.014  13.063  20.830
63092W        W63956   9.136  11.996  20.133
63093W        W63957  10.067  12.263  19.012
63094W        W63958  10.323  12.055  18.609
63095W        W63959  10.500  13.804  19.206
63096W        W63960  10.194  13.268  19.832
63097W        W63961   9.869  12.686  18.756
63098W        W63962   9.458  12.795  19.922
63099W        W63963  10.368  12.406  19.974
63100W        W63964   7.511  11.658  20.471
63101W        W63965  10.263  12.792  21.195
63102W        W63966  10.837  14.262  20.313
63103W        W63967   8.627  13.926  19.843
63104W        W63968   9.844  14.359  20.718
63105W        W63969   9.617  11.667  20.697
63106W        W63970   8.940  14.540  20.762
63107W        W63971  10.654  11.377  19.265
63108W        W63972  10.328  12.669  20.450
63109W        W63973   7.271  11.946  20.831
63110W        W63974  10.284  11.670  19.647
63111W        W63975  10.461  11.943  20.942
63112W        W63976   9.586  13.523  19.633
63113W        W63977   8.754  14.231  19.439
63114W        W63978   7.798  11.361  18.708
63115W        W63979   9.076  11.052  20.306
63116W        W63980   7.874  14.495  18.387
63117W        W63981   8.620  12.688  19.056
63118W        W63982   9.067  13.329  21.265
63119W        W63983   9.047  11.358  19.294
63120W        W63984  10.346  11.135  19.628
63121W        W63985  10.076  14.456  19.923
63122W        W63986   9.338  14.149  20.287
63123W        W63987   8.715  13.179  20.432
63124W        W63988  10.619  13.855  20.489
63125W        W63989   8.198  11.361  19.269
63126W        W63990   8.780  13.462  20.000
63127W        W63991   8.254  11.658  18.094
63128W        W63992   9.038  12.158  20.620
63129W        W63993   9.727  11.088  20.291
63130W        W63994   7.376  13.048  20.513
63131W        W63995   8.960  12.729  18.624
63132W        W63996   8.227  11.156  18.247
63133W        W63997   9.169  12.195  19.532
63134W        W63998   9.798  11.176  20.785
63135W        W63999   8.594  13.312  21.024
63136W        W64000   9.457  13.148  21.554
63137W        W64001   9.905  13.177  21.317
63138W        W64002   9.112  11.184  21.778
63139W        W64003   8.303  11.750  20.059
63140W        W64004   7.852  11.650  19.701
63141W        W64005   7.736  14.280  19.377
63142W        W64006   9.246  13.965  21.238
63143W        W64007   8.325  13.378  18.741
63144W        W64008   9.991  12.773  19.972
63145W        W64009   9.914  12.384  20.289
63146W        W64010   9.250  13.018  20.365
63147W        W64011   9.689  13.386  18.265
63148W        W64012   9.464  11.328  19.586
63149W        W64013  10.643  11.656  18.832
63150W        W64014   7.500  14.264  21.249
63151W        W64015   7.659  13.461  20.637
63152W        W64016   7.432  14.482  19.029
63153W        W64017   9.100  11.639  20.554
63154W        W64018   8.334  13.883  18.641
63155W        W64019  10.689  14.168  18.882
63156W        W64020   9.385  12.605  18.870
63157W        W64021   8.899  11.841  19.247
63158W        W64022   9.160  11.747  18.315
63159W        W64023   9.568  13.563  21.270
63160W        W64024  10.197  11.227  19.095
63161W        W64025   7.365  10.938  18.557
63162W        W64026   8.788  13.626  20.681
63163W        W64027   8.334  13.170  20.077
63164W        W64028   8.344  13.567  18.239
63165W        W64029   7.511  13.866  19.070
63166W        W64030   8.023  12.756  21.526
63167W        W64031   8.615  11.257  21.380
63168W        W64032   9.313  11.283  20.908
63169W        W64033   8.620  11.049  19.437
63170W        W64034   9.882  11.131  18.686
63171W        W64035   7.500  11.144  20.373
63172W        W64036   7.436  11.969  19.811
63173W        W64037  10.361  11.399  20.078
63174W        W64038   7.764  11.648  19.155
63175W        W64039  10.249  11.187  20.528
63176W        W64040  10.621  12.391  18.300
63177W        W64041   7.900  11.414  20.175
63178W        W64042   9.262  11.859  21.000
63179W        W64043   7.251  11.439  18.563
63180W        W64044   8.162  13.062  21.131
63181W        W64045   9.387  12.450  20.303
63182W        W64046   9.159  14.475  18.528
63183W        W64047   7.399  12.772  18.249
63184W        W64048   8.298  13.596  21.334
63185W        W64049   7.792  12.553  21.100
63186W        W64050   8.515  12.851  20.776
63187W        W64051  10.235  11.062  21.046
63188W        W64052  10.919  12.713  21.088
63189W        W64053  10.911  12.515  18.745
63190W        W64054   9.620  13.016  19.075
63191W        W64055  10.104  14.776  18.138
63192W        W64056   9.472  12.644  21.676
63193W        W64057   7.930  13.401  21.622
63194W        W64058  10.935  11.460  21.614
63195W        W64059  10.564  12.203  20.437
63196W        W64060   8.824  14.589  21.657
63197W        W64061   8.652  11.069  18.565
63198W        W64062  10.605  13.352  18.442
63199W        W64063   8.283  11.746  21.342
63200W        W64064   8.762  13.795  21.153
63201W        W64065  10.608  11.431  20.831
63202W        W64066  10.324  14.460  18.510
63203W        W64067  10.144  13.127  20.331
63204W        W64068   8.312  11.445  20.930
63205W        W64069   8.992  12.493  21.541
63206W        W64070   8.123  13.509  19.222
63207W        W64071  10.163  12.942  19.096
63208W        W64072   7.831  11.608  21.034
63209W        W64073   8.911  13.723  19.461
63210W        W64074  10.840  12.228  19.751
63211W        W64075   9.056  11.004  21.281
63212W        W64076  10.070  13.625  20.279
63213W        W64077  10.376  14.008  20.072
63214W        W64078   9.208  13.972  18.334
63215W        W64079   7.464  13.608  21.497
63216W        W64080   8.039  11.713  20.574
63217W        W64081   8.159  11.226  19.763
63218W        W64082   9.617  11.963  20.274
63219W        W64083   8.594  13.057  18.409
63220W        W64084  10.513  12.919  20.043
63221W        W64085   7.891  13.936  21.408
63222W        W64086  10.573  14.499  19.316
63223W        W64087   8.617  11.524  19.631
63224W        W64088   8.022  12.778  19.904
63225W        W64089   8.666  14.472  20.325
63226W        W64090  10.378  14.643  21.356
63227W        W64091   9.728  12.837  20.442
63228W        W64092   7.531  12.288  18.385
63229W        W64093  10.842  14.101  19.510
63230W        W64094  10.167  11.562  18.701
63231W        W64095   8.453  10.939  20.973
63232W        W64096  10.482  13.655  19.694
63233W        W64097  10.385  12.271  19.467
63234W        W64098   8.720  12.012  19.797
63235W        W64099   8.928  12.429  21.043
63236W        W64100   9.928  13.548  20.909
63237W        W64101   8.726  11.877  21.019
63238W        W64102   8.492  14.436  19.826
63239W        W64103   7.857  14.439  21.610
63240W        W64104   8.009  14.025  18.270
63241W        W64105  10.506  13.261  19.335
63242W        W64106   8.163  12.066  20.950
63243W        W64107  10.849  12.016  18.556
63244W        W64108   8.568  13.200  19.158
63245W        W64109   9.755  12.691  21.244
63246W        W64110   9.547  12.206  20.718
63247W        W64111   8.070  12.554  20.687
63248W        W64112  10.296  14.393  20.391
63249W        W64113  10.045  11.245  21.516
63250W        W64114   7.590  11.199  21.322
63251W        W64115   8.201  12.161  20.388
63252W        W64116   8.672  11.993  18.240
63253W        W64117   7.396  13.759  21.019
63254W        W64118   8.898  12.655  20.469
63255W        W64119   8.719  11.481  18.274
63256W        W64120   8.172  12.551  19.458
63257W        W64121   7.579  14.422  20.760
63258W        W64122  10.391  12.562  18.730
63259W        W64123  10.529  11.384  21.324
63260W        W64124  10.056  13.487  19.380
63261W        W64125   7.494  12.523  21.503
63262W        W64126  10.641  11.132  18.812
63263W        W64127  10.303  13.422  18.882
63264W        W64128   9.015  12.308  19.037
63265W        W64129  10.066  11.376  18.246
63266W        W64130  10.030  12.021  20.624
63267W        W64131   7.558  12.487  19.811
63268W        W64132   8.019  13.266  19.673
63269W        W64133   9.924  12.029  19.471
63270W        W64134   8.809  11.592  20.126
63271W        W64135  10.899  13.465  20.623
63272W        W64136  10.830  11.488  20.298
63273W        W64137   7.470  14.262  19.823
63274W        W64138   7.630  13.354  19.226
63275W        W64139   7.770  11.229  21.819
63276W        W64140   8.906  14.038  21.606
63277W        W64141  10.830  12.729  19.647
63278W        W64142  10.238  13.008  18.558
63279W        W64143   9.407  14.607  20.545
63280W        W64144  10.268  13.282  21.662
63281W        W64145   8.898  10.938  19.001
63282W        W64146   9.638  11.766  19.803
63283W        W64147   7.332  13.463  20.193
63284W        W64148   8.636  11.388  18.993
63285W        W64149   8.723  12.869  21.246
63286W        W64150   9.430  11.774  19.330
63287W        W64151   9.651  13.354  20.523
63288W        W64152   7.838  13.976  20.897
63289W        W64153   8.401  13.985  21.666
63290W        W64154   8.320  11.529  18.604
63291W        W64155   9.796  11.809  18.956
63292W        W64156   9.738  14.019  21.087
63293W        W64157   8.530  12.515  19.838
63294W        W64158   8.101  14.333  20.625
63295W        W64159  10.775  14.261  18.369
63296W        W64160   7.620  13.045  21.370
63297W        W64161   9.732  13.218  20.044
63298W        W64162   8.073  13.002  19.228
63299W        W64163   8.586  14.118  20.711
63300W        W64164   9.021  11.217  19.799
63301W        W64165   7.298  13.194  18.797
63302W        W64166   9.133  12.219  18.528
63303W        W64167   7.650  12.924  19.546
63304W        W64168   8.811  11.358  20.905
63305W        W64169  10.568  11.199  18.312
63306W        W64170  10.663  13.012  21.420
63307W        W64171   9.314  14.409  21.553
63308W        W64172  10.855  13.418  21.133
63309W        W64173  10.296  14.195  21.605
63310W        W64174   8.133  14.576  20.165
63311W        W64175  10.970  13.087  19.270
63312W        W64176   9.620  12.299  19.833
63313W        W64177   9.176  10.873  19.443
63314W        W64178   8.295  13.960  19.461
63315W        W64179   8.572  11.822  20.538
63316W        W64180   8.590  11.143  20.024
63317W        W64181   7.602  14.143  18.654
63318W        W64182   8.918  13.206  19.534
63319W        W64183   8.323  14.075  21.145
63320W        W64184   7.590  12.848  19.049
63321W        W64185   7.429  11.477  19.977
63322W        W64186   9.243  13.276  19.920
63323W        W64187   7.389  11.305  19.038
63324W        W64188   9.972  12.513  20.807
63325W        W64189   9.920  11.866  18.359
63326W        W64190  10.560  13.432  20.180
63327W        W64191   9.154  13.815  19.899
63328W        W64192   8.476  14.228  19.000
63329W        W64193   9.643  11.068  18.223
63330W        W64194   7.716  14.276  20.272
63331W        W64195   9.491  11.846  21.471
63332W        W64196   7.774  11.674  21.541
63333W        W64197   7.448  12.074  19.308
63334W        W64198   8.638  12.323  18.651
63335W        W64199   9.798  12.242  21.579
63336W        W64200   8.384  12.690  20.299
63337W        W64201   9.842  11.015  19.432
63338W        W64202   8.985  14.306  19.935
63339W        W64203  10.148  13.953  20.666
63340W        W64204   9.987  13.803  19.804
63341W        W64205   9.809  13.037  19.559
63342W        W64206   9.079  11.374  18.697
63343W        W64207  10.942  11.036  19.533
63344W        W64208   8.333  12.480  18.194
63345W        W64209  10.729  11.863  19.418
63346W        W64210   9.388  13.048  18.557
63347W        W64211  10.350  13.332  21.151
63348W        W64212  10.479  13.838  18.548
63349W        W64213   8.707  11.678  21.657
63350W        W64214   8.546  12.330  20.729
63351W        W64215  10.512  13.812  21.005
63352W        W64216   9.715  11.497  21.178
63353W        W64217   7.131  12.274  21.212
63354W        W64218   9.344  12.666  20.771
63355W        W64219   7.536  13.398  19.734
63356W        W64220   7.791  12.432  20.249
63357W        W64221  10.030  13.045  20.819
63358W        W64222   9.862  14.438  21.439
63359W        W64223   9.793  11.990  21.088
63360W        W64224  10.318  14.139  19.577
63361W        W64225   9.112  14.049  20.749
63362W        W64226   8.331  14.106  20.218
63363W        W64227  10.370  13.445  20.661
63364W        W64228   9.242  13.629  21.667
63365W        W64229   7.855  13.371  20.163
63366W        W64230  10.320  12.824  19.580
63367W        W64231   9.874  14.122  20.249
63368W        W64232   7.959  13.826  20.422
63369W        W64233   9.022  12.005  21.423
63370W        W64234   8.991  14.019  19.037
63371W        W64235   8.737  13.538  21.596
63372W        W64236   8.560  13.725  19.077
63373W        W64237   7.923  12.120  18.063
63374W        W64238   7.521  14.447  25.415
63375W        W64239   7.810  13.455  24.947
63376W        W64240  10.502  13.059  23.128
63377W        W64241  10.842  14.322  24.594
63378W        W64242   8.196  14.378  21.998
63379W        W64243   8.955  12.217  23.270
63380W        W64244   8.260  12.257  23.660
63381W        W64245   9.194  13.040  23.112
63382W        W64246   8.948  14.214  24.987
63383W        W64247   7.362  11.704  24.981
63384W        W64248   8.037  10.936  24.800
63385W        W64249   9.835  11.280  23.522
63386W        W64250   9.610  11.909  22.146
63387W        W64251  10.029  11.829  25.198
63388W        W64252   7.465  11.322  24.576
63389W        W64253   7.574  13.947  25.495
63390W        W64254   8.807  13.772  22.048
63391W        W64255   7.381  12.094  24.063
63392W        W64256   8.484  12.239  25.138
63393W        W64257  10.406  11.821  23.746
63394W        W64258  10.521  13.027  24.469
63395W        W64259   9.002  12.454  23.709
63396W        W64260   9.515  13.700  23.907
63397W        W64261   7.787  13.056  24.201
63398W        W64262   7.048  12.510  23.940
63399W        W64263   8.476  12.677  24.878
63400W        W64264  10.575  12.434  25.276
63401W        W64265   8.139  13.986  23.798
63402W        W64266   9.379  13.586  24.757
63403W        W64267   8.646  12.207  23.997
63404W        W64268   8.772  13.129  23.919
63405W        W64269   9.798  13.860  25.447
63406W        W64270   9.013  13.014  25.484
63407W        W64271   8.953  12.865  24.973
63408W        W64272   6.991  12.003  25.281
63409W        W64273  10.175  13.773  25.099
63410W        W64274   7.668  11.105  23.085
63411W        W64275   8.297  13.842  24.295
63412W        W64276  10.488  13.375  23.531
63413W        W64277   9.936  11.619  23.879
63414W        W64278  10.381  11.546  21.781
63415W        W64279  10.877  12.380  24.399
63416W        W64280   8.935  14.415  24.156
63417W        W64281  10.772  13.949  22.688
63418W        W64282   7.678  14.558  22.628
63419W        W64283   8.037  14.493  23.100
63420W        W64284   7.960  11.225  24.368
63421W        W64285  10.503  12.058  24.542
63422W        W64286   9.831  12.372  23.313
63423W        W64287   9.978  12.310  22.065
63424W        W64288   9.180  13.607  24.290
63425W        W64289   9.158  11.746  23.404
63426W        W64290   9.603  13.930  24.431
63427W        W64291  10.053  12.794  23.138
63428W        W64292   9.444  11.188  22.683
63429W        W64293   7.893  14.081  22.816
63430W        W64294   7.241  11.485  23.251
63431W        W64295   9.952  12.110  23.743
63432W        W64296   7.615  13.841  23.749
63433W        W64297   8.693  14.264  22.009
63434W        W64298  10.281  12.071  21.729
63435W        W64299   7.343  13.927  24.323
63436W        W64300   8.338  13.674  24.777
63437W        W64301   8.371  13.170  23.575
63438W        W64302   8.420  11.342  24.146
63439W        W64303  10.729  11.005  23.783
63440W        W64304   8.415  13.142  21.577
63441W        W64305   7.640  11.652  22.068
63442W        W64306   7.684  13.872  23.245
63443W        W64307   8.494  13.640  23.340
63444W        W64308  10.419  14.200  24.897
63445W        W64309   9.246  11.634  22.450
63446W        W64310  10.518  14.538  23.712
63447W        W64311  10.189  12.283  24.947
63448W        W64312  10.853  13.769  23.429
63449W        W64313   9.526  13.085  24.691
63450W        W64314   7.062  12.735  23.048
63451W        W64315   8.125  13.299  24.513
63452W        W64316   9.472  12.076  22.616
63453W        W64317   9.344  12.585  23.302
63454W        W64318   7.743  12.099  24.450
63455W        W64319   7.763  12.082  24.985
63456W        W64320   7.647  11.050  23.611
63457W        W64321   9.423  11.505  23.812
63458W        W64322   9.189  11.564  25.150
63459W        W64323   9.488  11.314  22.138
63460W        W64324  10.891  14.113  25.100
63461W        W64325   9.556  11.186  25.150
63462W        W64326  10.598  13.543  25.304
63463W        W64327  10.159  11.592  24.753
63464W        W64328   9.898  11.380  22.977
63465W        W64329  10.255  12.827  25.404
63466W        W64330   7.808  14.278  23.528
63467W        W64331   8.776  11.664  22.186
63468W        W64332   8.167  11.295  25.140
63469W        W64333  10.249  11.682  22.705
63470W        W64334  10.409  12.155  22.849
63471W        W64335   8.559  14.292  25.348
63472W        W64336   8.095  10.735  22.394
63473W        W64337  10.609  11.403  23.473
63474W        W64338  10.754  14.012  21.803
63475W        W64339   7.408  12.910  23.860
63476W        W64340   9.554  11.369  21.639
63477W        W64341  10.738  14.078  23.821
63478W        W64342  10.704  11.069  24.337
63479W        W64343   9.348  12.502  25.034
63480W        W64344   8.805  13.560  22.942
63481W        W64345   9.781  12.968  25.534
63482W        W64346   9.426  11.002  23.629
63483W        W64347   7.847  11.999  23.889
63484W        W64348   7.682  13.029  24.691
63485W        W64349   9.283  14.638  23.830
63486W        W64350  10.284  11.724  24.234
63487W        W64351   9.450  14.358  24.801
63488W        W64352  10.297  12.704  22.183
63489W        W64353   8.780  12.787  23.375
63490W        W64354  10.842  11.028  24.844
63491W        W64355   9.031  13.208  24.599
63492W        W64356   9.096  11.963  23.901
63493W        W64357   9.962  12.104  22.536
63494W        W64358  10.166  11.812  22.179
63495W        W64359  10.341  14.092  22.954
63496W        W64360   9.967  13.550  23.651
63497W        W64361   9.665  12.500  22.836
63498W        W64362   9.205  12.939  23.661
63499W        W64363  10.212  12.539  23.628
63500W        W64364   7.653  11.639  24.212
63501W        W64365  10.363  12.773  24.911
63502W        W64366  10.916  14.498  24.061
63503W        W64367   8.637  14.002  23.670
63504W        W64368   9.964  14.454  24.769
63505W        W64369   9.754  11.553  24.370
63506W        W64370   9.005  14.583  24.623
63507W        W64371  10.573  11.310  22.884
63508W        W64372  10.168  12.787  24.069
63509W        W64373   7.299  11.859  24.513
63510W        W64374  10.156  11.620  23.352
63511W        W64375  10.521  11.885  25.018
63512W        W64376   9.357  13.420  23.484
63513W        W64377   8.660  14.228  23.198
63514W        W64378   7.722  11.208  22.380
63515W        W64379   9.175  11.094  24.081
63516W        W64380   7.686  14.472  22.095
63517W        W64381   8.232  12.725  23.383
63518W        W64382   9.037  13.378  25.098
63519W        W64383   9.028  11.379  22.937
63520W        W64384  10.241  11.111  23.262
63521W        W64385  10.038  14.639  23.868
63522W        W64386   9.440  14.441  24.286
63523W        W64387   8.620  13.433  24.333
63524W        W64388  10.551  13.972  24.342
63525W        W64389   8.129  11.107  22.756
63526W        W64390   8.784  13.904  24.156
63527W        W64391   8.210  11.520  21.807
63528W        W64392   9.009  12.183  24.364
63529W        W64393   9.767  11.135  24.005
63530W        W64394   7.306  12.963  24.357
63531W        W64395   9.062  12.588  22.038
63532W        W64396   8.192  10.942  21.923
63533W        W64397   9.435  12.110  23.126
63534W        W64398   9.839  11.195  24.733
63535W        W64399   8.589  13.245  24.862
63536W        W64400   9.414  12.985  25.179
63537W        W64401   9.912  13.013  25.024
63538W        W64402   9.174  11.245  25.540
63539W        W64403   8.318  11.797  23.916
63540W        W64404   7.750  11.529  23.373
63541W        W64405   7.532  14.362  23.105
63542W        W64406   9.257  13.850  25.189
63543W        W64407   8.565  13.551  22.465
63544W        W64408   9.716  12.656  23.746
63545W        W64409   9.864  12.383  24.181
63546W        W64410   9.235  13.109  24.149
63547W        W64411   9.791  13.494  21.733
63548W        W64412   9.422  11.333  23.256
63549W        W64413  10.762  11.762  22.641
63550W        W64414   7.640  14.183  25.001
63551W        W64415   7.630  13.492  24.454
63552W        W64416   7.176  14.425  22.742
63553W        W64417   9.222  11.654  24.304
63554W        W64418   8.346  13.970  22.267
63555W        W64419  10.400  14.229  22.133
63556W        W64420   9.512  12.424  22.234
63557W        W64421   9.033  11.901  22.851
63558W        W64422   9.197  11.690  21.883
63559W        W64423   9.623  13.447  25.199
63560W        W64424  10.173  11.178  22.568
63561W        W64425   7.290  10.919  22.369
63562W        W64426   8.864  13.698  24.689
63563W        W64427   8.459  13.570  23.869
63564W        W64428   8.329  13.556  21.926
63565W        W64429   7.367  13.955  22.844
63566W        W64430   8.036  12.549  25.138
63567W        W64431   8.678  11.270  25.286
63568W        W64432   9.334  11.301  24.667
63569W        W64433   8.568  11.064  23.082
63570W        W64434   9.780  10.938  22.343
63571W        W64435   7.534  11.129  24.108
63572W        W64436   7.434  11.946  23.549
63573W        W64437  10.261  11.221  23.801
63574W        W64438   7.543  11.530  22.798
63575W        W64439  10.179  11.225  24.313
63576W        W64440  10.431  12.217  22.340
63577W        W64441   7.949  11.421  23.852
63578W        W64442   9.168  11.911  24.778
63579W        W64443   7.230  11.436  22.342
63580W        W64444   8.115  13.027  24.953
63581W        W64445   9.364  12.446  24.072
63582W        W64446   9.133  14.558  22.088
63583W        W64447   6.988  12.920  21.948
63584W        W64448   8.268  13.426  25.235
63585W        W64449   7.690  12.527  24.738
63586W        W64450   8.597  12.942  24.451
63587W        W64451  10.334  11.053  24.761
63588W        W64452  10.866  12.784  24.752
63589W        W64453  10.626  12.737  22.732
63590W        W64454   9.327  12.801  22.540
63591W        W64455  10.199  14.667  21.884
63592W        W64456   9.369  12.609  25.547
63593W        W64457   7.807  13.462  25.479
63594W        W64458  10.956  11.457  25.429
63595W        W64459  10.343  12.245  24.061
63596W        W64460   9.042  14.369  25.489
63597W        W64461   8.567  10.924  22.319
63598W        W64462  10.215  13.777  21.874
63599W        W64463   8.221  11.819  24.996
63600W        W64464   8.674  13.791  25.136
63601W        W64465  10.625  11.519  24.575
63602W        W64466  10.116  14.591  22.390
63603W        W64467  10.097  13.280  24.061
63604W        W64468   8.336  11.432  24.667
63605W        W64469   8.872  12.526  25.372
63606W        W64470   8.077  13.602  23.003
63607W        W64471   9.689  13.021  22.850
63608W        W64472   7.831  11.632  24.727
63609W        W64473   8.999  13.816  23.360
63610W        W64474  10.663  12.300  23.655
63611W        W64475   9.072  11.061  25.037
63612W        W64476   9.979  13.778  24.131
63613W        W64477  10.230  14.142  23.883
63614W        W64478   9.272  14.073  21.958
63615W        W64479   7.343  13.519  25.264
63616W        W64480   8.187  11.837  24.405
63617W        W64481   8.101  11.109  23.367
63618W        W64482   9.586  11.953  24.075
63619W        W64483   8.726  13.249  22.035
63620W        W64484  10.602  13.185  23.994
63621W        W64485   7.987  13.862  25.205
63622W        W64486  10.307  14.635  22.900
63623W        W64487   8.456  11.380  23.619
63624W        W64488   7.869  13.132  23.716
63625W        W64489   8.535  14.676  24.393
63626W        W64490  10.628  14.567  25.189
63627W        W64491   9.660  12.845  24.243
63628W        W64492   7.358  12.010  21.629
63629W        W64493  10.643  14.236  23.328
63630W        W64494  10.520  11.459  22.304
63631W        W64495   8.592  11.024  24.825
63632W        W64496  10.339  13.854  23.459
63633W        W64497  10.280  12.114  23.346
63634W        W64498   8.692  11.888  23.584
63635W        W64499   8.900  12.363  24.850
63636W        W64500   9.893  13.487  24.766
63637W        W64501   8.613  11.968  24.700
63638W        W64502   8.311  14.429  23.565
63639W        W64503   8.045  14.390  25.316
63640W        W64504   7.949  13.929  21.921
63641W        W64505  10.558  13.577  23.050
63642W        W64506   8.164  12.268  24.716
63643W        W64507  10.698  11.872  22.004
63644W        W64508   8.455  13.190  23.075
63645W        W64509   9.792  12.600  24.705
63646W        W64510   9.492  12.219  24.513
63647W        W64511   8.109  12.749  24.484
63648W        W64512  10.440  14.456  24.238
63649W        W64513  10.077  11.315  25.321
63650W        W64514   7.653  11.229  25.044
63651W        W64515   8.154  12.302  24.180
63652W        W64516   8.794  12.144  21.867
63653W        W64517   7.403  13.773  24.817
63654W        W64518   8.919  12.682  24.155
63655W        W64519   8.622  11.231  21.913
63656W        W64520   8.018  12.679  23.857
63657W        W64521   7.604  14.380  24.487
63658W        W64522  10.150  12.556  22.678
63659W        W64523  10.547  11.383  25.096
63660W        W64524  10.063  13.323  23.180
63661W        W64525   7.515  12.513  25.241
63662W        W64526  10.637  10.967  22.428
63663W        W64527  10.196  13.066  22.708
63664W        W64528   9.145  12.420  22.828
63665W        W64529   9.997  11.341  22.070
63666W        W64530   9.976  12.027  24.534
63667W        W64531   7.559  12.439  23.714
63668W        W64532   8.023  13.578  23.523
63669W        W64533   9.917  11.942  23.012
63670W        W64534   8.902  11.486  23.865
63671W        W64535  10.804  13.517  24.357
63672W        W64536  10.703  11.470  24.005
63673W        W64537   7.259  14.219  23.514
63674W        W64538   7.558  13.462  22.963
63675W        W64539   7.785  11.245  25.579
63676W        W64540   8.904  13.884  25.572
63677W        W64541  10.626  12.870  23.582
63678W        W64542   9.823  12.811  22.367
63679W        W64543   9.604  14.822  24.618
63680W        W64544  10.108  13.334  25.359
63681W        W64545   8.926  10.914  22.716
63682W        W64546   9.675  11.770  23.437
63683W        W64547   7.468  13.408  23.983
63684W        W64548   8.616  11.336  22.623
63685W        W64549   8.541  12.966  25.292
63686W        W64550   9.487  11.664  22.902
63687W        W64551   9.660  13.402  24.315
63688W        W64552   7.894  13.893  24.671
63689W        W64553   8.375  13.837  25.535
63690W        W64554   8.223  11.307  22.278
63691W        W64555   9.789  11.572  22.494
63692W        W64556   9.713  13.950  24.949
63693W        W64557   8.526  12.687  23.826
63694W        W64558   8.139  14.308  24.454
63695W        W64559  10.663  14.509  21.797
63696W        W64560   7.576  13.044  25.188
63697W        W64561   9.646  13.178  23.844
63698W        W64562   7.942  13.155  23.216
63699W        W64563   8.632  14.179  24.556
63700W        W64564   8.950  11.196  23.436
63701W        W64565   7.091  13.543  22.746
63702W        W64566   9.321  12.185  21.810
63703W        W64567   7.491  12.902  23.349
63704W        W64568   8.852  11.485  24.740
63705W        W64569  10.675  11.148  21.934
63706W        W64570  10.713  13.043  25.190
63707W        W64571   9.521  14.294  25.314
63708W        W64572  10.928  13.306  24.796
63709W        W64573  10.479  14.060  25.397
63710W        W64574   7.985  14.484  23.970
63711W        W64575  10.951  13.266  23.336
63712W        W64576   9.453  12.199  23.628
63713W        W64577   9.238  10.874  23.137
63714W        W64578   8.179  14.029  23.275
63715W        W64579   8.713  11.758  24.256
63716W        W64580   8.708  10.996  23.853
63717W        W64581   7.359  14.135  22.340
63718W        W64582   8.857  13.292  23.420
63719W        W64583   8.280  14.154  24.926
63720W        W64584   7.301  13.069  22.723
63721W        W64585   7.408  11.484  23.756
63722W        W64586   8.990  13.582  23.820
63723W        W64587   7.218  11.142  22.822
63724W        W64588  10.278  12.522  24.486
63725W        W64589   9.889  11.736  21.757
63726W        W64590  10.444  13.667  23.947
63727W        W64591   9.156  14.086  23.828
63728W        W64592   8.257  14.394  22.587
63729W        W64593   9.745  10.931  21.825
63730W        W64594   7.509  14.309  23.945
63731W        W64595   9.616  12.128  25.470
63732W        W64596   7.815  11.657  25.275
63733W        W64597   7.330  11.963  23.042
63734W        W64598   9.102  12.093  22.272
63735W        W64599   9.824  12.555  25.239
63736W        W64600   8.280  13.091  24.070
63737W        W64601   9.747  10.919  23.175
63738W        W64602   8.817  14.471  23.663
63739W        W64603  10.097  13.945  24.608
63740W        W64604   9.678  14.222  23.851
63741W        W64605   9.649  13.003  23.365
63742W        W64606   9.002  11.209  22.295
63743W        W64607  10.831  11.000  23.244
63744W        W64608   8.519  12.636  21.663
63745W        W64609  10.583  11.767  23.126
63746W        W64610   9.407  12.983  22.053
63747W        W64611  10.357  13.288  24.905
63748W        W64612   9.899  14.251  21.947
63749W        W64613   8.716  11.771  25.170
63750W        W64614   8.569  12.430  24.447
63751W        W64615  10.610  13.733  24.814
63752W        W64616   9.642  11.645  24.890
63753W        W64617   7.275  12.221  24.902
63754W        W64618   9.240  12.678  24.553
63755W        W64619   7.537  13.410  23.466
63756W        W64620   7.688  12.556  24.210
63757W        W64621  10.028  13.045  24.528
63758W        W64622  10.045  14.304  25.256
63759W        W64623   9.692  12.138  24.966
63760W        W64624  10.129  14.326  23.412
63761W        W64625   9.131  14.084  24.505
63762W        W64626   8.457  14.300  24.049
63763W        W64627  10.306  13.510  24.448
63764W        W64628   9.249  13.472  25.563
63765W        W64629   7.971  13.526  24.044
63766W        W64630  10.110  13.034  23.609
63767W        W64631   9.942  14.306  24.279
63768W        W64632   7.824  14.002  24.188
63769W        W64633   9.126  12.084  25.281
63770W        W64634   8.750  14.198  22.510
63771W        W64635   8.697  13.416  25.512
63772W        W64636   8.424  13.938  22.821
63773W        W64637   8.038  12.221  21.443
63774W        W64638   7.450  14.632  28.793
63775W        W64639   7.817  13.479  28.527
63776W        W64640  10.454  13.193  26.284
63777W        W64641  10.750  14.246  28.185
63778W        W64642   8.379  14.248  25.827
63779W        W64643   8.539  12.327  26.567
63780W        W64644   8.064  12.138  26.743
63781W        W64645   9.086  12.947  26.324
63782W        W64646   8.826  14.239  28.498
63783W        W64647   7.660  11.792  28.476
63784W        W64648   8.148  11.049  28.208
63785W        W64649   9.928  11.397  27.309
63786W        W64650   9.578  12.081  25.971
63787W        W64651  10.142  11.955  28.838
63788W        W64652   7.645  11.431  28.087
63789W        W64653   7.609  14.114  28.893
63790W        W64654   8.943  13.270  25.942
63791W        W64655   7.549  12.212  27.493
63792W        W64656   8.384  12.266  28.769
63793W        W64657  10.751  11.898  27.418
63794W        W64658  10.588  13.011  28.074
63795W        W64659   8.963  12.292  27.085
63796W        W64660   9.591  13.780  27.610
63797W        W64661   7.964  13.066  27.896
63798W        W64662   7.094  12.618  27.552
63799W        W64663   8.499  12.618  28.392
63800W        W64664  10.724  12.434  28.678
63801W        W64665   8.170  13.735  27.230
63802W        W64666   9.353  13.679  28.205
63803W        W64667   8.742  12.001  27.466
63804W        W64668   8.791  12.933  27.205
63805W        W64669   9.586  13.806   0.045
63806W        W64670   8.936  13.012  28.910
63807W        W64671   9.040  12.807  28.429
63808W        W64672   7.396  11.992  28.910
63809W        W64673  10.112  13.640  28.790
63810W        W64674   7.779  11.197  26.693
63811W        W64675   8.287  13.461  27.721
63812W        W64676  10.823  13.412  27.196
63813W        W64677  10.100  11.703  27.699
63814W        W64678  10.431  11.700  25.496
63815W        W64679  11.120  12.457  27.942
63816W        W64680   8.830  14.224  27.630
63817W        W64681  10.666  13.571  25.990
63818W        W64682   7.763  14.538  26.268
63819W        W64683   8.125  14.438  26.644
63820W        W64684   8.209  11.353  27.802
63821W        W64685  10.676  12.294  28.167
63822W        W64686   9.859  12.635  26.858
63823W        W64687   9.825  12.515  25.783
63824W        W64688   9.162  13.530  27.736
63825W        W64689   8.946  11.750  27.063
63826W        W64690   9.717  14.020  28.055
63827W        W64691  10.365  12.737  26.845
63828W        W64692   9.453  11.380  26.516
63829W        W64693   7.942  14.053  26.338
63830W        W64694   7.451  11.575  26.740
63831W        W64695   9.908  12.346  27.285
63832W        W64696   7.657  13.841  27.292
63833W        W64697   8.849  14.153  26.002
63834W        W64698  10.149  12.238  25.483
63835W        W64699   7.435  13.953  27.842
63836W        W64700   8.221  13.496  28.218
63837W        W64701   8.501  13.025  26.788
63838W        W64702   8.741  11.254  27.862
63839W        W64703  10.858  11.079  27.410
63840W        W64704   8.057  12.991  25.469
63841W        W64705   7.646  11.693  25.807
63842W        W64706   7.833  13.834  26.796
63843W        W64707   8.624  13.538  26.827
63844W        W64708  10.344  14.169  28.548
63845W        W64709   9.292  11.809  26.292
63846W        W64710  10.787  14.260  27.122
63847W        W64711  10.263  12.309  28.492
63848W        W64712  11.009  13.777  26.803
63849W        W64713   9.534  12.997  28.308
63850W        W64714   7.142  12.902  26.548
63851W        W64715   8.452  13.061  28.033
63852W        W64716   9.532  12.223  26.465
63853W        W64717   9.401  12.685  26.619
63854W        W64718   7.927  12.206  27.845
63855W        W64719   7.888  12.112  28.822
63856W        W64720   7.724  11.023  27.166
63857W        W64721   9.573  11.550  27.639
63858W        W64722   9.212  11.457  28.750
63859W        W64723   9.604  11.541  25.957
63860W        W64724  10.831  14.067  28.666
63861W        W64725   9.650  11.106  28.702
63862W        W64726  10.690  13.514  28.803
63863W        W64727  10.218  11.737  28.375
63864W        W64728   9.842  11.537  26.822
63865W        W64729  10.332  12.634   0.003
63866W        W64730   7.981  14.210  27.111
63867W        W64731   8.837  11.897  26.103
63868W        W64732   8.301  11.188  28.679
63869W        W64733  10.286  11.739  26.684
63870W        W64734  10.795  12.440  26.765
63871W        W64735   8.412  14.402  28.825
63872W        W64736   8.345  10.973  26.128
63873W        W64737  10.699  11.478  27.109
63874W        W64738  10.916  13.821  25.614
63875W        W64739   7.557  12.931  27.231
63876W        W64740   9.633  11.601  25.434
63877W        W64741  10.883  13.859  27.428
63878W        W64742  10.776  11.066  27.939
63879W        W64743   9.240  12.209  28.939
63880W        W64744   9.203  13.444  26.418
63881W        W64745   9.861  12.832   0.152
63882W        W64746   9.599  11.030  27.468
63883W        W64747   8.024  11.962  27.255
63884W        W64748   7.565  13.152  28.215
63885W        W64749   9.552  14.177  27.251
63886W        W64750  10.544  11.856  27.926
63887W        W64751   9.334  14.219  28.335
63888W        W64752  10.441  13.193  25.729
63889W        W64753   8.888  12.674  26.746
63890W        W64754  10.962  11.065  28.411
63891W        W64755   9.113  13.119  28.026
63892W        W64756   9.284  11.977  27.378
63893W        W64757  10.379  12.217  26.531
63894W        W64758  10.061  12.186  26.124
63895W        W64759  10.480  13.723  26.467
63896W        W64760   9.897  13.383  27.475
63897W        W64761   9.867  12.612  26.340
63898W        W64762   9.276  12.769  27.107
63899W        W64763  10.334  12.646  27.361
63900W        W64764   7.787  11.718  27.653
63901W        W64765  10.412  12.808  28.509
63902W        W64766  10.816  14.299  27.671
63903W        W64767   8.682  13.937  27.153
63904W        W64768   9.878  14.358  28.408
63905W        W64769   9.769  11.710  28.102
63906W        W64770   8.988  14.480  28.054
63907W        W64771  10.637  11.390  26.575
63908W        W64772  10.287  12.599  28.037
63909W        W64773   7.515  11.954  28.007
63910W        W64774  10.274  11.767  27.204
63911W        W64775  10.670  11.926  28.572
63912W        W64776   9.529  13.638  27.107
63913W        W64777   8.797  14.226  26.720
63914W        W64778   8.057  11.394  26.008
63915W        W64779   9.094  11.033  27.537
63916W        W64780   7.904  14.439  25.797
63917W        W64781   8.596  12.784  26.314
63918W        W64782   9.140  13.311  28.495
63919W        W64783   8.926  11.481  26.588
63920W        W64784  10.269  11.249  26.947
63921W        W64785  10.055  14.553  27.258
63922W        W64786   9.331  14.206  27.752
63923W        W64787   8.753  13.201  27.651
63924W        W64788  10.572  13.882  27.848
63925W        W64789   8.232  11.315  26.510
63926W        W64790   8.704  13.724  27.614
63927W        W64791   8.300  11.656  25.486
63928W        W64792   9.076  12.226  27.793
63929W        W64793   9.947  11.208  27.803
63930W        W64794   7.438  12.973  27.757
63931W        W64795   8.948  12.719  25.889
63932W        W64796   8.301  11.158  25.625
63933W        W64797   8.950  12.014  26.630
63934W        W64798   9.975  11.262  28.339
63935W        W64799   8.638  13.135  28.496
63936W        W64800   9.433  12.895  28.799
63937W        W64801   9.934  12.940  28.662
63938W        W64802   9.270  11.039   0.033
63939W        W64803   8.568  11.505  27.433
63940W        W64804   7.966  11.640  26.858
63941W        W64805   7.609  14.304  26.710
63942W        W64806   9.169  13.844  28.675
63943W        W64807   8.192  13.130  26.377
63944W        W64808   9.792  12.862  27.323
63945W        W64809   9.856  12.549  27.770
63946W        W64810   9.129  12.853  27.592
63947W        W64811   9.755  13.431  25.741
63948W        W64812   9.412  11.439  27.149
63949W        W64813  10.731  11.852  26.372
63950W        W64814   7.528  14.256  28.394
63951W        W64815   7.723  13.517  27.912
63952W        W64816   7.248  14.539  26.312
63953W        W64817   9.251  11.756  27.987
63954W        W64818   8.620  13.683  25.965
63955W        W64819  10.552  14.067  25.924
63956W        W64820   9.421  12.590  26.086
63957W        W64821   8.483  11.806  26.507
63958W        W64822   9.225  11.767  25.695
63959W        W64823   9.673  13.393  28.601
63960W        W64824  10.113  11.303  26.432
63961W        W64825   7.335  11.250  25.877
63962W        W64826   8.743  13.485  28.096
63963W        W64827   8.432  13.300  27.245
63964W        W64828   8.222  13.410  25.785
63965W        W64829   7.440  13.891  26.408
63966W        W64830   8.006  12.611  28.675
63967W        W64831   8.792  11.122  28.840
63968W        W64832   9.449  11.337  28.256
63969W        W64833   8.632  11.040  26.723
63970W        W64834   9.712  11.093  26.171
63971W        W64835   7.713  11.200  27.647
63972W        W64836   7.563  12.000  27.031
63973W        W64837  10.408  11.324  27.508
63974W        W64838   7.987  11.770  26.357
63975W        W64839  10.374  11.373  28.027
63976W        W64840  10.330  12.573  25.844
63977W        W64841   8.066  11.434  27.320
63978W        W64842   9.279  11.916  28.492
63979W        W64843   7.125  11.788  25.761
63980W        W64844   8.108  13.040  28.428
63981W        W64845   9.436  12.459  27.494
63982W        W64846   9.254  14.474  25.961
63983W        W64847   7.327  12.836  25.605
63984W        W64848   8.292  13.434  28.741
63985W        W64849   7.785  12.683  28.219
63986W        W64850   8.805  12.698  27.973
63987W        W64851  10.349  10.899  28.267
63988W        W64852  10.953  12.735  28.334
63989W        W64853  10.880  13.097  26.025
63990W        W64854   9.598  13.067  26.324
63991W        W64855  10.376  14.508  25.637
63992W        W64856   9.578  12.417   0.267
63993W        W64857   7.891  13.541   0.048
63994W        W64858  10.925  11.404  28.826
63995W        W64859  10.314  12.177  27.577
63996W        W64860   8.912  14.281   0.002
63997W        W64861   8.765  11.078  25.816
63998W        W64862  10.260  13.697  25.674
63999W        W64863   8.168  11.723  28.629
64000W        W64864   8.553  13.806  28.467
64001W        W64865  10.808  11.537  28.244
64002W        W64866  10.164  14.643  26.078
64003W        W64867  10.156  12.985  27.693
64004W        W64868   8.439  11.478  28.256
64005W        W64869   8.843  12.487  28.775
64006W        W64870   8.306  13.653  26.383
64007W        W64871  10.053  13.055  26.583
64008W        W64872   8.036  11.766  28.119
64009W        W64873   9.089  13.785  26.853
64010W        W64874  10.833  12.390  27.275
64011W        W64875   9.162  10.986  28.511
64012W        W64876  10.077  13.827  27.754
64013W        W64877  10.386  14.119  27.427
64014W        W64878   9.154  13.744  26.006
64015W        W64879   7.422  13.612  28.828
64016W        W64880   8.290  11.860  27.682
64017W        W64881   8.198  11.071  26.992
64018W        W64882   9.721  12.049  27.667
64019W        W64883   8.523  12.991  25.811
64020W        W64884  10.645  13.122  27.576
64021W        W64885   8.073  13.938  28.717
64022W        W64886  10.536  14.750  26.481
64023W        W64887   8.484  11.506  26.928
64024W        W64888   8.074  12.937  27.088
64025W        W64889   8.470  14.465  27.917
64026W        W64890  10.649  14.539  28.775
64027W        W64891   9.618  13.020  27.793
64028W        W64892   7.481  12.012  25.418
64029W        W64893  10.731  14.268  26.611
64030W        W64894  10.293  11.701  26.159
64031W        W64895   8.656  11.015  28.340
64032W        W64896  10.522  13.808  27.001
64033W        W64897  10.356  12.252  27.045
64034W        W64898   8.500  12.027  27.007
64035W        W64899   8.961  12.301  28.290
64036W        W64900  10.125  13.774  28.277
64037W        W64901   8.548  11.978  28.367
64038W        W64902   8.462  14.397  27.065
64039W        W64903   7.927  14.479  28.651
64040W        W64904   7.966  13.901  25.838
64041W        W64905  10.517  13.301  26.791
64042W        W64906   8.079  12.233  28.338
64043W        W64907  10.490  12.070  25.852
64044W        W64908   8.693  13.293  26.382
64045W        W64909   9.406  12.454  28.525
64046W        W64910   9.507  12.184  28.095
64047W        W64911   8.219  12.612  27.959
64048W        W64912  10.383  14.571  27.668
64049W        W64913  10.089  11.426  28.854
64050W        W64914   7.809  11.292  28.546
64051W        W64915   8.265  12.355  27.486
64052W        W64916   8.667  12.069  25.591
64053W        W64917   7.416  13.736  28.317
64054W        W64918   8.748  12.517  27.498
64055W        W64919   8.757  11.572  25.695
64056W        W64920   8.134  12.664  26.648
64057W        W64921   7.464  14.514  27.956
64058W        W64922  10.378  12.695  26.337
64059W        W64923  10.483  11.302  28.554
64060W        W64924  10.012  13.457  26.935
64061W        W64925   7.564  12.514  28.924
64062W        W64926  10.538  11.180  26.120
64063W        W64927  10.103  13.509  26.123
64064W        W64928   9.012  12.408  26.316
64065W        W64929  10.096  11.327  25.871
64066W        W64930  10.075  12.127  28.040
64067W        W64931   7.885  12.451  27.122
64068W        W64932   8.124  13.398  26.825
64069W        W64933   9.924  12.102  26.782
64070W        W64934   9.059  11.549  27.544
64071W        W64935  10.852  13.458  27.927
64072W        W64936  10.907  11.510  27.727
64073W        W64937   7.311  14.273  27.140
64074W        W64938   7.811  13.502  26.405
64075W        W64939   7.920  11.103   0.026
64076W        W64940   9.069  13.834   0.202
64077W        W64941  10.763  12.898  27.113
64078W        W64942  10.028  12.987  26.004
64079W        W64943   9.589  14.561  28.018
64080W        W64944  10.325  13.147  28.934
64081W        W64945   8.873  10.934  26.285
64082W        W64946   9.748  11.861  27.202
64083W        W64947   7.423  13.414  27.483
64084W        W64948   8.597  11.423  26.169
64085W        W64949   8.446  12.810  28.879
64086W        W64950   9.409  11.826  26.799
64087W        W64951   9.786  13.469  28.008
64088W        W64952   7.903  13.916  28.216
64089W        W64953   8.520  13.908  28.982
64090W        W64954   8.346  11.843  25.968
64091W        W64955   9.818  11.781  26.368
64092W        W64956   9.691  13.898  28.552
64093W        W64957   8.458  12.556  27.048
64094W        W64958   7.968  14.349  27.924
64095W        W64959  10.865  14.325  25.597
64096W        W64960   7.627  12.986  28.691
64097W        W64961   9.397  13.221  27.364
64098W        W64962   7.740  13.023  26.678
64099W        W64963   8.405  13.929  27.976
64100W        W64964   8.920  11.251  27.099
64101W        W64965   7.236  13.099  26.064
64102W        W64966   9.107  12.246  25.810
64103W        W64967   7.477  12.573  26.818
64104W        W64968   8.948  11.458  28.310
64105W        W64969  10.543  11.210  25.605
64106W        W64970  10.829  12.952  28.801
64107W        W64971   9.440  14.267  28.847
64108W        W64972  10.917  13.253  28.398
64109W        W64973  10.477  13.937   0.016
64110W        W64974   8.104  14.578  27.454
64111W        W64975  10.892  13.421  26.434
64112W        W64976   9.477  12.298  26.991
64113W        W64977   9.162  10.992  26.716
64114W        W64978   8.327  13.971  26.787
64115W        W64979   8.740  11.761  27.924
64116W        W64980   8.595  10.984  27.391
64117W        W64981   7.510  14.174  25.977
64118W        W64982   9.039  13.165  26.812
64119W        W64983   8.292  14.255  28.352
64120W        W64984   7.541  12.672  26.309
64121W        W64985   7.558  11.512  27.239
64122W        W64986   8.942  13.447  27.236
64123W        W64987   7.595  11.445  26.270
64124W        W64988   9.842  12.564  28.291
64125W        W64989   9.986  11.828  25.746
64126W        W64990  10.399  13.574  27.445
64127W        W64991   9.142  13.900  27.373
64128W        W64992   8.457  14.168  26.332
64129W        W64993   9.685  11.114  25.640
64130W        W64994   7.650  14.308  27.523
64131W        W64995   9.673  11.956   0.025
64132W        W64996   7.786  11.612  28.959
64133W        W64997   7.577  12.043  26.531
64134W        W64998   8.592  12.350  26.017
64135W        W64999   9.863  12.440  28.825
64136W        W65000   8.344  12.882  27.536
64137W        W65001   9.736  11.049  26.953
64138W        W65002   8.999  14.379  27.171
64139W        W65003  10.232  14.240  28.037
64140W        W65004   9.978  13.866  27.255
64141W        W65005   9.598  13.114  26.876
64142W        W65006   9.104  11.392  26.067
64143W        W65007  10.890  11.061  26.871
64144W        W65008   8.383  12.538  25.553
64145W        W65009  10.719  11.943  26.888
64146W        W65010   9.388  13.044  25.850
64147W        W65011  10.362  13.321  28.447
64148W        W65012  10.044  14.161  25.782
64149W        W65013   8.668  11.612  28.743
64150W        W65014   8.560  12.242  27.919
64151W        W65015  10.643  13.734  28.326
64152W        W65016   9.687  11.613  28.622
64153W        W65017   7.520  12.284  28.443
64154W        W65018   9.327  12.638  28.012
64155W        W65019   7.638  13.402  27.009
64156W        W65020   7.837  12.663  27.597
64157W        W65021  10.034  13.038  28.174
64158W        W65022   9.966  14.157  28.908
64159W        W65023   9.797  12.077  28.483
64160W        W65024  10.478  14.638  26.991
64161W        W65025   8.940  13.959  28.060
64162W        W65026   8.354  14.142  27.500
64163W        W65027  10.322  13.420  27.935
64164W        W65028   9.295  13.396  28.966
64165W        W65029   7.917  13.292  27.425
64166W        W65030  10.276  13.121  27.206
64167W        W65031   9.871  14.291  27.651
64168W        W65032   7.963  13.893  27.691
64169W        W65033   8.781  12.016   0.064
64170W        W65034   9.196  14.142  26.396
64171W        W65035   8.799  13.512  28.825
64172W        W65036   8.809  13.801  26.419
64173W        W65037   8.056  12.108  25.421
64174W        W65038   7.369  18.246   3.333
64175W        W65039   7.768  17.154   2.868
64176W        W65040  10.530  16.821   0.698
64177W        W65041  10.642  17.887   2.680
64178W        W65042   8.759  17.960   0.242
64179W        W65043   8.584  16.088   1.150
64180W        W65044   8.246  15.712   1.341
64181W        W65045   9.105  16.719   0.697
64182W        W65046   8.820  17.850   2.984
64183W        W65047   7.380  15.340   2.930
64184W        W65048   7.972  14.857   2.771
64185W        W65049   9.870  15.012   1.671
64186W        W65050   9.447  15.730   0.536
64187W        W65051  10.067  15.485   3.220
64188W        W65052   7.445  15.059   2.492
64189W        W65053   7.516  17.789   3.490
64190W        W65054   9.143  17.065   0.278
64191W        W65055   7.569  15.820   1.977
64192W        W65056   8.517  15.795   3.089
64193W        W65057  10.672  15.534   1.731
64194W        W65058  10.620  16.671   2.490
64195W        W65059   8.959  16.140   1.532
64196W        W65060   9.594  17.392   1.936
64197W        W65061   7.883  16.785   2.066
64198W        W65062   7.362  16.246   1.829
64199W        W65063   8.554  16.323   2.944
64200W        W65064  10.689  16.105   3.240
64201W        W65065   8.248  17.408   1.576
64202W        W65066   9.391  17.205   2.663
64203W        W65067   8.920  15.844   1.979
64204W        W65068   8.756  16.623   1.592
64205W        W65069   9.622  17.556   3.411
64206W        W65070   8.903  16.561   3.303
64207W        W65071   9.038  16.501   2.815
64208W        W65072   7.289  15.738   3.279
64209W        W65073  10.045  17.310   3.195
64210W        W65074   7.835  14.822   1.059
64211W        W65075   8.228  17.203   2.092
64212W        W65076  10.727  16.913   1.547
64213W        W65077  10.343  15.130   1.851
64214W        W65078  10.514  15.413   0.084
64215W        W65079  10.867  16.188   2.396
64216W        W65080   8.879  17.713   2.101
64217W        W65081  10.664  17.334   0.725
64218W        W65082   8.046  18.200   0.627
64219W        W65083   8.268  18.168   1.103
64220W        W65084   8.143  14.931   2.315
64221W        W65085  10.468  15.872   2.604
64222W        W65086   9.945  16.310   1.230
64223W        W65087   9.882  15.995   0.414
64224W        W65088   9.155  17.267   2.174
64225W        W65089   9.250  15.703   1.585
64226W        W65090   9.528  17.625   2.415
64227W        W65091  10.424  16.419   1.020
64228W        W65092   9.384  15.154   0.890
64229W        W65093   7.946  17.674   0.659
64230W        W65094   7.476  15.169   1.206
64231W        W65095  10.187  15.651   1.834
64232W        W65096   8.981  17.789   0.693
64233W        W65097  10.318  15.905   0.034
64234W        W65098   7.443  17.610   2.232
64235W        W65099   8.209  17.273   2.609
64236W        W65100   8.400  16.618   1.215
64237W        W65101   8.545  15.052   1.966
64238W        W65102  10.864  14.683   1.772
64239W        W65103   8.168  16.576   0.283
64240W        W65104   7.810  15.393   0.388
64241W        W65105   7.754  17.435   1.095
64242W        W65106   8.688  17.124   1.377
64243W        W65107  10.198  17.775   2.936
64244W        W65108   9.011  15.517   0.727
64245W        W65109  10.607  17.839   1.420
64246W        W65110  10.188  15.936   3.032
64247W        W65111  10.855  17.356   1.308
64248W        W65112   9.509  16.706   2.663
64249W        W65113   7.577  16.217   0.855
64250W        W65114   8.262  16.800   2.421
64251W        W65115   9.644  16.015   0.904
64252W        W65116   9.445  16.495   1.028
64253W        W65117   7.783  15.807   2.436
64254W        W65118   7.774  15.689   3.002
64255W        W65119   7.769  14.690   1.576
64256W        W65120   9.475  15.079   2.018
64257W        W65121   9.292  15.103   3.276
64258W        W65122   9.772  15.069   0.551
64259W        W65123  10.675  17.691   3.160
64260W        W65124   9.636  14.735   2.953
64261W        W65125  10.537  17.179   3.274
64262W        W65126  10.239  15.300   2.766
64263W        W65127   9.759  15.271   1.228
64264W        W65128  10.229  16.332   3.353
64265W        W65129   8.027  17.885   1.539
64266W        W65130   8.655  15.912   0.672
64267W        W65131   8.247  14.815   3.196
64268W        W65132  10.373  15.515   0.951
64269W        W65133  10.678  15.956   0.948
64270W        W65134   8.380  18.051   3.237
64271W        W65135   8.487  14.606   0.733
64272W        W65136  10.718  15.084   1.511
64273W        W65137  10.826  17.474   0.243
64274W        W65138   7.517  16.706   1.712
64275W        W65139   9.583  15.088   0.061
64276W        W65140  10.823  17.544   1.788
64277W        W65141  10.811  14.705   2.304
64278W        W65142   9.226  16.117   3.314
64279W        W65143   9.130  17.242   0.796
64280W        W65144   9.772  16.565   3.547
64281W        W65145   9.455  14.680   1.696
64282W        W65146   7.979  15.599   1.777
64283W        W65147   7.728  16.742   2.550
64284W        W65148   9.494  17.892   1.489
64285W        W65149  10.414  15.431   2.270
64286W        W65150   9.355  17.941   2.811
64287W        W65151  10.583  16.812   0.194
64288W        W65152   8.922  16.479   1.125
64289W        W65153  10.841  14.687   2.837
64290W        W65154   8.986  16.919   2.515
64291W        W65155   9.369  15.576   2.055
64292W        W65156  10.157  15.986   0.883
64293W        W65157  10.282  15.677   0.483
64294W        W65158  10.354  17.591   1.046
64295W        W65159   9.977  17.076   1.683
64296W        W65160   9.868  16.420   0.711
64297W        W65161   9.275  16.544   1.562
64298W        W65162  10.303  16.209   1.756
64299W        W65163   7.680  15.348   2.142
64300W        W65164  10.373  16.363   2.833
64301W        W65165  10.762  17.927   2.108
64302W        W65166   8.674  17.656   1.477
64303W        W65167   9.839  18.001   2.628
64304W        W65168   9.546  15.381   2.495
64305W        W65169   8.946  18.097   2.502
64306W        W65170  10.638  15.037   1.010
64307W        W65171  10.333  16.293   2.295
64308W        W65172   7.269  15.584   2.332
64309W        W65173  10.242  15.344   1.407
64310W        W65174  10.579  15.595   3.075
64311W        W65175   9.504  17.233   1.451
64312W        W65176   8.783  18.005   1.120
64313W        W65177   7.935  14.910   0.536
64314W        W65178   9.058  14.734   2.060
64315W        W65179   8.027  17.914   0.198
64316W        W65180   8.072  16.257   0.687
64317W        W65181   9.093  16.974   3.028
64318W        W65182   8.967  15.238   1.189
64319W        W65183  10.287  14.813   1.425
64320W        W65184   9.920  18.129   1.675
64321W        W65185   9.357  17.858   1.994
64322W        W65186   8.681  16.847   2.084
64323W        W65187  10.543  17.522   2.314
64324W        W65188   8.307  15.022   1.004
64325W        W65189   8.678  17.309   1.859
64326W        W65190   8.211  15.277   0.055
64327W        W65191   9.091  15.697   2.455
64328W        W65192   9.876  14.728   2.103
64329W        W65193   7.369  16.645   2.198
64330W        W65194   8.907  16.321   0.410
64331W        W65195   8.343  14.793   0.218
64332W        W65196   9.110  16.035   0.922
64333W        W65197   9.883  14.982   2.569
64334W        W65198   8.604  16.840   2.859
64335W        W65199   9.418  16.572   3.157
64336W        W65200   9.907  16.584   3.012
64337W        W65201   9.337  14.826   3.716
64338W        W65202   8.481  15.613   1.810
64339W        W65203   7.968  15.258   1.372
64340W        W65204   7.795  17.953   1.065
64341W        W65205   9.212  17.492   3.061
64342W        W65206   8.209  16.796   0.743
64343W        W65207   9.773  16.376   1.721
64344W        W65208   9.937  16.029   2.086
64345W        W65209   9.165  16.640   2.107
64346W        W65210   9.810  17.219   0.276
64347W        W65211   9.358  15.189   1.528
64348W        W65212  10.993  15.334   0.770
64349W        W65213   7.521  17.948   2.933
64350W        W65214   7.755  17.216   2.342
64351W        W65215   7.522  18.046   0.618
64352W        W65216   9.070  15.187   2.316
64353W        W65217   8.728  17.332   0.480
64354W        W65218  10.534  17.844   0.613
64355W        W65219   9.399  16.290   0.547
64356W        W65220   8.542  15.486   0.968
64357W        W65221   9.199  15.384   0.238
64358W        W65222   9.575  17.075   3.158
64359W        W65223  10.127  15.046   0.956
64360W        W65224   7.499  14.669   0.313
64361W        W65225   8.662  17.303   2.373
64362W        W65226   8.349  16.911   1.695
64363W        W65227   8.272  17.085   0.316
64364W        W65228   7.349  17.144   0.872
64365W        W65229   8.083  16.105   2.999
64366W        W65230   8.878  14.881   3.496
64367W        W65231   9.241  15.054   2.775
64368W        W65232   8.704  14.746   1.193
64369W        W65233   9.542  14.655   0.781
64370W        W65234   7.678  14.821   2.100
64371W        W65235   7.565  15.601   1.485
64372W        W65236  10.367  14.604   1.899
64373W        W65237   7.884  15.313   0.878
64374W        W65238  10.322  14.920   2.306
64375W        W65239  10.728  16.177   0.210
64376W        W65240   8.038  15.100   1.848
64377W        W65241   9.260  15.549   2.912
64378W        W65242   7.382  15.162   0.203
64379W        W65243   8.105  16.666   2.897
64380W        W65244   9.347  16.131   1.913
64381W        W65245   9.289  18.072   0.387
64382W        W65246   7.432  16.572   0.126
64383W        W65247   8.266  17.170   3.105
64384W        W65248   7.702  16.251   2.683
64385W        W65249   8.673  16.498   2.463
64386W        W65250  10.316  14.748   2.778
64387W        W65251  10.880  16.412   2.856
64388W        W65252  10.845  16.381   0.687
64389W        W65253   9.591  17.013   0.938
64390W        W65254  10.277  18.166   0.258
64391W        W65255   9.547  16.149   3.735
64392W        W65256   7.852  17.016   3.361
64393W        W65257  10.958  15.208   3.415
64394W        W65258  10.567  15.882   2.093
64395W        W65259   8.779  18.099   3.542
64396W        W65260   8.827  14.648   0.345
64397W        W65261  10.349  17.256   0.291
64398W        W65262   8.303  15.259   2.914
64399W        W65263   8.721  17.343   2.896
64400W        W65264  10.700  15.131   2.580
64401W        W65265  10.064  18.139   0.722
64402W        W65266  10.059  16.690   2.015
64403W        W65267   8.596  15.048   2.512
64404W        W65268   8.287  17.300   0.773
64405W        W65269  10.060  16.780   0.999
64406W        W65270   7.860  15.337   2.634
64407W        W65271   9.150  17.627   1.194
64408W        W65272  10.877  15.930   1.476
64409W        W65273   9.129  14.647   3.076
64410W        W65274  10.111  17.390   2.039
64411W        W65275  10.332  17.805   1.849
64412W        W65276   9.331  17.531   0.405
64413W        W65277   7.442  17.353   3.230
64414W        W65278   8.172  15.437   2.228
64415W        W65279   8.240  14.822   1.470
64416W        W65280   9.933  15.274   2.134
64417W        W65281   8.677  16.784   0.397
64418W        W65282  10.560  16.624   1.947
64419W        W65283   7.902  17.574   3.179
64420W        W65284  10.471  18.147   1.041
64421W        W65285   8.519  15.239   1.455
64422W        W65286   7.990  16.597   1.551
64423W        W65287   8.327  18.337   2.350
64424W        W65288  10.408  18.137   3.236
64425W        W65289   9.635  16.429   2.242
64426W        W65290   7.679  16.149   0.320
64427W        W65291  10.877  17.743   0.982
64428W        W65292  10.468  15.194   0.552
64429W        W65293   8.456  14.594   2.758
64430W        W65294  10.381  17.379   1.544
64431W        W65295  10.385  15.856   1.369
64432W        W65296   8.779  15.679   1.395
64433W        W65297   8.957  15.984   2.861
64434W        W65298   9.893  17.091   2.763
64435W        W65299   8.759  15.470   2.768
64436W        W65300   8.507  18.154   1.550
64437W        W65301   7.881  18.095   3.270
64438W        W65302   7.891  17.413   0.194
64439W        W65303  10.456  17.068   1.140
64440W        W65304   8.247  15.725   2.653
64441W        W65305  10.799  15.715   0.475
64442W        W65306   8.684  16.949   0.894
64443W        W65307   9.445  16.187   2.815
64444W        W65308   9.549  15.913   2.397
64445W        W65309   8.198  16.282   2.519
64446W        W65310  10.275  17.992   2.334
64447W        W65311  10.109  14.966   3.201
64448W        W65312   7.468  14.811   2.932
64449W        W65313   8.207  15.947   2.117
64450W        W65314   8.546  15.624   0.240
64451W        W65315   7.364  17.487   2.733
64452W        W65316   8.776  16.320   2.000
64453W        W65317   8.744  15.145   0.228
64454W        W65318   8.079  16.198   1.213
64455W        W65319   7.510  18.102   2.433
64456W        W65320  10.335  16.314   0.516
64457W        W65321  10.605  15.075   3.077
64458W        W65322   9.970  17.261   1.214
64459W        W65323   7.531  16.172   3.153
64460W        W65324  10.675  14.550   0.565
64461W        W65325  10.133  17.212   0.739
64462W        W65326   8.557  16.426   0.756
64463W        W65327  10.097  15.059   0.116
64464W        W65328  10.002  15.667   2.470
64465W        W65329   7.911  16.104   1.700
64466W        W65330   8.118  17.057   1.214
64467W        W65331   9.887  15.770   1.286
64468W        W65332   8.945  15.360   1.826
64469W        W65333  10.864  17.106   2.379
64470W        W65334  10.820  15.161   2.067
64471W        W65335   7.494  17.789   1.457
64472W        W65336   7.818  17.141   0.638
64473W        W65337   7.764  14.687   3.324
64474W        W65338   8.878  17.613   3.441
64475W        W65339  10.690  16.410   1.451
64476W        W65340  10.094  16.789   0.438
64477W        W65341   9.442  18.204   2.364
64478W        W65342  10.158  16.847   3.386
64479W        W65343   9.024  14.597   0.807
64480W        W65344   9.724  15.505   1.698
64481W        W65345   7.419  17.147   1.945
64482W        W65346   8.780  15.045   0.740
64483W        W65347   8.404  16.711   3.326
64484W        W65348   9.386  15.619   1.101
64485W        W65349   9.764  17.055   2.283
64486W        W65350   7.844  17.641   2.654
64487W        W65351   8.375  17.568   3.422
64488W        W65352   8.329  15.249   0.547
64489W        W65353   9.865  15.542   0.797
64490W        W65354   9.702  17.559   2.900
64491W        W65355   8.436  16.118   1.645
64492W        W65356   8.001  17.944   2.275
64493W        W65357  10.785  18.007   0.209
64494W        W65358   7.590  16.675   3.039
64495W        W65359   9.562  16.850   1.865
64496W        W65360   7.846  16.631   1.047
64497W        W65361   8.499  17.829   2.441
64498W        W65362   8.933  14.912   1.607
64499W        W65363   7.361  17.028   0.364
64500W        W65364   9.002  15.842   0.299
64501W        W65365   7.584  16.334   1.365
64502W        W65366   8.746  14.987   3.005
64503W        W65367  10.573  14.868   0.165
64504W        W65368  10.623  16.648   3.231
64505W        W65369   9.249  17.961   3.314
64506W        W65370  10.820  16.988   2.875
64507W        W65371  10.247  17.689   3.455
64508W        W65372   8.109  18.256   1.883
64509W        W65373  10.879  16.739   1.072
64510W        W65374   9.473  16.106   1.376
64511W        W65375   9.249  14.779   1.225
64512W        W65376   8.239  17.661   1.125
64513W        W65377   8.666  15.493   2.263
64514W        W65378   8.589  14.556   1.715
64515W        W65379   7.477  17.528   0.516
64516W        W65380   9.152  16.925   1.213
64517W        W65381   8.320  17.682   2.897
64518W        W65382   7.721  16.641   0.548
64519W        W65383   7.532  15.137   1.708
64520W        W65384   9.080  16.999   1.730
64521W        W65385   7.457  15.042   0.704
64522W        W65386   9.936  16.161   2.634
64523W        W65387   9.844  15.499   0.268
64524W        W65388  10.547  17.135   1.966
64525W        W65389   9.135  17.505   1.694
64526W        W65390   8.449  17.794   0.639
64527W        W65391   9.761  14.610   0.162
64528W        W65392   7.629  18.001   1.914
64529W        W65393   9.843  15.772   3.582
64530W        W65394   7.828  15.170   3.131
64531W        W65395   7.792  15.789   1.062
64532W        W65396   8.160  15.731   0.674
64533W        W65397   9.748  16.145   3.239
64534W        W65398   8.281  16.467   2.006
64535W        W65399   9.774  14.748   1.239
64536W        W65400   9.000  18.001   1.654
64537W        W65401  10.040  17.531   2.512
64538W        W65402   9.914  17.606   1.599
64539W        W65403   9.713  16.761   1.376
64540W        W65404   9.241  14.929   0.460
64541W        W65405  10.876  14.648   1.256
64542W        W65406   8.438  16.139   0.256
64543W        W65407  10.804  15.506   1.219
64544W        W65408   9.563  16.794   0.473
64545W        W65409  10.324  16.871   2.890
64546W        W65410  10.076  17.664   0.487
64547W        W65411   8.901  15.450   3.264
64548W        W65412   8.643  15.985   2.429
64549W        W65413  10.444  17.359   2.800
64550W        W65414   9.694  15.242   2.979
64551W        W65415   7.358  15.840   2.760
64552W        W65416   9.121  16.211   2.389
64553W        W65417   7.584  16.991   1.298
64554W        W65418   7.789  16.287   2.170
64555W        W65419  10.027  16.648   2.521
64556W        W65420   9.812  17.978   3.191
64557W        W65421   9.724  15.751   2.899
64558W        W65422  10.004  17.947   1.204
64559W        W65423   9.040  17.592   2.578
64560W        W65424   8.379  17.765   1.925
64561W        W65425  10.290  17.066   2.402
64562W        W65426   9.221  17.245   3.512
64563W        W65427   7.866  17.111   1.692
64564W        W65428  10.241  16.675   1.489
64565W        W65429   9.858  17.835   2.092
64566W        W65430   7.897  17.559   1.950
64567W        W65431   9.390  15.615   3.406
64568W        W65432   9.469  17.979   0.962
64569W        W65433   8.730  17.115   3.358
64570W        W65434   8.705  17.476   0.993
64571W        W65435   8.052  15.787   0.159
64572W        W65436   7.336  18.268   7.105
64573W        W65437   7.756  17.210   6.546
64574W        W65438  10.655  16.706   4.440
64575W        W65439  10.717  17.887   6.435
64576W        W65440   8.323  17.938   3.793
64577W        W65441   8.585  16.176   5.086
64578W        W65442   8.259  15.785   5.298
64579W        W65443   9.010  16.555   4.257
64580W        W65444   8.720  17.912   6.669
64581W        W65445   7.309  15.319   6.613
64582W        W65446   7.980  14.561   6.544
64583W        W65447  10.053  14.973   5.329
64584W        W65448   9.813  15.864   4.117
64585W        W65449  10.065  15.477   6.976
64586W        W65450   7.328  14.982   6.225
64587W        W65451   7.493  17.790   7.185
64588W        W65452   8.802  17.297   3.848
64589W        W65453   7.382  15.723   5.687
64590W        W65454   8.579  15.836   6.719
64591W        W65455  10.664  15.668   5.362
64592W        W65456  10.506  16.632   6.147
64593W        W65457   9.064  16.088   5.266
64594W        W65458   9.673  17.378   5.701
64595W        W65459   7.857  16.699   5.807
64596W        W65460   7.206  16.219   5.549
64597W        W65461   8.496  16.285   6.446
64598W        W65462  10.695  16.210   6.876
64599W        W65463   8.197  17.557   5.309
64600W        W65464   9.312  17.280   6.374
64601W        W65465   8.619  16.044   5.574
64602W        W65466   8.829  16.512   5.458
64603W        W65467   9.619  17.565   7.147
64604W        W65468   8.968  16.674   7.087
64605W        W65469   8.938  16.516   6.587
64606W        W65470   7.401  15.678   6.968
64607W        W65471  10.141  17.273   6.793
64608W        W65472   7.856  14.918   4.742
64609W        W65473   8.347  17.222   5.863
64610W        W65474  10.681  16.986   5.283
64611W        W65475  10.425  15.248   5.587
64612W        W65476  10.438  15.296   3.508
64613W        W65477  10.960  16.012   6.022
64614W        W65478   8.946  17.909   5.820
64615W        W65479  10.849  17.192   4.449
64616W        W65480   7.676  18.211   4.313
64617W        W65481   8.066  18.055   4.686
64618W        W65482   7.914  14.831   6.076
64619W        W65483  10.609  16.172   6.353
64620W        W65484   9.998  16.287   4.859
64621W        W65485  10.069  16.202   3.819
64622W        W65486   9.205  17.461   5.891
64623W        W65487   9.264  15.280   5.204
64624W        W65488   9.593  17.652   6.158
64625W        W65489  10.501  16.323   4.740
64626W        W65490   9.177  14.983   4.773
64627W        W65491   7.992  17.807   4.221
64628W        W65492   7.448  15.247   4.875
64629W        W65493   9.864  15.940   5.224
64630W        W65494   7.687  17.529   5.357
64631W        W65495   8.784  17.799   3.971
64632W        W65496  10.345  15.812   3.515
64633W        W65497   7.467  17.560   5.902
64634W        W65498   8.248  17.351   6.352
64635W        W65499   8.487  16.683   5.106
64636W        W65500   8.484  15.052   5.875
64637W        W65501  10.889  14.732   5.456
64638W        W65502   7.938  16.470   3.350
64639W        W65503   7.654  15.462   3.508
64640W        W65504   7.828  17.595   4.852
64641W        W65505   8.584  17.123   4.813
64642W        W65506  10.251  17.775   6.637
64643W        W65507   9.363  15.643   4.374
64644W        W65508  10.428  17.884   5.401
64645W        W65509   9.974  15.868   6.522
64646W        W65510  10.869  17.381   4.948
64647W        W65511   9.488  16.773   6.485
64648W        W65512   7.177  16.448   4.580
64649W        W65513   8.181  16.850   6.183
64650W        W65514   9.648  15.986   4.624
64651W        W65515   9.415  16.492   4.586
64652W        W65516   7.743  15.748   6.066
64653W        W65517   7.766  15.721   6.585
64654W        W65518   7.603  14.776   5.234
64655W        W65519   9.399  15.244   5.737
64656W        W65520   9.192  15.230   6.895
64657W        W65521   9.709  15.024   4.001
64658W        W65522  10.697  17.798   6.959
64659W        W65523   9.543  14.846   6.813
64660W        W65524  10.613  17.239   7.070
64661W        W65525  10.121  15.368   6.467
64662W        W65526  10.026  15.126   4.780
64663W        W65527  10.258  16.435   7.146
64664W        W65528   7.921  17.973   5.185
64665W        W65529   8.911  15.519   4.178
64666W        W65530   8.086  14.944   6.856
64667W        W65531  10.331  15.467   4.490
64668W        W65532  10.667  15.896   4.482
64669W        W65533   8.358  17.930   7.041
64670W        W65534   8.495  14.751   4.273
64671W        W65535  10.751  15.163   5.214
64672W        W65536  10.712  17.498   3.640
64673W        W65537   7.513  16.637   5.436
64674W        W65538   9.736  15.215   3.513
64675W        W65539  10.769  17.431   5.526
64676W        W65540  10.736  14.765   6.063
64677W        W65541   9.327  16.238   6.766
64678W        W65542   9.034  16.908   4.651
64679W        W65543   9.786  16.521   7.375
64680W        W65544   9.595  14.786   5.550
64681W        W65545   7.863  15.554   5.564
64682W        W65546   7.640  16.768   6.308
64683W        W65547   9.537  17.794   5.089
64684W        W65548  10.593  15.624   5.901
64685W        W65549   9.414  18.004   6.542
64686W        W65550  10.466  16.610   3.739
64687W        W65551   8.991  16.488   4.947
64688W        W65552  10.786  14.828   6.584
64689W        W65553   9.058  16.848   6.200
64690W        W65554   9.164  15.672   5.545
64691W        W65555  10.157  15.962   4.497
64692W        W65556  10.352  15.794   4.051
64693W        W65557  10.454  17.528   4.594
64694W        W65558  10.175  17.065   5.421
64695W        W65559   9.859  16.345   4.316
64696W        W65560   9.339  16.663   5.284
64697W        W65561  10.369  16.233   5.349
64698W        W65562   7.614  15.267   5.912
64699W        W65563  10.233  16.378   6.640
64700W        W65564  10.804  17.904   5.766
64701W        W65565   8.685  17.524   5.145
64702W        W65566   9.906  18.040   6.327
64703W        W65567   9.680  15.460   6.159
64704W        W65568   8.918  18.190   6.268
64705W        W65569  10.555  15.065   4.744
64706W        W65570  10.491  16.133   5.838
64707W        W65571   7.278  15.555   6.164
64708W        W65572  10.290  15.388   5.115
64709W        W65573  10.519  15.685   6.457
64710W        W65574   9.565  17.193   5.193
64711W        W65575   8.808  17.870   4.776
64712W        W65576   8.009  15.062   3.607
64713W        W65577   9.111  14.792   5.786
64714W        W65578   7.835  18.112   3.790
64715W        W65579   8.605  16.603   4.614
64716W        W65580   9.068  17.003   6.709
64717W        W65581   9.044  15.499   4.771
64718W        W65582  10.466  14.718   5.130
64719W        W65583   9.935  18.063   5.339
64720W        W65584   9.438  17.837   5.614
64721W        W65585   8.797  16.939   5.746
64722W        W65586  10.642  17.501   6.075
64723W        W65587   8.370  14.961   4.743
64724W        W65588   8.757  17.451   5.642
64725W        W65589   8.490  15.193   3.434
64726W        W65590   9.226  15.700   6.055
64727W        W65591   9.974  14.732   5.898
64728W        W65592   7.381  16.555   5.933
64729W        W65593   9.067  16.330   3.789
64730W        W65594   8.406  14.730   3.709
64731W        W65595   9.413  15.751   5.062
64732W        W65596   9.797  14.960   6.335
64733W        W65597   8.612  16.901   6.461
64734W        W65598   9.464  16.676   6.995
64735W        W65599   9.931  16.769   6.808
64736W        W65600   9.231  14.901   7.284
64737W        W65601   8.370  15.257   5.400
64738W        W65602   7.903  15.263   5.136
64739W        W65603   7.466  17.908   4.662
64740W        W65604   9.204  17.567   6.807
64741W        W65605   7.784  17.336   4.161
64742W        W65606   9.885  16.449   5.334
64743W        W65607   9.985  16.120   5.701
64744W        W65608   9.227  16.604   5.780
64745W        W65609   9.752  17.088   3.640
64746W        W65610   9.608  14.922   5.049
64747W        W65611  10.848  15.374   4.397
64748W        W65612   7.446  18.005   6.673
64749W        W65613   7.805  17.182   6.031
64750W        W65614   7.089  17.911   4.280
64751W        W65615   8.959  15.243   6.038
64752W        W65616   8.356  17.484   4.040
64753W        W65617  10.436  17.608   4.059
64754W        W65618   9.371  16.134   4.214
64755W        W65619   8.370  15.448   4.916
64756W        W65620   9.533  15.491   3.911
64757W        W65621   9.559  17.163   6.827
64758W        W65622  10.154  14.991   4.287
64759W        W65623   7.378  14.753   3.803
64760W        W65624   8.788  17.282   6.125
64761W        W65625   8.462  17.114   5.369
64762W        W65626   8.306  17.117   3.659
64763W        W65627   7.342  17.471   4.444
64764W        W65628   8.129  16.071   6.755
64765W        W65629   8.578  14.883   6.961
64766W        W65630   9.292  15.023   6.390
64767W        W65631   8.737  14.648   4.938
64768W        W65632   9.658  14.916   4.501
64769W        W65633   7.495  14.778   5.767
64770W        W65634   7.497  15.668   5.191
64771W        W65635  10.424  14.748   5.659
64772W        W65636   8.021  14.934   4.219
64773W        W65637  10.132  15.209   5.992
64774W        W65638  10.635  16.130   3.782
64775W        W65639   7.938  15.028   5.597
64776W        W65640   9.051  15.488   6.484
64777W        W65641   8.028  16.513   6.536
64778W        W65642   9.494  16.183   5.554
64779W        W65643   9.136  18.183   3.941
64780W        W65644   7.335  16.902   3.443
64781W        W65645   8.174  16.959   6.725
64782W        W65646   7.693  16.210   6.303
64783W        W65647   8.724  16.483   6.008
64784W        W65648  10.298  14.811   6.378
64785W        W65649  10.884  16.566   6.530
64786W        W65650  10.893  16.296   4.215
64787W        W65651   9.510  16.590   4.026
64788W        W65652  10.065  18.112   3.697
64789W        W65653   9.373  16.230   7.276
64790W        W65654   7.894  17.208   7.079
64791W        W65655  10.930  15.219   7.132
64792W        W65656  10.186  15.691   5.529
64793W        W65657   8.839  18.089   7.191
64794W        W65658   8.902  14.655   3.959
64795W        W65659  10.255  17.228   3.726
64796W        W65660   8.198  15.457   6.677
64797W        W65661   8.735  17.402   6.599
64798W        W65662  10.601  15.218   6.262
64799W        W65663  10.094  17.951   4.233
64800W        W65664  10.168  16.614   5.746
64801W        W65665   8.277  15.031   6.376
64802W        W65666   8.871  16.176   7.000
64803W        W65667   8.204  17.227   4.471
64804W        W65668  10.150  16.700   4.572
64805W        W65669   7.791  15.238   6.393
64806W        W65670   9.063  17.403   4.824
64807W        W65671  10.831  16.009   4.995
64808W        W65672   9.050  14.748   6.824
64809W        W65673  10.028  17.087   5.922
64810W        W65674  10.279  17.495   5.705
64811W        W65675   9.273  17.709   3.778
64812W        W65676   7.417  17.316   6.935
64813W        W65677   8.120  15.388   6.007
64814W        W65678   8.141  14.793   5.177
64815W        W65679   9.675  15.692   5.670
64816W        W65680   8.775  16.783   3.765
64817W        W65681  10.664  16.585   5.627
64818W        W65682   7.806  17.652   6.800
64819W        W65683  10.241  18.309   4.595
64820W        W65684   8.769  15.145   5.047
64821W        W65685   8.001  16.717   5.265
64822W        W65686   8.557  18.251   5.925
64823W        W65687  10.358  18.193   7.031
64824W        W65688   9.704  16.495   5.946
64825W        W65689   7.124  16.234   3.509
64826W        W65690  10.654  17.875   4.918
64827W        W65691  10.504  15.283   4.017
64828W        W65692   8.504  14.588   6.538
64829W        W65693  10.412  17.441   5.143
64830W        W65694  10.337  15.887   4.983
64831W        W65695   8.762  15.644   5.221
64832W        W65696   8.983  16.005   6.460
64833W        W65697   9.821  17.179   6.390
64834W        W65698   8.563  15.474   6.298
64835W        W65699   8.430  17.980   5.131
64836W        W65700   7.881  18.142   6.957
64837W        W65701   7.941  17.588   3.719
64838W        W65702  10.488  17.048   4.794
64839W        W65703   8.194  15.844   6.312
64840W        W65704  10.782  15.615   3.733
64841W        W65705   8.650  16.997   4.266
64842W        W65706   9.734  16.328   6.473
64843W        W65707   9.652  15.999   6.082
64844W        W65708   8.165  16.334   6.040
64845W        W65709  10.354  17.961   6.030
64846W        W65710  10.028  14.989   6.799
64847W        W65711   7.580  14.858   6.685
64848W        W65712   8.183  15.872   5.807
64849W        W65713   8.682  15.605   3.705
64850W        W65714   7.341  17.528   6.444
64851W        W65715   9.059  16.121   5.815
64852W        W65716   9.105  15.295   3.727
64853W        W65717   8.090  16.298   4.978
64854W        W65718   7.444  18.027   6.150
64855W        W65719  10.373  16.335   4.212
64856W        W65720  10.497  15.207   6.812
64857W        W65721  10.018  17.175   4.934
64858W        W65722   7.633  16.153   6.856
64859W        W65723  10.660  14.884   4.276
64860W        W65724  10.351  17.103   4.265
64861W        W65725   9.142  16.037   4.709
64862W        W65726  10.150  14.936   3.743
64863W        W65727  10.114  15.735   6.045
64864W        W65728   7.644  16.170   5.253
64865W        W65729   8.102  17.176   5.002
64866W        W65730   9.942  15.628   4.816
64867W        W65731   8.896  15.211   5.538
64868W        W65732  10.879  17.034   6.198
64869W        W65733  10.884  15.173   5.795
64870W        W65734   7.405  17.939   5.179
64871W        W65735   7.717  17.144   4.641
64872W        W65736   7.693  14.931   7.266
64873W        W65737   8.748  17.562   7.075
64874W        W65738  10.791  16.493   5.144
64875W        W65739  10.031  16.727   3.985
64876W        W65740   9.385  18.119   6.040
64877W        W65741  10.211  16.946   7.219
64878W        W65742   8.957  14.637   4.472
64879W        W65743   9.773  15.402   5.247
64880W        W65744   7.451  17.113   5.628
64881W        W65745   8.780  15.134   4.490
64882W        W65746   8.497  16.557   6.883
64883W        W65747   9.533  15.345   4.763
64884W        W65748   9.523  16.984   6.016
64885W        W65749   7.812  17.666   6.277
64886W        W65750   8.287  17.452   6.858
64887W        W65751   8.671  15.119   3.940
64888W        W65752   9.832  15.402   4.351
64889W        W65753   9.751  17.620   6.647
64890W        W65754   8.145  16.274   5.492
64891W        W65755   8.112  18.018   6.042
64892W        W65756  10.566  18.000   3.713
64893W        W65757   7.637  16.780   6.831
64894W        W65758   9.724  16.862   5.566
64895W        W65759   8.097  16.758   4.723
64896W        W65760   8.560  17.761   6.160
64897W        W65761   9.143  14.773   5.258
64898W        W65762   7.333  17.040   4.177
64899W        W65763   9.154  15.822   3.834
64900W        W65764   7.627  16.586   4.923
64901W        W65765   8.782  15.020   6.469
64902W        W65766  10.650  14.848   3.684
64903W        W65767  10.850  16.679   7.058
64904W        W65768   9.353  18.015   7.057
64905W        W65769  10.966  17.046   6.699
64906W        W65770  10.175  17.709   7.136
64907W        W65771   8.099  18.259   5.593
64908W        W65772  10.960  16.860   4.838
64909W        W65773   9.500  16.258   5.033
64910W        W65774   9.408  14.529   4.720
64911W        W65775   8.340  17.616   4.775
64912W        W65776   8.597  15.556   5.764
64913W        W65777   8.633  14.794   5.429
64914W        W65778   7.505  17.759   4.014
64915W        W65779   8.933  16.995   5.184
64916W        W65780   8.213  17.849   6.546
64917W        W65781   7.617  16.687   4.419
64918W        W65782   7.444  15.222   5.431
64919W        W65783   9.254  17.072   5.583
64920W        W65784   7.472  15.071   4.345
64921W        W65785  10.125  16.242   6.165
64922W        W65786  10.044  15.420   3.879
64923W        W65787  10.532  17.048   5.807
64924W        W65788   9.167  17.505   5.333
64925W        W65789   8.479  17.951   4.367
64926W        W65790   9.769  14.696   3.473
64927W        W65791   7.659  17.970   5.649
64928W        W65792   9.628  15.749   7.108
64929W        W65793   7.739  15.304   6.906
64930W        W65794   7.354  15.731   4.700
64931W        W65795   8.664  15.832   4.708
64932W        W65796   9.814  16.220   6.961
64933W        W65797   8.352  16.706   5.675
64934W        W65798   9.997  14.632   4.899
64935W        W65799   8.949  17.982   5.295
64936W        W65800  10.108  17.548   6.198
64937W        W65801   9.945  17.551   5.312
64938W        W65802   9.737  16.736   4.939
64939W        W65803   9.243  15.114   4.229
64940W        W65804  10.958  14.757   4.931
64941W        W65805   8.876  16.035   4.249
64942W        W65806  10.702  15.542   4.860
64943W        W65807   9.285  16.759   3.602
64944W        W65808  10.462  16.839   6.740
64945W        W65809   9.914  17.625   3.843
64946W        W65810   8.696  15.361   6.840
64947W        W65811   8.641  15.955   6.082
64948W        W65812  10.621  17.415   6.599
64949W        W65813   9.641  15.349   6.663
64950W        W65814   7.312  15.924   6.528
64951W        W65815   9.280  16.355   6.229
64952W        W65816   7.622  17.056   5.140
64953W        W65817   7.707  16.177   5.771
64954W        W65818  10.011  16.722   6.292
64955W        W65819   9.879  18.078   6.870
64956W        W65820   9.464  15.811   6.524
64957W        W65821  10.138  17.844   4.909
64958W        W65822   9.057  17.710   6.313
64959W        W65823   8.442  17.856   5.638
64960W        W65824  10.358  17.105   6.307
64961W        W65825   9.168  17.167   7.186
64962W        W65826   7.965  17.137   5.534
64963W        W65827  10.284  16.677   5.088
64964W        W65828   9.913  17.849   5.804
64965W        W65829   7.993  17.597   5.783
64966W        W65830   9.133  15.744   6.936
64967W        W65831   9.148  17.798   4.342
64968W        W65832   8.630  17.063   6.977
64969W        W65833   8.712  17.486   4.426
64970W        W65834   8.138  15.541   3.330
64971W        W65835   7.454  18.126  10.815
64972W        W65836   7.761  17.069  10.304
64973W        W65837  10.591  16.649   7.988
64974W        W65838  10.735  17.850   9.876
64975W        W65839   8.151  17.994   7.714
64976W        W65840   8.734  16.029   8.469
64977W        W65841   8.199  15.722   8.844
64978W        W65842   9.216  16.720   8.088
64979W        W65843   8.895  17.914  10.320
64980W        W65844   7.293  15.269  10.312
64981W        W65845   7.880  14.515  10.126
64982W        W65846   9.870  15.020   9.017
64983W        W65847   9.594  15.872   7.622
64984W        W65848  10.073  15.424  10.557
64985W        W65849   7.408  14.950   9.914
64986W        W65850   7.621  17.661  10.894
64987W        W65851   8.807  17.316   7.549
64988W        W65852   7.441  15.687   9.394
64989W        W65853   8.467  15.844  10.546
64990W        W65854  10.892  15.517   9.044
64991W        W65855  10.559  16.600   9.725
64992W        W65856   9.021  16.042   8.938
64993W        W65857   9.534  17.401   9.171
64994W        W65858   7.818  16.670   9.553
64995W        W65859   7.133  16.123   9.269
64996W        W65860   8.507  16.215  10.193
64997W        W65861  10.659  16.062  10.497
64998W        W65862   8.168  17.512   9.016
64999W        W65863   9.379  17.177   9.960
65000W        W65864   8.679  15.707   9.291
65001W        W65865   8.815  16.573   8.971
65002W        W65866   9.710  17.528  10.680
65003W        W65867   9.130  16.610  10.662
65004W        W65868   8.934  16.476  10.218
65005W        W65869   6.857  15.496  10.526
65006W        W65870  10.030  17.284  10.321
65007W        W65871   7.715  14.844   8.504
65008W        W65872   8.472  17.339   9.395
65009W        W65873  10.719  16.915   8.821
65010W        W65874  10.500  15.307   9.335
65011W        W65875  10.466  15.413   7.316
65012W        W65876  10.867  16.164   9.702
65013W        W65877   8.948  17.998   9.543
65014W        W65878  10.825  17.138   8.019
65015W        W65879   7.748  18.172   7.997
65016W        W65880   8.106  18.121   8.459
65017W        W65881   8.006  14.830   9.736
65018W        W65882  10.480  15.824   9.901
65019W        W65883  10.036  16.161   8.321
65020W        W65884  10.034  16.033   7.417
65021W        W65885   9.204  17.108   9.483
65022W        W65886   9.107  15.309   8.737
65023W        W65887   9.522  17.585   9.649
65024W        W65888  10.507  16.387   8.437
65025W        W65889   9.596  14.897   8.152
65026W        W65890   7.959  17.735   8.154
65027W        W65891   7.352  15.202   8.609
65028W        W65892   9.938  15.790   9.000
65029W        W65893   7.663  17.530   9.126
65030W        W65894   8.558  17.779   7.490
65031W        W65895  10.255  15.946   6.935
65032W        W65896   7.453  17.536   9.620
65033W        W65897   8.292  17.391   9.888
65034W        W65898   8.336  16.573   8.745
65035W        W65899   8.431  15.003   9.506
65036W        W65900  10.950  14.765   9.167
65037W        W65901   8.007  16.482   7.053
65038W        W65902   7.617  15.440   7.391
65039W        W65903   7.816  17.539   8.614
65040W        W65904   8.500  17.173   8.647
65041W        W65905  10.245  17.772  10.086
65042W        W65906   9.329  15.507   7.872
65043W        W65907  10.540  18.154   8.850
65044W        W65908  10.179  15.894  10.353
65045W        W65909  10.859  17.293   8.517
65046W        W65910   9.497  16.665   9.719
65047W        W65911   7.289  16.235   8.421
65048W        W65912   8.279  16.918   9.640
65049W        W65913   9.539  15.933   8.142
65050W        W65914   9.615  16.446   8.258
65051W        W65915   7.838  15.808   9.709
65052W        W65916   7.644  15.636  10.160
65053W        W65917   7.685  14.679   8.982
65054W        W65918   9.360  15.093   9.143
65055W        W65919   9.139  15.172  10.506
65056W        W65920   9.567  15.097   7.640
65057W        W65921  10.696  17.633  10.383
65058W        W65922   9.480  14.790  10.476
65059W        W65923  10.502  17.138  10.490
65060W        W65924  10.129  15.470  10.048
65061W        W65925   9.898  15.178   8.517
65062W        W65926  10.235  16.331  10.636
65063W        W65927   7.907  17.952   8.922
65064W        W65928   8.823  15.485   7.743
65065W        W65929   8.058  14.855  10.471
65066W        W65930  10.278  15.446   8.243
65067W        W65931  10.586  15.899   8.219
65068W        W65932   8.487  18.044  10.632
65069W        W65933   8.200  14.728   7.916
65070W        W65934  10.679  15.081   8.891
65071W        W65935  10.911  17.516   7.382
65072W        W65936   7.438  16.599   9.173
65073W        W65937   9.651  15.220   7.154
65074W        W65938  10.766  17.504   9.025
65075W        W65939  10.664  14.800   9.612
65076W        W65940   9.355  16.183  10.399
65077W        W65941   9.019  17.191   8.003
65078W        W65942   9.641  16.592  10.662
65079W        W65943   9.536  14.617   9.076
65080W        W65944   7.913  15.560   9.238
65081W        W65945   7.503  16.813   9.941
65082W        W65946   9.606  17.898   8.816
65083W        W65947  10.786  15.695   9.515
65084W        W65948   9.375  18.041  10.072
65085W        W65949  10.624  16.496   7.491
65086W        W65950   9.170  16.289   8.437
65087W        W65951  10.832  14.846  10.080
65088W        W65952   9.026  16.798   9.846
65089W        W65953   9.206  15.612   9.167
65090W        W65954  10.009  15.806   7.944
65091W        W65955  10.465  15.705   7.750
65092W        W65956  10.458  17.481   8.241
65093W        W65957   9.929  17.007   9.039
65094W        W65958   9.841  16.281   7.835
65095W        W65959   9.365  16.413   8.926
65096W        W65960  10.461  16.274   8.959
65097W        W65961   7.688  15.283   9.620
65098W        W65962  10.394  16.297  10.107
65099W        W65963  10.743  17.934   9.333
65100W        W65964   8.664  17.568   8.938
65101W        W65965   9.829  17.986   9.838
65102W        W65966   9.719  15.271   9.814
65103W        W65967   8.950  18.288   9.949
65104W        W65968  10.612  15.037   8.385
65105W        W65969  10.388  16.157   9.495
65106W        W65970   7.264  15.475   9.851
65107W        W65971  10.233  15.376   8.865
65108W        W65972  10.562  15.545  10.347
65109W        W65973   9.507  17.220   8.674
65110W        W65974   8.804  17.860   8.526
65111W        W65975   7.761  15.005   7.782
65112W        W65976   9.044  14.699   9.329
65113W        W65977   7.741  18.144   7.457
65114W        W65978   8.835  16.375   8.030
65115W        W65979   9.029  17.002  10.314
65116W        W65980   9.085  14.974   8.324
65117W        W65981  10.256  14.858   8.710
65118W        W65982  10.032  18.176   8.954
65119W        W65983   9.337  17.867   9.254
65120W        W65984   8.738  16.862   9.426
65121W        W65985  10.497  17.523   9.540
65122W        W65986   8.177  15.024   8.343
65123W        W65987   8.957  17.529   9.360
65124W        W65988   8.288  15.314   7.169
65125W        W65989   9.059  15.789   9.649
65126W        W65990   9.906  14.743   9.461
65127W        W65991   7.283  16.472   9.626
65128W        W65992   8.906  16.369   7.498
65129W        W65993   8.205  14.817   7.353
65130W        W65994   9.202  15.775   8.537
65131W        W65995   9.855  14.872  10.109
65132W        W65996   8.549  16.888  10.126
65133W        W65997   9.411  16.659  10.208
65134W        W65998   9.907  16.436  10.246
65135W        W65999   9.157  14.808  10.885
65136W        W66000   8.369  15.308   9.090
65137W        W66001   7.887  15.267   8.776
65138W        W66002   7.597  17.992   8.508
65139W        W66003   9.191  17.481  10.431
65140W        W66004   8.519  17.048   7.910
65141W        W66005   9.959  16.305   8.916
65142W        W66006   9.875  16.102   9.409
65143W        W66007   9.154  16.586   9.360
65144W        W66008   9.695  17.029   7.308
65145W        W66009   9.474  14.947   8.666
65146W        W66010  10.754  15.400   8.058
65147W        W66011   7.564  17.980  10.340
65148W        W66012   7.822  17.186   9.799
65149W        W66013   7.269  18.150   8.151
65150W        W66014   9.250  15.301   9.597
65151W        W66015   8.300  17.511   7.834
65152W        W66016  10.777  17.636   7.857
65153W        W66017   9.323  16.287   7.815
65154W        W66018   8.900  15.449   8.272
65155W        W66019   9.229  15.423   7.372
65156W        W66020   9.561  17.090  10.435
65157W        W66021  10.158  14.918   8.182
65158W        W66022   7.354  14.668   7.672
65159W        W66023   8.787  17.242   9.786
65160W        W66024   8.376  16.949   9.089
65161W        W66025   8.343  17.306   7.347
65162W        W66026   7.450  17.579   8.227
65163W        W66027   8.022  16.260  10.323
65164W        W66028   8.548  14.948  10.463
65165W        W66029   9.349  14.959  10.010
65166W        W66030   8.597  14.675   8.466
65167W        W66031   9.981  14.798   7.730
65168W        W66032   7.574  14.773   9.476
65169W        W66033   7.543  15.641   8.889
65170W        W66034  10.348  14.836   9.219
65171W        W66035   7.714  15.299   8.250
65172W        W66036  10.205  15.082   9.702
65173W        W66037  10.540  16.014   7.350
65174W        W66038   7.963  15.050   9.255
65175W        W66039   9.218  15.494  10.081
65176W        W66040   7.266  15.164   7.651
65177W        W66041   8.028  16.711  10.034
65178W        W66042   9.356  16.105   9.357
65179W        W66043   9.159  18.135   7.607
65180W        W66044   7.364  16.430   7.193
65181W        W66045   8.240  17.234  10.373
65182W        W66046   7.687  16.325   9.934
65183W        W66047   8.610  16.499   9.773
65184W        W66048  10.322  14.687  10.027
65185W        W66049  10.907  16.384  10.139
65186W        W66050  10.853  16.176   7.826
65187W        W66051   9.691  16.771   7.839
65188W        W66052  10.149  18.224   7.519
65189W        W66053   9.385  16.220  10.914
65190W        W66054   7.910  17.198  10.797
65191W        W66055  10.908  15.148  10.671
65192W        W66056  10.457  15.785   9.126
65193W        W66057   8.968  18.060  10.832
65194W        W66058   8.648  14.744   7.648
65195W        W66059  10.630  17.006   7.540
65196W        W66060   8.221  15.388  10.398
65197W        W66061   8.695  17.436  10.249
65198W        W66062  10.642  15.316   9.865
65199W        W66063  10.335  17.893   7.907
65200W        W66064  10.219  16.621   9.277
65201W        W66065   8.357  15.130   9.993
65202W        W66066   8.894  16.145  10.626
65203W        W66067   8.133  17.251   8.276
65204W        W66068  10.098  16.657   8.189
65205W        W66069   7.844  15.161  10.099
65206W        W66070   8.996  17.263   8.523
65207W        W66071  10.829  15.947   8.733
65208W        W66072   8.972  14.665  10.389
65209W        W66073  10.049  17.396   9.337
65210W        W66074  10.316  17.754   9.096
65211W        W66075   9.140  17.671   7.377
65212W        W66076   7.397  17.265  10.631
65213W        W66077   8.244  15.490   9.632
65214W        W66078   8.162  14.833   8.816
65215W        W66079   9.713  15.432   9.321
65216W        W66080   8.628  16.830   7.440
65217W        W66081  10.726  16.623   9.238
65218W        W66082   7.821  17.552  10.442
65219W        W66083  10.488  18.179   8.325
65220W        W66084   8.616  15.141   8.659
65221W        W66085   7.922  16.681   9.046
65222W        W66086   8.536  18.284   9.645
65223W        W66087  10.433  18.092  10.434
65224W        W66088   9.712  16.574   9.277
65225W        W66089   7.501  15.962   7.367
65226W        W66090  10.756  17.789   8.540
65227W        W66091  10.297  15.218   7.767
65228W        W66092   8.399  14.619  10.052
65229W        W66093  10.385  17.325   8.744
65230W        W66094  10.305  15.883   8.648
65231W        W66095   8.722  15.631   8.794
65232W        W66096   8.964  15.952  10.145
65233W        W66097   9.828  16.921  10.016
65234W        W66098   8.650  15.550  10.154
65235W        W66099   8.413  18.027   8.879
65236W        W66100   7.972  18.009  10.661
65237W        W66101   7.993  17.696   7.303
65238W        W66102  10.475  16.967   8.375
65239W        W66103   8.179  15.805  10.091
65240W        W66104  10.899  15.667   7.456
65241W        W66105   8.751  16.834   8.332
65242W        W66106   9.564  16.214   9.931
65243W        W66107   9.574  15.753   9.703
65244W        W66108   8.159  16.255   9.779
65245W        W66109  10.285  17.999   9.582
65246W        W66110   9.971  14.915  10.605
65247W        W66111   7.554  14.822  10.389
65248W        W66112   8.232  15.951   9.372
65249W        W66113   8.713  15.678   7.245
65250W        W66114   7.399  17.378  10.118
65251W        W66115   8.791  16.208   9.377
65252W        W66116   8.782  15.156   7.338
65253W        W66117   8.008  16.189   8.982
65254W        W66118   7.588  18.171   9.863
65255W        W66119  10.343  16.207   7.860
65256W        W66120  10.446  15.048  10.391
65257W        W66121   9.991  17.098   8.496
65258W        W66122   7.535  16.089  10.394
65259W        W66123  10.610  14.845   7.908
65260W        W66124  10.288  17.100   7.919
65261W        W66125   9.033  15.900   8.045
65262W        W66126  10.111  15.044   7.297
65263W        W66127  10.145  15.640   9.535
65264W        W66128   7.504  16.158   8.905
65265W        W66129   8.001  17.096   8.764
65266W        W66130   9.870  15.677   8.446
65267W        W66131   8.862  15.211   9.192
65268W        W66132  10.740  17.087   9.641
65269W        W66133  10.989  15.194   9.476
65270W        W66134   7.369  17.937   8.969
65271W        W66135   7.549  17.097   8.438
65272W        W66136   7.701  14.758  10.882
65273W        W66137   8.766  17.606  10.734
65274W        W66138  10.909  16.448   8.785
65275W        W66139  10.178  16.663   7.663
65276W        W66140   9.412  18.233   9.597
65277W        W66141  10.083  16.831  10.586
65278W        W66142   8.897  14.554   8.065
65279W        W66143   9.585  15.459   8.825
65280W        W66144   7.418  17.035   9.464
65281W        W66145   8.634  15.028   8.087
65282W        W66146   8.609  16.592  10.589
65283W        W66147   9.441  15.364   8.342
65284W        W66148   9.715  17.068   9.521
65285W        W66149   7.794  17.694   9.962
65286W        W66150   8.258  17.587  10.740
65287W        W66151   8.370  15.189   7.674
65288W        W66152   9.836  15.332   8.006
65289W        W66153   9.626  17.599  10.171
65290W        W66154   8.518  16.117   8.955
65291W        W66155   8.136  18.007   9.767
65292W        W66156  10.609  17.960   7.452
65293W        W66157   7.621  16.593  10.393
65294W        W66158   9.409  16.916   9.065
65295W        W66159   7.972  16.754   8.390
65296W        W66160   8.611  17.803   9.874
65297W        W66161   9.008  14.823   8.823
65298W        W66162   7.244  17.041   7.997
65299W        W66163   9.097  15.886   7.525
65300W        W66164   7.554  16.629   8.672
65301W        W66165   8.862  15.078  10.077
65302W        W66166  10.587  14.881   7.390
65303W        W66167  10.626  16.624  10.500
65304W        W66168   9.399  17.939  10.568
65305W        W66169  10.829  16.896  10.105
65306W        W66170  10.247  17.628  10.626
65307W        W66171   8.109  18.243   9.305
65308W        W66172  10.940  16.760   8.370
65309W        W66173   9.608  16.065   8.643
65310W        W66174   9.213  14.500   8.483
65311W        W66175   8.310  17.659   8.546
65312W        W66176   8.744  15.379   9.679
65313W        W66177   8.586  14.783   9.087
65314W        W66178   7.425  17.816   7.734
65315W        W66179   9.183  16.786   8.620
65316W        W66180   8.250  17.774  10.248
65317W        W66181   7.500  16.625   8.154
65318W        W66182   7.483  15.173   9.113
65319W        W66183   8.922  17.113   9.015
65320W        W66184   7.354  14.940   8.143
65321W        W66185  10.012  16.001   9.889
65322W        W66186   9.948  15.505   7.500
65323W        W66187  10.452  17.099   9.208
65324W        W66188   9.168  17.603   8.857
65325W        W66189   8.473  17.943   8.122
65326W        W66190   9.708  14.712   7.288
65327W        W66191   7.678  17.971   9.399
65328W        W66192   9.621  15.621  10.751
65329W        W66193   7.751  15.264  10.590
65330W        W66194   7.385  15.708   8.415
65331W        W66195   8.624  15.976   7.693
65332W        W66196   9.795  16.088  10.641
65333W        W66197   8.335  16.479   9.315
65334W        W66198   9.838  14.608   8.553
65335W        W66199   8.904  18.034   9.026
65336W        W66200   9.971  17.417   9.832
65337W        W66201   9.919  17.498   8.852
65338W        W66202   9.712  16.704   8.687
65339W        W66203   9.072  15.029   7.789
65340W        W66204  10.942  14.700   8.601
65341W        W66205   8.400  16.104   7.191
65342W        W66206  10.648  15.504   8.583
65343W        W66207   9.297  16.719   7.497
65344W        W66208  10.310  16.808  10.126
65345W        W66209  10.406  17.471   7.535
65346W        W66210   8.696  15.390  10.663
65347W        W66211   8.576  15.921   9.768
65348W        W66212  10.456  17.305  10.011
65349W        W66213   9.627  15.275  10.341
65350W        W66214   7.145  15.814  10.243
65351W        W66215   9.093  16.290   9.776
65352W        W66216   7.534  17.058   8.964
65353W        W66217   7.677  16.186   9.404
65354W        W66218  10.019  16.506   9.742
65355W        W66219   9.904  17.973  10.436
65356W        W66220   9.671  15.778  10.230
65357W        W66221  10.224  17.823   8.589
65358W        W66222   9.096  17.628   9.928
65359W        W66223   8.471  17.851   9.359
65360W        W66224  10.215  16.996   9.652
65361W        W66225   9.199  17.103  10.803
65362W        W66226   7.935  17.125   9.299
65363W        W66227  10.245  16.711   8.757
65364W        W66228   9.839  17.857   9.314
65365W        W66229   8.015  17.590   9.501
65366W        W66230   9.135  15.690  10.589
65367W        W66231   8.894  17.748   7.874
65368W        W66232   8.667  17.102  10.662
65369W        W66233   8.631  17.451   8.219
65370W        W66234   7.930  15.745   7.090
65371W        W66235   7.263  18.342  14.453
65372W        W66236   7.674  17.226  13.770
65373W        W66237  10.179  16.516  11.544
65374W        W66238  10.477  17.951  13.693
65375W        W66239   8.411  17.904  11.133
65376W        W66240   8.863  16.042  12.164
65377W        W66241   8.444  15.994  12.714
65378W        W66242   9.245  16.710  11.605
65379W        W66243   8.719  17.865  14.166
65380W        W66244   7.380  15.300  13.973
65381W        W66245   7.994  14.555  13.854
65382W        W66246   9.868  14.889  12.608
65383W        W66247   9.565  15.427  11.276
65384W        W66248  10.114  15.415  14.217
65385W        W66249   7.533  14.917  13.600
65386W        W66250   7.455  17.872  14.516
65387W        W66251   8.853  17.294  11.130
65388W        W66252   7.459  15.579  13.017
65389W        W66253   8.562  15.893  14.122
65390W        W66254  10.703  15.470  12.718
65391W        W66255  10.470  16.624  13.397
65392W        W66256   9.224  15.854  12.498
65393W        W66257   9.505  17.444  13.023
65394W        W66258   8.056  16.579  13.000
65395W        W66259   7.168  16.435  13.065
65396W        W66260   8.553  16.286  13.796
65397W        W66261  10.570  16.103  14.055
65398W        W66262   8.061  17.732  12.607
65399W        W66263   9.194  17.421  13.826
65400W        W66264   8.876  15.816  12.955
65401W        W66265   8.828  16.718  12.746
65402W        W66266   9.576  17.520  14.491
65403W        W66267   8.947  16.674  14.477
65404W        W66268   8.998  16.508  13.974
65405W        W66269   6.963  15.510  14.286
65406W        W66270  10.025  17.333  14.270
65407W        W66271   7.687  14.763  12.006
65408W        W66272   8.137  17.291  13.305
65409W        W66273  10.538  17.031  12.528
65410W        W66274  10.271  15.328  13.034
65411W        W66275  10.498  15.399  10.848
65412W        W66276  10.967  16.085  13.313
65413W        W66277   8.821  17.832  13.172
65414W        W66278  10.640  17.539  11.593
65415W        W66279   7.761  18.265  11.626
65416W        W66280   8.187  18.213  11.963
65417W        W66281   8.035  14.820  13.403
65418W        W66282  10.518  15.999  13.567
65419W        W66283   9.937  16.308  12.251
65420W        W66284   9.758  15.905  11.150
65421W        W66285   9.067  17.413  13.302
65422W        W66286   9.090  15.300  12.366
65423W        W66287   9.456  17.715  13.492
65424W        W66288  10.375  16.368  12.002
65425W        W66289   9.549  14.812  11.789
65426W        W66290   8.090  17.840  11.619
65427W        W66291   7.351  15.110  12.295
65428W        W66292   9.837  15.884  12.551
65429W        W66293   7.564  17.623  12.693
65430W        W66294   8.877  17.780  11.299
65431W        W66295  10.202  15.843  10.862
65432W        W66296   7.365  17.722  13.156
65433W        W66297   8.189  17.134  13.791
65434W        W66298   8.812  16.557  12.250
65435W        W66299   8.573  15.069  13.240
65436W        W66300  10.904  14.771  12.874
65437W        W66301   8.120  16.761  10.539
65438W        W66302   7.714  15.221  11.104
65439W        W66303   7.727  17.568  12.209
65440W        W66304   8.715  17.156  12.516
65441W        W66305  10.081  17.955  14.043
65442W        W66306   9.147  15.359  11.566
65443W        W66307  10.342  18.185  12.528
65444W        W66308  10.094  15.939  13.869
65445W        W66309  10.941  17.451  12.532
65446W        W66310   9.437  16.765  13.798
65447W        W66311   6.901  16.328  12.608
65448W        W66312   8.375  16.812  13.374
65449W        W66313   9.485  15.810  11.616
65450W        W66314   9.608  16.492  11.907
65451W        W66315   7.799  15.713  13.438
65452W        W66316   7.852  15.742  13.977
65453W        W66317   7.651  14.684  12.539
65454W        W66318   9.396  15.055  12.757
65455W        W66319   9.274  15.190  14.214
65456W        W66320   9.469  14.929  11.300
65457W        W66321  10.693  17.784  14.126
65458W        W66322   9.612  14.759  14.204
65459W        W66323  10.554  17.322  14.339
65460W        W66324  10.151  15.290  13.696
65461W        W66325   9.977  15.097  12.137
65462W        W66326  10.302  16.405  14.384
65463W        W66327   7.845  18.096  12.332
65464W        W66328   8.674  15.343  11.329
65465W        W66329   8.133  14.939  14.164
65466W        W66330  10.302  15.338  11.795
65467W        W66331  10.391  15.843  11.786
65468W        W66332   8.248  18.038  14.267
65469W        W66333   8.101  14.590  11.637
65470W        W66334  10.430  15.034  12.624
65471W        W66335  10.717  17.404  10.874
65472W        W66336   7.601  16.875  12.968
65473W        W66337   9.570  15.130  10.845
65474W        W66338  10.507  17.420  12.844
65475W        W66339  10.791  14.725  13.381
65476W        W66340   9.381  16.173  14.084
65477W        W66341   8.993  17.350  11.618
65478W        W66342   9.866  16.547  14.633
65479W        W66343   9.425  14.560  12.609
65480W        W66344   7.955  15.533  12.868
65481W        W66345   7.871  16.873  13.421
65482W        W66346   9.303  17.851  12.495
65483W        W66347  10.626  15.688  13.177
65484W        W66348   9.234  17.913  13.957
65485W        W66349  10.473  16.417  11.079
65486W        W66350   9.300  16.356  12.318
65487W        W66351  10.876  14.803  13.887
65488W        W66352   9.016  17.004  13.616
65489W        W66353   9.289  15.524  12.897
65490W        W66354   9.966  15.639  11.543
65491W        W66355  10.442  15.600  11.320
65492W        W66356  10.350  17.806  11.915
65493W        W66357   9.981  17.450  12.799
65494W        W66358   9.936  16.105  11.771
65495W        W66359   9.313  16.576  12.783
65496W        W66360  10.269  16.261  12.649
65497W        W66361   7.768  15.230  13.240
65498W        W66362  10.282  16.487  13.870
65499W        W66363  10.703  17.975  13.232
65500W        W66364   8.581  17.647  12.504
65501W        W66365   9.671  18.123  13.762
65502W        W66366   9.678  15.444  13.498
65503W        W66367   9.109  18.112  13.492
65504W        W66368  10.534  14.973  12.062
65505W        W66369  10.504  16.183  13.089
65506W        W66370   7.380  15.413  13.491
65507W        W66371  10.004  15.377  12.585
65508W        W66372  10.507  15.605  13.928
65509W        W66373   9.559  17.250  12.543
65510W        W66374   8.838  17.987  12.192
65511W        W66375   7.700  14.840  11.458
65512W        W66376   9.090  14.727  13.031
65513W        W66377   7.915  18.095  11.158
65514W        W66378   8.783  16.532  11.728
65515W        W66379   9.043  17.008  14.118
65516W        W66380   9.074  14.993  11.939
65517W        W66381  10.232  14.637  12.351
65518W        W66382   9.957  18.304  12.907
65519W        W66383   9.296  17.914  13.016
65520W        W66384   8.792  16.997  13.159
65521W        W66385  10.398  17.566  13.324
65522W        W66386   8.170  14.959  12.023
65523W        W66387   8.532  17.435  12.993
65524W        W66388   8.210  15.194  10.861
65525W        W66389   9.217  15.827  13.368
65526W        W66390   9.661  14.714  13.051
65527W        W66391   7.326  16.844  13.424
65528W        W66392   9.062  16.301  11.311
65529W        W66393   8.229  14.688  10.938
65530W        W66394   9.177  15.664  12.007
65531W        W66395   9.819  14.909  13.522
65532W        W66396   8.609  16.831  13.846
65533W        W66397   9.434  16.657  14.316
65534W        W66398   9.903  16.760  14.129
65535W        W66399   9.321  14.867  14.629
65536W        W66400   8.479  15.467  12.913
65537W        W66401   7.870  15.174  12.411
65538W        W66402   7.442  18.033  11.994
65539W        W66403   9.092  17.521  14.315
65540W        W66404   8.624  17.001  11.509
65541W        W66405   9.758  16.375  12.710
65542W        W66406   9.974  16.049  13.029
65543W        W66407   9.270  16.744  13.270
65544W        W66408   9.723  17.039  10.925
65545W        W66409   9.479  14.978  12.266
65546W        W66410  10.770  15.291  11.568
65547W        W66411   7.425  18.058  13.989
65548W        W66412   7.607  17.296  13.267
65549W        W66413   7.049  17.933  11.625
65550W        W66414   9.360  15.089  13.290
65551W        W66415   8.485  17.512  11.482
65552W        W66416  10.455  18.005  11.358
65553W        W66417   9.565  16.294  11.429
65554W        W66418   8.744  15.392  11.976
65555W        W66419   9.102  15.311  11.020
65556W        W66420   9.531  17.146  14.136
65557W        W66421  10.130  14.750  11.791
65558W        W66422   7.366  14.524  11.225
65559W        W66423   8.598  17.302  13.519
65560W        W66424   8.367  16.965  12.856
65561W        W66425   8.360  17.189  11.070
65562W        W66426   7.219  17.522  11.890
65563W        W66427   8.117  16.185  14.095
65564W        W66428   8.638  14.945  14.161
65565W        W66429   9.358  14.884  13.773
65566W        W66430   8.590  14.683  12.156
65567W        W66431   9.799  14.530  11.427
65568W        W66432   7.595  14.779  13.110
65569W        W66433   7.483  15.582  12.500
65570W        W66434  10.341  14.607  12.898
65571W        W66435   7.406  15.160  11.784
65572W        W66436  10.312  14.919  13.324
65573W        W66437  10.690  15.937  10.999
65574W        W66438   8.145  15.049  12.938
65575W        W66439   9.212  15.449  13.756
65576W        W66440   7.246  15.030  11.298
65577W        W66441   8.146  16.614  13.802
65578W        W66442   9.469  16.004  12.931
65579W        W66443   9.270  18.086  11.245
65580W        W66444   7.166  16.422  10.616
65581W        W66445   8.377  16.997  14.261
65582W        W66446   7.808  16.173  13.671
65583W        W66447   8.827  16.552  13.466
65584W        W66448  10.334  14.803  13.827
65585W        W66449  10.826  16.390  13.696
65586W        W66450  10.638  16.247  11.568
65587W        W66451   9.758  16.782  11.452
65588W        W66452  10.140  18.071  10.909
65589W        W66453   9.456  16.223  14.600
65590W        W66454   7.927  17.247  14.224
65591W        W66455  11.006  15.270  14.469
65592W        W66456  10.289  15.759  12.774
65593W        W66457   8.651  18.193  14.586
65594W        W66458   8.546  14.602  11.351
65595W        W66459  10.172  16.847  11.115
65596W        W66460   8.284  15.458  14.013
65597W        W66461   8.686  17.350  14.022
65598W        W66462  10.648  15.197  13.629
65599W        W66463   9.965  18.208  11.378
65600W        W66464  10.098  16.550  13.041
65601W        W66465   8.362  15.060  13.718
65602W        W66466   8.956  16.156  14.368
65603W        W66467   8.300  17.243  11.884
65604W        W66468  10.023  16.765  12.015
65605W        W66469   7.871  15.262  13.763
65606W        W66470   9.093  17.424  12.283
65607W        W66471  10.708  15.982  12.595
65608W        W66472   9.077  14.707  14.202
65609W        W66473   9.931  17.327  13.289
65610W        W66474  10.261  17.886  12.945
65611W        W66475   9.242  17.617  10.946
65612W        W66476   7.385  17.519  14.144
65613W        W66477   8.219  15.411  13.384
65614W        W66478   8.169  14.770  12.510
65615W        W66479   9.790  15.577  13.005
65616W        W66480   8.854  16.775  11.070
65617W        W66481  10.577  16.656  12.892
65618W        W66482   7.842  17.747  14.134
65619W        W66483  10.306  18.303  11.767
65620W        W66484   8.562  15.132  12.426
65621W        W66485   7.970  16.820  12.556
65622W        W66486   8.559  18.244  13.308
65623W        W66487  10.426  18.254  14.278
65624W        W66488   9.638  16.405  13.221
65625W        W66489   7.393  15.629  10.663
65626W        W66490  10.721  17.909  12.254
65627W        W66491  10.360  15.089  11.351
65628W        W66492   8.516  14.587  13.786
65629W        W66493  10.284  17.687  12.451
65630W        W66494  10.296  15.928  12.277
65631W        W66495   8.742  15.638  12.484
65632W        W66496   8.989  15.934  13.840
65633W        W66497   9.905  17.188  13.792
65634W        W66498   8.649  15.553  13.651
65635W        W66499   8.398  18.123  12.427
65636W        W66500   7.777  18.224  14.329
65637W        W66501   8.021  17.566  11.195
65638W        W66502  10.572  17.386  12.148
65639W        W66503   8.251  15.873  13.685
65640W        W66504  10.937  15.493  11.100
65641W        W66505   8.822  17.030  12.001
65642W        W66506   9.762  16.373  13.797
65643W        W66507   9.695  15.961  13.478
65644W        W66508   8.214  16.311  13.402
65645W        W66509  10.127  18.188  13.374
65646W        W66510  10.116  14.881  14.291
65647W        W66511   7.636  14.864  14.093
65648W        W66512   8.266  15.864  13.169
65649W        W66513   8.768  15.776  10.996
65650W        W66514   7.305  17.652  13.657
65651W        W66515   9.080  16.273  13.123
65652W        W66516   8.669  14.957  10.966
65653W        W66517   8.391  16.498  12.587
65654W        W66518   7.508  18.120  13.471
65655W        W66519  10.212  16.053  11.332
65656W        W66520  10.575  15.137  14.157
65657W        W66521  10.085  17.202  12.343
65658W        W66522   7.554  16.210  14.109
65659W        W66523  10.439  14.581  11.387
65660W        W66524  10.240  17.036  11.617
65661W        W66525   9.200  16.203  11.811
65662W        W66526   9.957  14.902  11.112
65663W        W66527  10.140  15.707  13.381
65664W        W66528   7.798  16.017  13.019
65665W        W66529   8.210  17.287  12.412
65666W        W66530   9.953  15.621  12.067
65667W        W66531   8.897  15.181  12.827
65668W        W66532  10.697  17.072  13.184
65669W        W66533  10.779  15.187  13.138
65670W        W66534   7.354  18.089  12.523
65671W        W66535   7.864  17.053  12.094
65672W        W66536   7.713  14.879  14.627
65673W        W66537   8.739  17.698  14.656
65674W        W66538  10.673  16.508  12.418
65675W        W66539   9.915  16.401  11.061
65676W        W66540   9.553  18.292  13.256
65677W        W66541  10.243  16.904  14.503
65678W        W66542   8.905  14.549  11.739
65679W        W66543   9.557  15.483  12.382
65680W        W66544   7.240  17.251  12.869
65681W        W66545   8.586  14.966  11.716
65682W        W66546   8.518  16.496  14.249
65683W        W66547   9.555  15.338  11.882
65684W        W66548   9.491  17.167  13.474
65685W        W66549   7.836  17.695  13.600
65686W        W66550   8.347  17.533  14.377
65687W        W66551   8.212  15.009  11.346
65688W        W66552   9.887  15.133  11.558
65689W        W66553   9.666  17.617  13.972
65690W        W66554   8.903  16.229  12.646
65691W        W66555   8.031  18.167  13.295
65692W        W66556  10.619  17.901  10.868
65693W        W66557   7.635  16.680  13.828
65694W        W66558   9.701  16.910  12.975
65695W        W66559   8.384  16.853  12.218
65696W        W66560   8.352  17.760  13.396
65697W        W66561   8.994  14.812  12.464
65698W        W66562   7.259  17.010  12.063
65699W        W66563   9.251  15.796  11.143
65700W        W66564   7.595  16.414  12.748
65701W        W66565   8.874  15.054  13.692
65702W        W66566  10.431  14.880  10.889
65703W        W66567  10.724  16.609  14.150
65704W        W66568   9.125  18.046  14.441
65705W        W66569  10.816  16.913  13.680
65706W        W66570  10.290  17.762  14.471
65707W        W66571   8.072  18.295  12.783
65708W        W66572  10.984  17.039  12.231
65709W        W66573   9.571  15.969  12.111
65710W        W66574   9.251  14.520  12.122
65711W        W66575   8.230  17.726  12.115
65712W        W66576   8.953  15.404  13.281
65713W        W66577   8.596  14.759  12.806
65714W        W66578   7.481  17.912  11.344
65715W        W66579   9.163  16.906  12.386
65716W        W66580   8.288  17.649  13.884
65717W        W66581   7.559  16.649  12.280
65718W        W66582   7.519  15.140  12.776
65719W        W66583   9.201  17.068  12.873
65720W        W66584   7.238  14.688  11.705
65721W        W66585  10.109  16.263  13.454
65722W        W66586  10.023  15.406  11.072
65723W        W66587  10.221  17.029  12.988
65724W        W66588   9.008  17.532  12.789
65725W        W66589   8.606  17.983  11.717
65726W        W66590   9.608  14.572  10.933
65727W        W66591   7.640  18.088  12.934
65728W        W66592   9.679  15.725  14.471
65729W        W66593   7.818  15.323  14.299
65730W        W66594   7.127  15.923  12.282
65731W        W66595   8.938  15.830  11.556
65732W        W66596   9.855  16.184  14.264
65733W        W66597   8.573  16.386  13.050
65734W        W66598   9.767  14.563  12.186
65735W        W66599   8.866  18.035  12.697
65736W        W66600   9.987  17.735  13.592
65737W        W66601   9.805  17.904  12.627
65738W        W66602   9.649  16.752  12.384
65739W        W66603   8.970  14.914  11.377
65740W        W66604  10.727  14.644  12.423
65741W        W66605   8.627  16.299  11.032
65742W        W66606  10.403  15.427  12.294
65743W        W66607   9.380  16.692  11.107
65744W        W66608  10.365  16.975  14.008
65745W        W66609  10.301  17.568  11.142
65746W        W66610   8.806  15.423  14.114
65747W        W66611   8.711  16.013  13.399
65748W        W66612  10.332  17.489  13.882
65749W        W66613   9.718  15.206  13.958
65750W        W66614   7.396  15.834  13.772
65751W        W66615   9.284  16.301  13.590
65752W        W66616   7.568  17.130  12.498
65753W        W66617   7.643  16.443  13.272
65754W        W66618   9.909  16.777  13.475
65755W        W66619   9.636  18.005  14.310
65756W        W66620   9.622  15.728  13.950
65757W        W66621   9.992  18.059  12.173
65758W        W66622   8.801  17.746  13.680
65759W        W66623   8.398  17.936  12.919
65760W        W66624  10.329  17.099  13.521
65761W        W66625   9.251  17.093  14.579
65762W        W66626   7.928  17.261  12.840
65763W        W66627  10.132  16.730  12.548
65764W        W66628   9.798  17.848  13.136
65765W        W66629   7.919  17.703  13.096
65766W        W66630   9.200  15.705  14.281
65767W        W66631   9.106  17.828  11.783
65768W        W66632   8.746  17.191  14.545
65769W        W66633   8.692  17.542  11.987
65770W        W66634   7.928  15.779  10.564
65771W        W66635   7.487  18.315  17.938
65772W        W66636   7.739  17.117  17.582
65773W        W66637  10.570  16.764  15.179
65774W        W66638  10.683  17.970  17.353
65775W        W66639   8.255  17.898  14.784
65776W        W66640   9.021  16.199  15.501
65777W        W66641   8.273  16.092  16.454
65778W        W66642   9.143  16.656  15.328
65779W        W66643   8.855  17.852  17.636
65780W        W66644   7.323  15.441  17.570
65781W        W66645   7.968  14.752  17.453
65782W        W66646  10.048  14.989  16.390
65783W        W66647   9.611  15.733  15.003
65784W        W66648  10.027  15.498  17.805
65785W        W66649   7.547  14.883  17.180
65786W        W66650   7.567  17.853  18.119
65787W        W66651   8.934  16.908  14.947
65788W        W66652   7.478  15.761  16.639
65789W        W66653   8.492  16.006  17.631
65790W        W66654  10.811  15.585  16.642
65791W        W66655  10.577  16.736  17.201
65792W        W66656   9.205  15.966  16.358
65793W        W66657   9.598  17.424  16.593
65794W        W66658   7.820  16.760  16.874
65795W        W66659   7.120  16.167  16.612
65796W        W66660   8.515  16.415  17.297
65797W        W66661  10.610  16.070  17.744
65798W        W66662   8.205  17.551  16.352
65799W        W66663   9.322  17.340  17.369
65800W        W66664   8.770  16.035  16.648
65801W        W66665   8.643  16.682  16.281
65802W        W66666  10.059  17.298  17.929
65803W        W66667   8.955  16.672  18.055
65804W        W66668   8.964  16.499  17.556
65805W        W66669   7.083  15.733  17.973
65806W        W66670   7.735  14.832  15.721
65807W        W66671   8.328  17.419  16.981
65808W        W66672  10.703  17.126  16.166
65809W        W66673  10.045  15.330  16.809
65810W        W66674  10.514  15.456  14.557
65811W        W66675  10.956  15.993  16.972
65812W        W66676   8.866  18.045  16.765
65813W        W66677  10.786  17.483  15.197
65814W        W66678   7.581  18.117  15.367
65815W        W66679   8.082  18.158  15.799
65816W        W66680   8.058  14.998  17.006
65817W        W66681  10.516  15.959  17.244
65818W        W66682   9.971  16.257  15.707
65819W        W66683   9.930  16.065  14.780
65820W        W66684   9.161  17.255  16.831
65821W        W66685   9.177  15.401  16.147
65822W        W66686   9.626  17.638  17.068
65823W        W66687  10.394  16.325  15.409
65824W        W66688   9.683  15.000  15.580
65825W        W66689   7.981  17.770  15.458
65826W        W66690   7.353  15.080  16.001
65827W        W66691  10.100  16.009  16.251
65828W        W66692   7.625  17.580  16.392
65829W        W66693   8.618  17.777  15.149
65830W        W66694  10.250  15.877  14.385
65831W        W66695   7.440  17.604  16.908
65832W        W66696   8.227  17.260  17.457
65833W        W66697   8.747  16.564  15.761
65834W        W66698   8.564  15.160  16.955
65835W        W66699  10.879  14.722  16.349
65836W        W66700   7.943  16.709  14.258
65837W        W66701   7.536  15.321  14.883
65838W        W66702   7.851  17.562  15.927
65839W        W66703   8.737  17.056  15.929
65840W        W66704  10.259  17.759  17.607
65841W        W66705   9.330  15.266  15.296
65842W        W66706  10.608  18.029  16.242
65843W        W66707  10.143  15.973  17.608
65844W        W66708  11.075  17.501  16.019
65845W        W66709   9.566  16.827  17.421
65846W        W66710   7.388  16.427  16.036
65847W        W66711   8.308  16.888  17.026
65848W        W66712   9.622  15.936  15.519
65849W        W66713   9.498  16.424  15.615
65850W        W66714   7.570  15.798  17.160
65851W        W66715   7.704  15.788  17.677
65852W        W66716   7.614  14.669  16.200
65853W        W66717   9.591  15.103  16.661
65854W        W66718   9.130  15.210  17.804
65855W        W66719   9.734  15.170  14.991
65856W        W66720  10.723  17.719  17.864
65857W        W66721   9.460  14.812  17.812
65858W        W66722  10.845  17.008  18.164
65859W        W66723  10.137  15.281  17.363
65860W        W66724  10.083  15.203  15.882
65861W        W66725  10.302  16.290  18.093
65862W        W66726   7.955  17.973  16.255
65863W        W66727   8.906  15.450  15.022
65864W        W66728   8.119  14.957  17.881
65865W        W66729  10.314  15.527  15.537
65866W        W66730  10.628  15.871  15.328
65867W        W66731   8.548  18.213  17.840
65868W        W66732   8.241  14.317  15.304
65869W        W66733  10.569  15.177  16.384
65870W        W66734  10.776  17.667  14.672
65871W        W66735   7.608  16.669  16.424
65872W        W66736   9.739  15.190  14.482
65873W        W66737  10.810  17.582  16.445
65874W        W66738  10.752  14.663  17.105
65875W        W66739   9.297  16.092  17.654
65876W        W66740   9.169  17.181  15.385
65877W        W66741   9.807  16.425  18.139
65878W        W66742   9.623  14.679  16.372
65879W        W66743   7.957  15.653  16.373
65880W        W66744   7.512  16.747  17.277
65881W        W66745   9.409  17.805  16.068
65882W        W66746  10.495  15.476  17.044
65883W        W66747   9.345  17.893  17.492
65884W        W66748  10.674  16.673  14.670
65885W        W66749   9.159  16.366  15.989
65886W        W66750  10.922  14.707  17.596
65887W        W66751   9.100  16.878  17.206
65888W        W66752   9.303  15.541  16.632
65889W        W66753  10.087  15.921  15.270
65890W        W66754  10.422  15.909  14.863
65891W        W66755  10.407  17.725  15.523
65892W        W66756  10.037  17.336  16.306
65893W        W66757   9.878  16.402  15.205
65894W        W66758   9.453  16.669  16.259
65895W        W66759  10.431  16.380  16.408
65896W        W66760   7.803  15.379  16.779
65897W        W66761  10.353  16.515  17.629
65898W        W66762  10.906  17.997  16.713
65899W        W66763   8.688  17.522  16.157
65900W        W66764   9.845  18.003  17.371
65901W        W66765   9.607  15.488  17.058
65902W        W66766   8.950  18.189  17.245
65903W        W66767  10.533  15.056  15.657
65904W        W66768  10.553  16.332  16.900
65905W        W66769   7.362  15.339  17.043
65906W        W66770  10.144  15.504  16.320
65907W        W66771  10.518  15.565  17.601
65908W        W66772   9.523  17.171  16.151
65909W        W66773   8.883  17.863  15.819
65910W        W66774   7.689  14.906  15.177
65911W        W66775   8.907  14.720  16.766
65912W        W66776   7.785  18.146  14.853
65913W        W66777   8.653  16.497  15.204
65914W        W66778   9.084  17.013  17.700
65915W        W66779   9.195  15.047  15.766
65916W        W66780  10.414  14.786  16.081
65917W        W66781  10.164  18.246  16.450
65918W        W66782   9.370  17.888  16.643
65919W        W66783   8.793  16.880  16.791
65920W        W66784  10.649  17.619  16.946
65921W        W66785   8.410  14.687  15.658
65922W        W66786   8.739  17.548  16.703
65923W        W66787   8.392  15.277  14.482
65924W        W66788   9.230  15.993  16.894
65925W        W66789   9.925  14.670  16.790
65926W        W66790   7.292  16.652  16.815
65927W        W66791   9.009  16.364  14.865
65928W        W66792   8.231  14.798  14.650
65929W        W66793   9.216  15.873  15.857
65930W        W66794   9.767  14.988  17.152
65931W        W66795   8.626  16.896  17.449
65932W        W66796   9.412  16.598  17.844
65933W        W66797   9.932  16.783  17.784
65934W        W66798   9.100  14.856  18.192
65935W        W66799   8.424  15.622  16.648
65936W        W66800   7.799  15.156  16.270
65937W        W66801   7.603  18.005  15.875
65938W        W66802   9.199  17.521  17.847
65939W        W66803   8.270  16.882  15.159
65940W        W66804   9.935  16.494  16.280
65941W        W66805  10.049  16.257  16.720
65942W        W66806   9.322  16.760  16.759
65943W        W66807   9.752  17.033  14.596
65944W        W66808   9.613  15.114  16.105
65945W        W66809  10.829  15.435  15.502
65946W        W66810   7.649  17.997  17.560
65947W        W66811   7.777  17.236  17.093
65948W        W66812   7.065  17.992  15.282
65949W        W66813   9.139  15.152  16.938
65950W        W66814   8.584  17.282  15.040
65951W        W66815  10.524  18.109  14.784
65952W        W66816   9.411  16.209  15.130
65953W        W66817   8.956  15.478  15.654
65954W        W66818   9.334  15.383  14.731
65955W        W66819   9.576  17.161  17.801
65956W        W66820  10.136  15.082  15.332
65957W        W66821   7.376  14.570  14.938
65958W        W66822   8.791  17.314  17.191
65959W        W66823   8.508  17.142  16.460
65960W        W66824   8.197  17.171  14.715
65961W        W66825   7.481  17.640  15.529
65962W        W66826   8.029  16.238  17.755
65963W        W66827   8.600  14.852  18.039
65964W        W66828   9.295  14.910  17.355
65965W        W66829   8.865  14.656  15.911
65966W        W66830   9.508  14.740  15.139
65967W        W66831   7.685  14.868  16.684
65968W        W66832   7.480  15.551  16.153
65969W        W66833  10.439  14.696  16.601
65970W        W66834   7.416  15.233  15.518
65971W        W66835  10.300  14.938  17.024
65972W        W66836  10.746  16.168  14.530
65973W        W66837   8.243  15.150  16.538
65974W        W66838   9.167  15.488  17.341
65975W        W66839   7.184  15.019  15.108
65976W        W66840   8.097  16.712  17.488
65977W        W66841   9.548  16.284  16.596
65978W        W66842   9.008  18.055  14.945
65979W        W66843   7.471  16.996  14.200
65980W        W66844   8.345  16.993  17.874
65981W        W66845   7.647  16.261  17.401
65982W        W66846   8.922  16.419  16.988
65983W        W66847  10.370  14.686  17.463
65984W        W66848  10.875  16.350  17.397
65985W        W66849  10.771  16.279  15.032
65986W        W66850   9.632  16.846  15.343
65987W        W66851  10.013  18.218  14.614
65988W        W66852   9.366  16.152  18.153
65989W        W66853   7.876  17.151  18.069
65990W        W66854  10.942  15.039  17.993
65991W        W66855  10.362  15.854  16.707
65992W        W66856   8.945  18.121  18.163
65993W        W66857   8.664  14.594  15.170
65994W        W66858  10.521  17.178  14.849
65995W        W66859   8.196  15.568  17.676
65996W        W66860   8.693  17.361  17.701
65997W        W66861  10.658  15.109  17.363
65998W        W66862  10.202  18.125  15.191
65999W        W66863  10.227  16.758  16.814
66000W        W66864   8.306  15.141  17.423
66001W        W66865   8.867  16.167  17.963
66002W        W66866   8.250  17.299  15.469
66003W        W66867  10.141  16.755  15.501
66004W        W66868   7.802  15.327  17.375
66005W        W66869   9.129  17.390  15.877
66006W        W66870  10.649  15.924  16.269
66007W        W66871   8.977  14.686  17.725
66008W        W66872  10.033  17.308  16.824
66009W        W66873  10.297  17.721  16.567
66010W        W66874   9.069  17.431  14.933
66011W        W66875   7.397  17.398  17.922
66012W        W66876   8.194  15.506  17.090
66013W        W66877   8.123  14.781  16.104
66014W        W66878   9.819  15.790  16.667
66015W        W66879   8.503  16.735  14.720
66016W        W66880  10.710  16.772  16.618
66017W        W66881   7.876  17.591  17.793
66018W        W66882  10.481  18.229  15.636
66019W        W66883   8.741  15.149  16.014
66020W        W66884   8.138  16.730  16.427
66021W        W66885   8.499  18.328  17.004
66022W        W66886  10.493  18.214  17.837
66023W        W66887   9.755  16.597  16.976
66024W        W66888   7.445  15.699  14.291
66025W        W66889  10.837  17.887  15.778
66026W        W66890  10.482  15.407  15.071
66027W        W66891   8.491  14.694  17.566
66028W        W66892  10.452  17.568  16.071
66029W        W66893  10.395  15.980  15.807
66030W        W66894   8.768  15.679  16.258
66031W        W66895   8.912  16.010  17.313
66032W        W66896   9.907  17.321  17.397
66033W        W66897   8.625  15.565  17.364
66034W        W66898   8.465  18.000  16.180
66035W        W66899   8.024  18.133  17.901
66036W        W66900   7.782  17.348  15.221
66037W        W66901  10.722  17.355  15.693
66038W        W66902   8.054  15.931  17.342
66039W        W66903  10.895  15.718  14.802
66040W        W66904   8.712  16.956  15.423
66041W        W66905   9.767  16.330  17.572
66042W        W66906   9.702  16.085  17.076
66043W        W66907   8.067  16.362  17.068
66044W        W66908  10.406  18.112  16.892
66045W        W66909   9.941  14.893  17.647
66046W        W66910   7.552  14.977  17.689
66047W        W66911   7.973  15.890  16.828
66048W        W66912   8.730  15.685  14.567
66049W        W66913   7.465  17.528  17.427
66050W        W66914   9.040  16.443  16.488
66051W        W66915   8.895  15.177  14.566
66052W        W66916   8.286  16.412  16.031
66053W        W66917   7.519  18.196  17.101
66054W        W66918  10.293  16.412  14.900
66055W        W66919  10.415  15.076  17.824
66056W        W66920  10.252  17.120  15.866
66057W        W66921   7.485  16.177  17.934
66058W        W66922  10.555  14.864  15.138
66059W        W66923  10.363  17.210  15.350
66060W        W66924   9.200  15.761  15.307
66061W        W66925  10.189  15.068  14.787
66062W        W66926  10.066  15.744  17.139
66063W        W66927   7.709  16.137  16.352
66064W        W66928   8.252  17.194  15.999
66065W        W66929   9.953  15.719  15.845
66066W        W66930   8.832  15.242  16.526
66067W        W66931  10.868  17.135  17.007
66068W        W66932  10.772  15.085  16.844
66069W        W66933   7.266  17.923  16.255
66070W        W66934   7.826  17.107  15.695
66071W        W66935   7.688  14.943  18.212
66072W        W66936   8.783  17.645  18.140
66073W        W66937  10.821  16.616  16.142
66074W        W66938  10.074  16.874  15.000
66075W        W66939   9.430  18.158  17.068
66076W        W66940  10.352  16.825  18.080
66077W        W66941   9.107  14.608  15.458
66078W        W66942   9.622  15.641  16.224
66079W        W66943   7.504  17.137  16.654
66080W        W66944   8.775  15.017  15.472
66081W        W66945   8.504  16.517  17.800
66082W        W66946   9.494  15.469  15.746
66083W        W66947   9.615  17.105  17.011
66084W        W66948   7.961  17.675  17.291
66085W        W66949   8.315  17.469  18.045
66086W        W66950   8.550  15.067  14.954
66087W        W66951   9.833  15.481  15.382
66088W        W66952   9.731  17.663  17.746
66089W        W66953   8.724  16.179  16.157
66090W        W66954   8.009  18.100  17.014
66091W        W66955   7.651  16.646  17.774
66092W        W66956   9.797  16.924  16.551
66093W        W66957   8.286  16.804  15.680
66094W        W66958   8.578  17.829  17.167
66095W        W66959   9.147  14.894  16.295
66096W        W66960   7.343  17.156  15.541
66097W        W66961   9.160  15.863  14.786
66098W        W66962   7.856  16.682  15.980
66099W        W66963   8.820  15.065  17.385
66100W        W66964  10.667  14.947  14.651
66101W        W66965  10.790  16.547  17.897
66102W        W66966   9.426  18.031  17.984
66103W        W66967  11.037  16.872  17.410
66104W        W66968  10.265  17.769  18.121
66105W        W66969   8.071  18.352  16.586
66106W        W66970  10.650  16.842  15.694
66107W        W66971   9.619  16.140  16.066
66108W        W66972   9.414  14.627  15.906
66109W        W66973   8.338  17.674  15.819
66110W        W66974   8.869  15.606  16.918
66111W        W66975   8.598  14.787  16.364
66112W        W66976   7.454  17.757  15.017
66113W        W66977   9.219  16.858  15.816
66114W        W66978   8.342  17.770  17.634
66115W        W66979   7.496  16.681  15.608
66116W        W66980   7.356  15.228  16.534
66117W        W66981   9.055  16.999  16.347
66118W        W66982   7.277  14.730  15.513
66119W        W66983  10.144  16.323  17.212
66120W        W66984  10.049  15.555  14.792
66121W        W66985  10.494  17.229  16.637
66122W        W66986   9.140  17.509  16.383
66123W        W66987   8.505  18.068  15.539
66124W        W66988   9.798  14.705  14.688
66125W        W66989   7.622  18.049  16.622
66126W        W66990   9.436  15.627  17.927
66127W        W66991   7.792  15.356  17.928
66128W        W66992   7.302  15.740  15.672
66129W        W66993   8.766  15.968  15.096
66130W        W66994   9.839  15.933  18.018
66131W        W66995   8.472  16.466  16.746
66132W        W66996   9.929  14.699  15.941
66133W        W66997   8.991  18.029  16.282
66134W        W66998  10.173  17.699  17.112
66135W        W66999   9.831  17.840  16.363
66136W        W67000   9.789  16.778  15.875
66137W        W67001   9.037  14.942  15.035
66138W        W67002  10.834  14.636  15.821
66139W        W67003   8.545  16.187  14.668
66140W        W67004  10.555  15.493  15.977
66141W        W67005   9.422  16.684  14.869
66142W        W67006  10.612  16.986  17.652
66143W        W67007  10.354  17.661  14.994
66144W        W67008   8.616  15.295  17.800
66145W        W67009   8.463  15.967  17.043
66146W        W67010  10.750  17.454  17.422
66147W        W67011   9.603  15.279  17.555
66148W        W67012   7.239  15.955  17.545
66149W        W67013   9.353  16.403  17.241
66150W        W67014   7.798  17.133  16.218
66151W        W67015   7.613  16.254  16.846
66152W        W67016  10.072  16.834  17.303
66153W        W67017   9.969  18.125  17.859
66154W        W67018   9.680  15.784  17.498
66155W        W67019  10.169  17.989  15.980
66156W        W67020   9.103  17.715  17.072
66157W        W67021   8.369  17.924  16.682
66158W        W67022  10.383  17.215  17.175
66159W        W67023   9.245  17.103  18.194
66160W        W67024   8.031  17.172  16.657
66161W        W67025  10.282  16.872  16.317
66162W        W67026   9.885  18.030  16.841
66163W        W67027   7.932  17.661  16.777
66164W        W67028   8.951  15.705  17.748
66165W        W67029   9.098  17.749  15.364
66166W        W67030   8.732  17.133  18.178
66167W        W67031   8.727  17.449  15.555
66168W        W67032   8.160  15.753  14.415
66169W        W67033   7.351  18.202  21.592
66170W        W67034   7.643  17.036  21.051
66171W        W67035  10.804  16.631  18.938
66172W        W67036  10.991  17.758  20.791
66173W        W67037   8.407  17.991  18.283
66174W        W67038   8.696  16.216  19.595
66175W        W67039   8.217  15.865  19.841
66176W        W67040   9.255  16.497  18.852
66177W        W67041   8.669  17.966  21.014
66178W        W67042   7.306  15.250  21.194
66179W        W67043   7.964  14.429  21.123
66180W        W67044   9.921  15.042  19.954
66181W        W67045   9.560  15.752  18.434
66182W        W67046  10.062  15.469  21.425
66183W        W67047   7.434  14.942  20.806
66184W        W67048   7.488  17.704  21.717
66185W        W67049   8.959  16.856  18.574
66186W        W67050   7.391  15.736  20.306
66187W        W67051   8.574  15.843  21.240
66188W        W67052  10.808  15.482  19.887
66189W        W67053  10.493  16.474  20.645
66190W        W67054   9.119  16.018  19.980
66191W        W67055   9.634  17.391  20.210
66192W        W67056   8.015  16.689  20.405
66193W        W67057   7.244  16.225  20.179
66194W        W67058   8.505  16.338  21.140
66195W        W67059  10.677  16.096  21.437
66196W        W67060   8.240  17.402  19.915
66197W        W67061   9.486  17.246  20.888
66198W        W67062   8.813  15.698  20.273
66199W        W67063   8.849  16.593  19.953
66200W        W67064   9.811  17.590  21.624
66201W        W67065   9.010  16.702  21.695
66202W        W67066   9.100  16.559  21.214
66203W        W67067   7.349  15.615  21.556
66204W        W67068  10.168  17.262  21.458
66205W        W67069   7.831  14.796  19.306
66206W        W67070   8.343  17.085  20.369
66207W        W67071  10.837  16.899  19.841
66208W        W67072  10.321  15.394  20.111
66209W        W67073  10.589  15.327  18.247
66210W        W67074  11.087  16.008  20.752
66211W        W67075   8.892  17.904  20.303
66212W        W67076  11.056  17.094  18.973
66213W        W67077   7.823  18.282  18.903
66214W        W67078   8.137  18.206  19.435
66215W        W67079   7.944  14.814  20.809
66216W        W67080  10.618  15.983  20.951
66217W        W67081   9.993  16.127  19.406
66218W        W67082  10.053  16.004  18.487
66219W        W67083   9.206  17.258  20.470
66220W        W67084   9.220  15.590  19.708
66221W        W67085   9.500  17.686  20.624
66222W        W67086  10.474  16.282  19.195
66223W        W67087   9.603  15.010  19.044
66224W        W67088   7.980  17.820  19.102
66225W        W67089   7.485  15.148  19.498
66226W        W67090  10.044  15.886  19.857
66227W        W67091   7.641  17.491  20.012
66228W        W67092   8.810  17.906  18.633
66229W        W67093  10.368  15.776  18.097
66230W        W67094   7.389  17.516  20.484
66231W        W67095   8.096  17.206  20.829
66232W        W67096   8.595  16.751  19.534
66233W        W67097   8.363  14.848  20.531
66234W        W67098  11.012  14.704  20.127
66235W        W67099   8.066  16.633  18.091
66236W        W67100   7.821  15.361  18.479
66237W        W67101   7.860  17.500  19.529
66238W        W67102   8.617  17.273  19.446
66239W        W67103  10.230  17.628  21.086
66240W        W67104   9.405  15.466  18.834
66241W        W67105  10.559  18.210  19.725
66242W        W67106  10.199  15.941  21.278
66243W        W67107  11.115  17.425  19.473
66244W        W67108   9.575  16.759  21.003
66245W        W67109   6.795  15.850  19.318
66246W        W67110   8.349  16.747  20.812
66247W        W67111   9.686  15.890  18.990
66248W        W67112   9.566  16.349  19.241
66249W        W67113   7.799  15.778  20.627
66250W        W67114   7.718  15.723  21.151
66251W        W67115   7.745  14.699  19.835
66252W        W67116   9.476  15.072  20.269
66253W        W67117   9.200  15.242  21.339
66254W        W67118   9.688  15.139  18.553
66255W        W67119  10.728  17.796  21.244
66256W        W67120   9.551  14.834  21.331
66257W        W67121  10.678  17.310  21.480
66258W        W67122  10.153  15.114  21.064
66259W        W67123   9.910  15.131  19.443
66260W        W67124  10.268  16.339  21.659
66261W        W67125   7.992  17.885  19.856
66262W        W67126   8.915  15.496  18.717
66263W        W67127   8.080  14.909  21.354
66264W        W67128  10.390  15.435  19.117
66265W        W67129  10.726  15.854  19.004
66266W        W67130   8.426  17.839  21.520
66267W        W67131   8.362  14.727  18.916
66268W        W67132  10.718  14.990  19.819
66269W        W67133  11.112  17.316  18.518
66270W        W67134   7.529  16.680  20.219
66271W        W67135   9.714  15.172  18.049
66272W        W67136  10.929  17.389  19.976
66273W        W67137  10.693  14.709  20.516
66274W        W67138   9.358  16.141  21.316
66275W        W67139   9.021  17.252  19.080
66276W        W67140   9.790  16.526  21.953
66277W        W67141   9.413  14.616  20.028
66278W        W67142   7.880  15.571  20.131
66279W        W67143   7.857  16.599  20.872
66280W        W67144   9.471  17.815  19.695
66281W        W67145  10.427  15.599  20.575
66282W        W67146   9.300  17.995  20.984
66283W        W67147  10.681  16.581  18.416
66284W        W67148   9.134  16.462  19.511
66285W        W67149  10.789  14.698  21.029
66286W        W67150   9.087  16.942  20.863
66287W        W67151   9.394  15.600  20.197
66288W        W67152  10.200  15.886  18.998
66289W        W67153  10.390  15.616  18.623
66290W        W67154  10.677  17.208  19.320
66291W        W67155  10.104  17.178  20.179
66292W        W67156   9.999  16.337  18.937
66293W        W67157   9.370  16.472  19.995
66294W        W67158  10.371  16.291  19.708
66295W        W67159   7.624  15.291  20.480
66296W        W67160  10.365  16.403  21.146
66297W        W67161  10.856  17.825  20.273
66298W        W67162   8.697  17.628  19.839
66299W        W67163   9.979  17.982  20.793
66300W        W67164   9.623  15.396  20.639
66301W        W67165   8.991  18.272  20.670
66302W        W67166  10.676  15.007  19.291
66303W        W67167  10.664  16.037  20.454
66304W        W67168   7.216  15.477  20.732
66305W        W67169  10.368  15.329  19.612
66306W        W67170  10.496  15.511  21.094
66307W        W67171   9.481  17.269  19.722
66308W        W67172   8.791  17.941  19.398
66309W        W67173   7.840  14.904  18.722
66310W        W67174   8.992  14.876  20.366
66311W        W67175   7.859  18.209  18.381
66312W        W67176   8.887  16.224  19.088
66313W        W67177   9.132  17.064  21.351
66314W        W67178   9.136  14.958  19.314
66315W        W67179  10.280  14.811  19.614
66316W        W67180  10.058  18.244  19.875
66317W        W67181   9.403  17.937  20.190
66318W        W67182   8.844  16.893  20.400
66319W        W67183  10.764  17.368  20.477
66320W        W67184   8.291  15.099  19.266
66321W        W67185   8.730  17.417  20.327
66322W        W67186   8.254  15.339  18.188
66323W        W67187   9.172  15.900  20.561
66324W        W67188   9.874  14.704  20.337
66325W        W67189   7.367  16.650  20.744
66326W        W67190   8.965  16.328  18.450
66327W        W67191   8.220  14.861  18.378
66328W        W67192   9.255  15.913  19.283
66329W        W67193   9.779  14.856  20.836
66330W        W67194   8.670  16.845  21.211
66331W        W67195   9.511  16.658  21.515
66332W        W67196   9.996  16.733  21.363
66333W        W67197   9.219  14.914  21.729
66334W        W67198   8.385  15.407  20.011
66335W        W67199   7.946  15.295  19.680
66336W        W67200   7.660  18.011  19.466
66337W        W67201   9.211  17.540  21.190
66338W        W67202   8.579  17.114  18.834
66339W        W67203   9.882  16.404  19.868
66340W        W67204  10.178  16.187  20.251
66341W        W67205   9.359  16.739  20.473
66342W        W67206   9.790  16.935  18.250
66343W        W67207   9.415  15.091  19.743
66344W        W67208  11.058  15.456  18.921
66345W        W67209   7.481  17.888  21.202
66346W        W67210   7.664  17.075  20.543
66347W        W67211   7.343  18.239  19.126
66348W        W67212   9.114  15.356  20.544
66349W        W67213   8.451  17.541  18.550
66350W        W67214  10.799  17.523  18.902
66351W        W67215   9.617  16.238  18.600
66352W        W67216   8.997  15.457  19.243
66353W        W67217   9.280  15.321  18.318
66354W        W67218   9.630  17.164  21.382
66355W        W67219  10.220  14.954  19.052
66356W        W67220   7.405  14.622  18.529
66357W        W67221   8.638  17.180  20.796
66358W        W67222   8.700  17.102  19.928
66359W        W67223   8.265  17.084  18.398
66360W        W67224   7.453  17.680  19.118
66361W        W67225   8.024  16.141  21.184
66362W        W67226   8.580  14.874  21.310
66363W        W67227   9.309  15.016  20.867
66364W        W67228   8.650  14.736  19.403
66365W        W67229   9.910  14.706  18.709
66366W        W67230   7.672  14.777  20.375
66367W        W67231   7.471  15.602  19.806
66368W        W67232  10.356  14.862  20.163
66369W        W67233   7.841  15.280  19.091
66370W        W67234  10.091  15.166  20.532
66371W        W67235  10.763  16.106  18.237
66372W        W67236   8.023  15.066  20.140
66373W        W67237   9.279  15.614  20.978
66374W        W67238   7.320  15.132  18.545
66375W        W67239   8.143  16.683  21.284
66376W        W67240   9.624  16.062  20.202
66377W        W67241   9.269  18.279  18.593
66378W        W67242   7.230  16.601  18.134
66379W        W67243   8.283  17.181  21.324
66380W        W67244   7.564  16.183  20.941
66381W        W67245   8.821  16.525  20.793
66382W        W67246  10.267  14.679  20.822
66383W        W67247  10.887  16.454  20.986
66384W        W67248  11.006  16.216  18.682
66385W        W67249   9.721  16.728  18.747
66386W        W67250  10.200  18.240  18.357
66387W        W67251   9.323  16.281  21.810
66388W        W67252   7.828  17.005  21.539
66389W        W67253  10.921  15.308  21.639
66390W        W67254  10.533  15.892  19.990
66391W        W67255   8.936  17.925  21.445
66392W        W67256   8.718  14.781  18.540
66393W        W67257  10.655  17.055  18.650
66394W        W67258   8.187  15.502  21.308
66395W        W67259   8.699  17.485  21.211
66396W        W67260  10.564  15.121  20.770
66397W        W67261  10.472  17.868  18.712
66398W        W67262  10.142  16.692  20.344
66399W        W67263   8.324  15.152  20.958
66400W        W67264   8.865  16.201  21.523
66401W        W67265   8.198  17.338  19.143
66402W        W67266  10.031  16.630  19.409
66403W        W67267   7.814  15.272  20.962
66404W        W67268   9.074  17.528  19.511
66405W        W67269  10.906  15.931  19.620
66406W        W67270   9.061  14.753  21.232
66407W        W67271   9.988  17.499  20.613
66408W        W67272  10.381  17.595  20.243
66409W        W67273   8.948  17.395  18.580
66410W        W67274   7.348  17.223  21.496
66411W        W67275   8.125  15.355  20.542
66412W        W67276   8.214  14.852  19.701
66413W        W67277   9.958  15.692  20.356
66414W        W67278   8.536  16.654  18.327
66415W        W67279  10.614  16.457  20.133
66416W        W67280   7.756  17.468  21.318
66417W        W67281  10.479  18.226  19.211
66418W        W67282   8.689  15.203  19.614
66419W        W67283   8.327  16.743  19.979
66420W        W67284   8.514  18.140  20.550
66421W        W67285  10.379  18.159  21.216
66422W        W67286   9.770  16.413  20.548
66423W        W67287   7.526  15.698  18.203
66424W        W67288  10.695  17.752  19.390
66425W        W67289  10.658  15.187  18.768
66426W        W67290   8.431  14.566  20.945
66427W        W67291  10.458  17.261  19.808
66428W        W67292  10.430  15.834  19.470
66429W        W67293   8.727  15.713  19.764
66430W        W67294   8.962  16.064  21.015
66431W        W67295   9.973  17.166  21.013
66432W        W67296   8.764  15.608  20.813
66433W        W67297   8.490  18.091  19.794
66434W        W67298   7.899  17.948  21.497
66435W        W67299   7.982  17.690  18.361
66436W        W67300  10.537  16.726  19.433
66437W        W67301   8.251  15.746  20.864
66438W        W67302  10.880  15.677  18.505
66439W        W67303   8.883  16.754  19.105
66440W        W67304   9.814  16.297  21.076
66441W        W67305   9.656  15.922  20.728
66442W        W67306   8.170  16.235  20.688
66443W        W67307  10.448  18.127  20.230
66444W        W67308  10.004  14.967  21.532
66445W        W67309   7.598  14.800  21.270
66446W        W67310   8.296  15.803  20.354
66447W        W67311   8.560  15.728  18.072
66448W        W67312   7.317  17.423  21.003
66449W        W67313   9.025  16.351  20.366
66450W        W67314   8.767  15.266  18.290
66451W        W67315   7.696  16.042  19.991
66452W        W67316   7.500  18.095  20.733
66453W        W67317  10.484  16.192  18.684
66454W        W67318  10.488  15.130  21.451
66455W        W67319   9.962  17.098  19.674
66456W        W67320   7.511  16.098  21.445
66457W        W67321  10.662  14.687  18.847
66458W        W67322  10.309  16.747  18.960
66459W        W67323   9.196  15.956  18.748
66460W        W67324  10.214  15.094  18.541
66461W        W67325  10.029  15.589  20.893
66462W        W67326   8.128  16.258  20.164
66463W        W67327   8.130  17.031  19.586
66464W        W67328   9.975  15.627  19.382
66465W        W67329   8.983  15.274  20.040
66466W        W67330  10.776  16.896  20.723
66467W        W67331  10.781  15.190  20.308
66468W        W67332   7.402  17.947  19.896
66469W        W67333   7.210  17.127  19.243
66470W        W67334   7.790  14.906  21.810
66471W        W67335   8.596  17.387  21.709
66472W        W67336  10.879  16.424  19.687
66473W        W67337  10.151  16.563  18.497
66474W        W67338   9.551  18.214  20.592
66475W        W67339  10.368  16.860  21.709
66476W        W67340   8.889  14.552  18.982
66477W        W67341   9.725  15.497  19.817
66478W        W67342   7.297  17.123  20.163
66479W        W67343   8.742  15.070  18.990
66480W        W67344   8.507  16.557  21.630
66481W        W67345   9.510  15.436  19.328
66482W        W67346   9.789  17.010  20.559
66483W        W67347   7.758  17.620  20.825
66484W        W67348   8.078  17.492  21.720
66485W        W67349   8.293  15.218  18.735
66486W        W67350   9.934  15.431  18.889
66487W        W67351   9.718  17.637  21.103
66488W        W67352   8.621  16.127  20.089
66489W        W67353   8.041  18.007  20.650
66490W        W67354  10.683  18.033  18.280
66491W        W67355   7.576  16.596  21.299
66492W        W67356   9.713  16.858  20.077
66493W        W67357   7.856  16.577  19.847
66494W        W67358   8.427  17.634  20.682
66495W        W67359   8.978  14.807  19.810
66496W        W67360   6.990  16.664  18.889
66497W        W67361   9.046  15.768  18.266
66498W        W67362   7.140  16.612  19.830
66499W        W67363   8.803  15.028  20.855
66500W        W67364  10.652  14.824  18.352
66501W        W67365  10.728  16.606  21.455
66502W        W67366   9.439  17.906  21.469
66503W        W67367  10.979  16.974  21.190
66504W        W67368  10.305  17.759  21.572
66505W        W67369   8.166  18.263  20.186
66506W        W67370  11.031  16.814  19.386
66507W        W67371   9.562  16.012  19.685
66508W        W67372   9.229  14.473  19.507
66509W        W67373   8.331  17.716  19.476
66510W        W67374   8.619  15.270  20.445
66511W        W67375   8.556  14.920  20.066
66512W        W67376   7.428  18.011  18.651
66513W        W67377   9.059  16.991  19.547
66514W        W67378   8.189  17.638  21.122
66515W        W67379   7.518  15.136  20.011
66516W        W67380   9.206  16.974  20.037
66517W        W67381   7.434  14.980  19.018
66518W        W67382  10.157  16.078  20.751
66519W        W67383   9.990  15.506  18.326
66520W        W67384  10.576  16.957  20.254
66521W        W67385   9.151  17.518  20.030
66522W        W67386   8.441  18.075  19.020
66523W        W67387   9.592  14.698  18.290
66524W        W67388   7.702  17.914  20.295
66525W        W67389   9.486  15.767  21.704
66526W        W67390   7.736  15.285  21.464
66527W        W67391   7.131  15.929  18.870
66528W        W67392   8.656  15.930  18.554
66529W        W67393   9.790  16.184  21.575
66530W        W67394   8.510  16.515  20.391
66531W        W67395   9.720  14.679  19.614
66532W        W67396   9.030  18.053  19.839
66533W        W67397  10.494  17.818  20.690
66534W        W67398   9.921  17.848  20.232
66535W        W67399   9.552  16.756  19.598
66536W        W67400   9.180  14.990  18.712
66537W        W67401  10.998  14.628  19.583
66538W        W67402   8.376  16.190  18.165
66539W        W67403  10.818  15.499  19.374
66540W        W67404   9.380  16.631  18.360
66541W        W67405  10.442  16.927  21.149
66542W        W67406  10.679  17.511  18.343
66543W        W67407   8.708  15.357  21.257
66544W        W67408   8.651  16.068  20.615
66545W        W67409  10.660  17.364  20.972
66546W        W67410   9.673  15.287  21.139
66547W        W67411   7.219  15.840  21.105
66548W        W67412   9.335  16.338  20.808
66549W        W67413   7.517  16.993  19.716
66550W        W67414   7.692  16.266  20.462
66551W        W67415  10.073  16.692  20.852
66552W        W67416   9.914  18.044  21.341
66553W        W67417   9.705  15.790  21.235
66554W        W67418  10.296  17.773  19.776
66555W        W67419   8.965  17.631  20.747
66556W        W67420   8.373  17.796  20.205
66557W        W67421  10.320  17.114  20.655
66558W        W67422   9.360  17.060  21.825
66559W        W67423   7.894  17.052  20.072
66560W        W67424  10.284  16.765  19.871
66561W        W67425  10.007  18.331  20.382
66562W        W67426   7.998  17.482  20.388
66563W        W67427   9.047  15.729  21.427
66564W        W67428   9.126  17.799  19.040
66565W        W67429   8.639  17.599  19.036
66566W        W67430   8.025  15.811  18.091
66567W        W67431   7.416  18.228  25.386
66568W        W67432   7.821  17.098  24.981
66569W        W67433  10.286  16.740  22.858
66570W        W67434  10.694  18.012  24.659
66571W        W67435   8.302  17.852  22.023
66572W        W67436   8.429  16.111  23.263
66573W        W67437   8.138  15.846  23.629
66574W        W67438   8.886  16.363  22.905
66575W        W67439   8.658  17.816  24.834
66576W        W67440   7.331  15.310  24.996
66577W        W67441   7.957  14.584  24.849
66578W        W67442   9.841  15.111  23.680
66579W        W67443   9.350  15.669  22.254
66580W        W67444  10.037  15.352  25.246
66581W        W67445   7.498  15.005  24.594
66582W        W67446   7.563  17.758  25.495
66583W        W67447   8.851  17.121  22.134
66584W        W67448   7.196  15.806  24.065
66585W        W67449   8.425  15.816  25.217
66586W        W67450  10.747  15.529  23.732
66587W        W67451  10.535  16.622  24.597
66588W        W67452   8.936  16.070  23.741
66589W        W67453   9.429  17.383  23.981
66590W        W67454   7.908  16.792  24.250
66591W        W67455   7.249  16.362  23.984
66592W        W67456   8.421  16.268  24.982
66593W        W67457  10.623  16.066  25.248
66594W        W67458   8.109  17.425  23.701
66595W        W67459   9.348  17.267  24.857
66596W        W67460   8.608  15.786  24.064
66597W        W67461   8.688  16.677  23.837
66598W        W67462   9.517  17.418  25.325
66599W        W67463   9.015  16.588  25.531
66600W        W67464   8.908  16.449  25.017
66601W        W67465   7.212  15.668  25.343
66602W        W67466  10.039  17.298  25.189
66603W        W67467   7.623  14.867  23.115
66604W        W67468   8.183  17.268  24.283
66605W        W67469  10.722  17.028  23.754
66606W        W67470  10.215  15.351  23.966
66607W        W67471  10.243  15.332  21.882
66608W        W67472  10.857  16.163  24.491
66609W        W67473   8.778  17.712  24.218
66610W        W67474  10.811  17.548  22.231
66611W        W67475   7.588  18.183  22.538
66612W        W67476   8.026  18.026  22.975
66613W        W67477   7.998  14.789  24.379
66614W        W67478  10.515  15.878  24.735
66615W        W67479   9.772  16.229  23.306
66616W        W67480   9.689  16.033  22.079
66617W        W67481   9.006  17.259  24.229
66618W        W67482   9.075  15.462  23.465
66619W        W67483   9.574  17.545  24.454
66620W        W67484  10.065  16.239  22.879
66621W        W67485   9.479  14.982  22.852
66622W        W67486   7.717  17.704  22.696
66623W        W67487   7.268  15.079  23.462
66624W        W67488   9.875  15.923  23.728
66625W        W67489   7.586  17.613  23.726
66626W        W67490   8.805  17.659  22.088
66627W        W67491  10.099  15.840  21.794
66628W        W67492   7.443  17.604  24.230
66629W        W67493   8.210  17.395  24.805
66630W        W67494   8.295  16.594  23.467
66631W        W67495   8.412  15.150  24.256
66632W        W67496  10.881  14.918  23.716
66633W        W67497   7.912  16.380  21.635
66634W        W67498   7.639  15.404  21.957
66635W        W67499   7.608  17.601  23.201
66636W        W67500   8.613  17.041  23.489
66637W        W67501  10.248  17.819  24.864
66638W        W67502   9.161  15.302  22.594
66639W        W67503  10.548  18.152  23.587
66640W        W67504  10.134  15.868  25.130
66641W        W67505  10.963  17.464  23.390
66642W        W67506   9.459  16.743  24.774
66643W        W67507   6.940  16.293  23.220
66644W        W67508   8.212  16.896  24.643
66645W        W67509   9.533  16.120  22.852
66646W        W67510   9.300  16.396  23.221
66647W        W67511   7.664  15.823  24.353
66648W        W67512   7.682  15.780  25.140
66649W        W67513   7.647  14.750  23.625
66650W        W67514   9.330  15.197  23.844
66651W        W67515   9.125  15.188  25.223
66652W        W67516   9.453  15.161  22.158
66653W        W67517  10.763  17.634  25.073
66654W        W67518   9.707  14.740  25.127
66655W        W67519  10.539  17.146  25.274
66656W        W67520  10.148  15.513  24.768
66657W        W67521   9.852  15.240  23.133
66658W        W67522  10.166  16.282  25.428
66659W        W67523   7.842  17.984  23.480
66660W        W67524   8.836  15.553  22.272
66661W        W67525   8.246  14.900  25.153
66662W        W67526  10.146  15.476  22.737
66663W        W67527  10.419  15.889  22.828
66664W        W67528   8.457  18.142  25.199
66665W        W67529   8.079  14.797  22.283
66666W        W67530  10.460  15.151  23.556
66667W        W67531  10.777  17.761  21.762
66668W        W67532   7.546  16.764  23.879
66669W        W67533   9.617  15.264  21.673
66670W        W67534  10.808  17.526  23.874
66671W        W67535  10.803  14.844  24.406
66672W        W67536   9.245  16.003  25.083
66673W        W67537   8.945  17.032  22.829
66674W        W67538   9.697  16.533  25.571
66675W        W67539   9.637  14.899  24.110
66676W        W67540   7.828  15.579  23.920
66677W        W67541   7.709  16.677  24.723
66678W        W67542   9.578  17.730  23.648
66679W        W67543  10.655  15.735  24.257
66680W        W67544   9.375  18.002  24.806
66681W        W67545  10.556  16.511  22.053
66682W        W67546   8.794  16.433  23.404
66683W        W67547  10.985  14.747  24.864
66684W        W67548   8.977  16.928  24.644
66685W        W67549   9.206  15.680  23.952
66686W        W67550   9.873  15.879  22.538
66687W        W67551  10.282  15.687  22.280
66688W        W67552  10.621  17.759  22.663
66689W        W67553  10.228  16.907  23.696
66690W        W67554   9.744  16.388  22.463
66691W        W67555   9.189  16.532  23.716
66692W        W67556  10.198  16.328  23.806
66693W        W67557   7.811  15.254  24.296
66694W        W67558  10.322  16.313  24.922
66695W        W67559  10.781  18.031  24.071
66696W        W67560   8.564  17.563  23.477
66697W        W67561   9.830  17.991  24.552
66698W        W67562   9.855  15.268  24.429
66699W        W67563   8.929  18.123  24.497
66700W        W67564  10.368  15.150  23.052
66701W        W67565  10.361  16.206  24.323
66702W        W67566   7.313  15.430  24.392
66703W        W67567  10.107  15.525  23.487
66704W        W67568  10.531  15.557  25.127
66705W        W67569   9.462  17.227  23.495
66706W        W67570   8.543  17.809  22.995
66707W        W67571   7.597  14.985  22.294
66708W        W67572   9.014  14.933  24.199
66709W        W67573   7.796  18.030  21.992
66710W        W67574   8.789  16.095  22.474
66711W        W67575   9.101  16.924  25.143
66712W        W67576   8.991  15.053  23.068
66713W        W67577  10.129  14.826  23.361
66714W        W67578  10.024  18.127  23.737
66715W        W67579   9.273  17.841  24.134
66716W        W67580   8.593  16.931  24.272
66717W        W67581  10.610  17.603  24.357
66718W        W67582   8.295  14.853  22.842
66719W        W67583   8.578  17.316  23.935
66720W        W67584   8.148  15.309  21.776
66721W        W67585   9.021  15.878  24.407
66722W        W67586  10.072  14.798  24.362
66723W        W67587   7.356  16.709  24.366
66724W        W67588   8.845  16.367  22.032
66725W        W67589   8.331  14.828  21.813
66726W        W67590   9.005  15.957  23.229
66727W        W67591  10.049  15.002  24.836
66728W        W67592   8.587  16.842  24.986
66729W        W67593   9.379  16.479  25.190
66730W        W67594   9.876  16.515  25.066
66731W        W67595   9.201  14.847  25.603
66732W        W67596   8.308  15.406  23.828
66733W        W67597   7.764  15.254  23.492
66734W        W67598   7.365  17.980  22.951
66735W        W67599   9.091  17.668  25.120
66736W        W67600   8.475  17.020  22.579
66737W        W67601   9.678  16.400  23.789
66738W        W67602   9.865  16.166  24.194
66739W        W67603   9.079  16.732  24.178
66740W        W67604   9.883  17.013  21.810
66741W        W67605   9.418  15.059  23.362
66742W        W67606  10.690  15.440  22.753
66743W        W67607   7.571  17.959  24.964
66744W        W67608   7.669  17.167  24.507
66745W        W67609   7.012  17.898  22.585
66746W        W67610   9.351  15.339  24.341
66747W        W67611   8.382  17.369  22.190
66748W        W67612  10.771  18.067  22.278
66749W        W67613   9.274  16.178  22.344
66750W        W67614   8.820  15.526  23.006
66751W        W67615   9.132  15.413  21.842
66752W        W67616   9.639  16.944  25.201
66753W        W67617   9.984  14.991  22.691
66754W        W67618   7.231  14.637  22.273
66755W        W67619   8.643  17.343  24.565
66756W        W67620   8.216  16.936  23.856
66757W        W67621   8.272  16.998  21.812
66758W        W67622   7.216  17.503  22.841
66759W        W67623   7.990  16.177  25.257
66760W        W67624   8.741  14.800  25.332
66761W        W67625   9.154  15.057  24.717
66762W        W67626   8.607  14.739  23.271
66763W        W67627   9.594  14.725  22.387
66764W        W67628   7.533  14.776  24.139
66765W        W67629   7.407  15.635  23.568
66766W        W67630  10.471  14.924  24.028
66767W        W67631   7.401  15.351  23.056
66768W        W67632  10.395  15.192  24.457
66769W        W67633  10.574  15.997  21.947
66770W        W67634   7.994  15.004  23.903
66771W        W67635   9.175  15.562  24.818
66772W        W67636   7.108  15.159  22.225
66773W        W67637   8.088  16.657  25.081
66774W        W67638   9.315  16.168  24.086
66775W        W67639   9.209  17.967  21.921
66776W        W67640   7.222  16.452  21.675
66777W        W67641   8.260  17.133  25.246
66778W        W67642   7.659  16.161  24.769
66779W        W67643   8.622  16.528  24.588
66780W        W67644  10.437  14.670  24.708
66781W        W67645  10.888  16.429  24.936
66782W        W67646  10.476  16.357  22.568
66783W        W67647   9.307  16.574  22.700
66784W        W67648  10.303  18.255  21.744
66785W        W67649   9.298  16.142  25.583
66786W        W67650   7.814  17.146  25.511
66787W        W67651  10.977  15.110  25.252
66788W        W67652  10.366  15.848  23.844
66789W        W67653   8.887  18.020  25.464
66790W        W67654   8.590  14.684  22.285
66791W        W67655  10.403  17.345  21.920
66792W        W67656   8.086  15.440  25.112
66793W        W67657   8.730  17.322  25.066
66794W        W67658  10.789  15.409  24.695
66795W        W67659  10.285  18.317  22.271
66796W        W67660   9.986  16.697  24.089
66797W        W67661   8.145  15.156  24.695
66798W        W67662   8.809  16.126  25.395
66799W        W67663   7.890  17.255  22.910
66800W        W67664   9.761  16.631  22.943
66801W        W67665   7.739  15.483  24.733
66802W        W67666   8.986  17.350  23.284
66803W        W67667  10.724  16.020  23.510
66804W        W67668   9.190  14.687  25.098
66805W        W67669   9.867  17.203  24.149
66806W        W67670  10.350  17.765  23.890
66807W        W67671   9.111  17.499  21.688
66808W        W67672   7.417  17.316  25.234
66809W        W67673   8.177  15.601  24.364
66810W        W67674   8.132  14.895  23.416
66811W        W67675   9.716  15.518  24.002
66812W        W67676   8.854  16.662  22.460
66813W        W67677  10.517  16.679  24.088
66814W        W67678   7.865  17.574  25.137
66815W        W67679  10.417  18.179  22.878
66816W        W67680   8.572  15.231  23.406
66817W        W67681   7.954  16.458  23.829
66818W        W67682   8.484  18.201  24.235
66819W        W67683  10.606  18.106  25.150
66820W        W67684   9.549  16.554  24.310
66821W        W67685   7.262  15.979  21.902
66822W        W67686  10.709  17.858  23.177
66823W        W67687  10.403  15.157  22.398
66824W        W67688   8.562  14.567  24.903
66825W        W67689  10.458  17.386  23.502
66826W        W67690  10.234  16.014  23.349
66827W        W67691   8.634  15.719  23.544
66828W        W67692   8.799  15.946  24.873
66829W        W67693   9.830  17.145  24.725
66830W        W67694   8.490  15.546  24.775
66831W        W67695   8.354  18.035  23.437
66832W        W67696   7.950  18.093  25.313
66833W        W67697   7.904  17.582  22.224
66834W        W67698  10.608  17.347  22.995
66835W        W67699   8.087  15.879  24.811
66836W        W67700  10.710  15.496  22.067
66837W        W67701   8.570  16.763  23.056
66838W        W67702   9.568  16.234  24.751
66839W        W67703   9.556  15.813  24.414
66840W        W67704   8.099  16.375  24.602
66841W        W67705  10.294  18.031  24.340
66842W        W67706  10.188  14.852  25.312
66843W        W67707   7.765  15.034  25.023
66844W        W67708   8.097  16.038  24.117
66845W        W67709   8.615  15.605  21.706
66846W        W67710   7.351  17.526  24.749
66847W        W67711   8.797  16.289  24.169
66848W        W67712   8.743  15.111  21.721
66849W        W67713   7.892  16.210  23.382
66850W        W67714   7.507  18.222  24.512
66851W        W67715  10.156  16.194  22.186
66852W        W67716  10.536  15.069  24.998
66853W        W67717  10.083  17.075  23.234
66854W        W67718   7.447  16.229  25.230
66855W        W67719  10.629  14.674  22.344
66856W        W67720  10.382  17.346  22.457
66857W        W67721   9.145  15.813  22.713
66858W        W67722   9.950  15.033  22.165
66859W        W67723  10.121  15.718  24.287
66860W        W67724   7.635  16.041  23.843
66861W        W67725   8.132  17.066  23.328
66862W        W67726   9.855  15.762  23.072
66863W        W67727   8.810  15.330  23.906
66864W        W67728  10.715  17.088  24.381
66865W        W67729  10.879  15.283  24.162
66866W        W67730   7.322  17.978  23.483
66867W        W67731   7.413  17.096  23.077
66868W        W67732   7.824  14.850  25.492
66869W        W67733   8.710  17.509  25.577
66870W        W67734  10.613  16.522  23.596
66871W        W67735  10.133  16.699  22.316
66872W        W67736   9.406  18.270  24.365
66873W        W67737  10.103  16.820  25.435
66874W        W67738   8.769  14.631  22.796
66875W        W67739   9.589  15.536  23.502
66876W        W67740   7.272  17.206  23.865
66877W        W67741   8.686  15.126  22.633
66878W        W67742   8.512  16.545  25.398
66879W        W67743   9.377  15.478  23.035
66880W        W67744   9.437  17.055  24.385
66881W        W67745   7.817  17.656  24.588
66882W        W67746   8.362  17.645  25.240
66883W        W67747   8.464  15.187  22.164
66884W        W67748   9.664  15.400  22.589
66885W        W67749   9.749  17.639  24.925
66886W        W67750   8.453  16.213  23.775
66887W        W67751   7.994  18.117  24.401
66888W        W67752  10.810  18.250  21.570
66889W        W67753   7.544  16.743  25.228
66890W        W67754   9.524  16.884  23.905
66891W        W67755   7.744  16.696  23.391
66892W        W67756   8.327  17.738  24.430
66893W        W67757   8.958  14.959  23.592
66894W        W67758   6.817  16.784  23.094
66895W        W67759   9.016  15.898  21.930
66896W        W67760   7.379  16.331  23.496
66897W        W67761   8.646  15.048  24.771
66898W        W67762  10.621  14.997  21.936
66899W        W67763  10.534  16.614  25.260
66900W        W67764   9.383  18.022  25.326
66901W        W67765  10.837  16.940  24.885
66902W        W67766  10.339  17.701  25.360
66903W        W67767   8.072  18.218  23.896
66904W        W67768  10.585  16.909  23.270
66905W        W67769   9.397  16.009  23.571
66906W        W67770   9.148  14.599  23.280
66907W        W67771   8.121  17.593  23.218
66908W        W67772   8.841  15.395  24.422
66909W        W67773   8.498  14.857  23.828
66910W        W67774   7.409  17.788  22.254
66911W        W67775   9.082  16.847  23.299
66912W        W67776   8.140  17.920  24.867
66913W        W67777   7.324  16.587  23.044
66914W        W67778   7.463  15.226  23.914
66915W        W67779   9.046  17.059  23.767
66916W        W67780   7.242  14.931  22.728
66917W        W67781  10.009  16.019  24.664
66918W        W67782   9.816  15.531  22.096
66919W        W67783  10.367  17.275  24.033
66920W        W67784   9.004  17.584  23.764
66921W        W67785   8.225  17.575  22.661
66922W        W67786   9.668  14.717  21.853
66923W        W67787   7.576  18.056  23.980
66924W        W67788   9.453  15.625  25.384
66925W        W67789   7.654  15.352  25.414
66926W        W67790   7.171  15.836  23.125
66927W        W67791   8.518  15.946  22.070
66928W        W67792   9.707  16.083  25.282
66929W        W67793   8.326  16.508  24.171
66930W        W67794   9.673  14.628  23.498
66931W        W67795   8.854  18.096  23.900
66932W        W67796  10.103  17.532  24.462
66933W        W67797   9.976  17.402  23.689
66934W        W67798   9.655  16.750  23.424
66935W        W67799   8.960  15.040  22.185
66936W        W67800  10.660  14.751  23.270
66937W        W67801   8.329  16.071  21.607
66938W        W67802  10.554  15.595  23.249
66939W        W67803   9.297  16.659  22.158
66940W        W67804  10.228  16.871  24.935
66941W        W67805  10.362  17.827  22.094
66942W        W67806   8.573  15.293  25.239
66943W        W67807   8.472  16.032  24.491
66944W        W67808  10.455  17.322  24.787
66945W        W67809   9.588  15.224  24.962
66946W        W67810   7.308  15.778  24.783
66947W        W67811   9.121  16.378  24.559
66948W        W67812   7.661  17.173  23.512
66949W        W67813   7.698  16.335  24.270
66950W        W67814  10.001  16.536  24.572
66951W        W67815   9.844  18.141  25.038
66952W        W67816   9.673  15.723  24.914
66953W        W67817  10.203  17.823  23.365
66954W        W67818   9.088  17.623  24.602
66955W        W67819   8.400  17.812  23.899
66956W        W67820  10.224  16.994  24.438
66957W        W67821   9.204  17.102  25.621
66958W        W67822   7.757  17.221  24.012
66959W        W67823  10.155  16.558  23.327
66960W        W67824   9.847  17.779  24.079
66961W        W67825   7.938  17.708  24.091
66962W        W67826   8.932  15.648  25.307
66963W        W67827   8.737  17.460  22.580
66964W        W67828   8.713  17.006  25.480
66965W        W67829   8.507  17.287  23.030
66966W        W67830   7.881  15.775  21.637
66967W        W67831   7.427  18.242  28.862
66968W        W67832   7.802  17.110  28.480
66969W        W67833  10.300  16.447  26.367
66970W        W67834  10.831  17.873  28.254
66971W        W67835   8.424  17.943  25.681
66972W        W67836   8.600  16.101  26.646
66973W        W67837   7.940  15.783  26.779
66974W        W67838   8.853  16.507  26.392
66975W        W67839   8.767  17.819  28.236
66976W        W67840   7.595  15.437  28.400
66977W        W67841   8.106  14.734  28.226
66978W        W67842   9.881  15.038  27.242
66979W        W67843   9.440  15.775  25.930
66980W        W67844  10.092  15.493  28.812
66981W        W67845   7.484  15.039  28.060
66982W        W67846   7.553  17.757   0.007
66983W        W67847   8.786  17.186  25.981
66984W        W67848   7.477  15.822  27.520
66985W        W67849   8.416  15.833  28.773
66986W        W67850  10.585  15.490  27.375
66987W        W67851  10.575  16.678  28.133
66988W        W67852   8.872  15.943  27.077
66989W        W67853   9.551  17.370  27.664
66990W        W67854   7.958  16.709  27.713
66991W        W67855   7.226  16.286  27.449
66992W        W67856   8.408  16.285  28.466
66993W        W67857  10.707  16.027  28.719
66994W        W67858   8.197  17.501  27.230
66995W        W67859   9.384  17.210  28.236
66996W        W67860   8.619  15.714  27.462
66997W        W67861   8.779  16.633  27.292
66998W        W67862   9.719  17.717   0.128
66999W        W67863   9.052  16.626   0.024
67000W        W67864   8.887  16.515  28.542
67001W        W67865   7.341  15.688  28.861
67002W        W67866  10.050  17.433  28.840
67003W        W67867   7.760  14.830  26.677
67004W        W67868   8.249  17.148  27.796
67005W        W67869  10.901  17.182  27.428
67006W        W67870  10.063  15.331  27.647
67007W        W67871  10.472  15.260  25.540
67008W        W67872  11.138  16.027  27.974
67009W        W67873   8.851  17.917  27.727
67010W        W67874  10.620  17.239  26.056
67011W        W67875   7.782  18.273  26.263
67012W        W67876   8.138  18.144  26.643
67013W        W67877   8.259  14.941  27.787
67014W        W67878  10.685  15.890  28.216
67015W        W67879   9.653  16.273  26.799
67016W        W67880   9.825  16.078  25.782
67017W        W67881   9.130  17.116  27.766
67018W        W67882   8.911  15.422  27.105
67019W        W67883   9.651  17.653  28.076
67020W        W67884  10.138  16.419  26.904
67021W        W67885   9.436  15.031  26.488
67022W        W67886   8.007  17.796  26.287
67023W        W67887   7.452  15.226  26.730
67024W        W67888   9.806  16.020  27.280
67025W        W67889   7.659  17.489  27.221
67026W        W67890   8.840  17.820  25.975
67027W        W67891  10.343  15.785  25.583
67028W        W67892   7.444  17.560  27.830
67029W        W67893   8.249  17.254  28.305
67030W        W67894   8.525  16.608  26.806
67031W        W67895   8.763  14.916  27.891
67032W        W67896  10.818  14.730  27.362
67033W        W67897   8.068  16.699  25.599
67034W        W67898   7.766  15.451  25.900
67035W        W67899   7.838  17.525  26.736
67036W        W67900   8.661  17.112  26.844
67037W        W67901  10.367  17.775  28.553
67038W        W67902   9.218  15.474  26.287
67039W        W67903  10.552  18.160  27.157
67040W        W67904  10.259  15.884  28.504
67041W        W67905  11.005  17.404  26.947
67042W        W67906   9.522  16.721  28.336
67043W        W67907   7.320  16.294  26.554
67044W        W67908   8.320  16.745  28.117
67045W        W67909   9.452  15.911  26.468
67046W        W67910   9.365  16.597  26.473
67047W        W67911   7.826  15.812  27.930
67048W        W67912   7.841  15.808  28.692
67049W        W67913   7.702  14.635  27.133
67050W        W67914   9.561  15.152  27.624
67051W        W67915   9.154  15.155  28.772
67052W        W67916   9.613  15.291  26.017
67053W        W67917  10.821  17.720  28.773
67054W        W67918   9.615  14.723  28.653
67055W        W67919  10.546  17.280  28.818
67056W        W67920  10.222  15.363  28.316
67057W        W67921   9.775  15.251  26.786
67058W        W67922  10.287  16.425   0.016
67059W        W67923   7.936  17.906  27.072
67060W        W67924   8.744  15.481  26.136
67061W        W67925   8.260  14.897  28.693
67062W        W67926  10.176  15.505  26.582
67063W        W67927  10.574  15.755  26.372
67064W        W67928   8.404  17.998  28.853
67065W        W67929   8.281  14.620  26.168
67066W        W67930  10.709  15.127  27.018
67067W        W67931  10.739  17.506  25.615
67068W        W67932   7.600  16.643  27.334
67069W        W67933   9.617  15.133  25.490
67070W        W67934  10.701  17.632  27.277
67071W        W67935  10.799  14.734  27.925
67072W        W67936   9.341  15.989  28.590
67073W        W67937   9.025  17.028  26.440
67074W        W67938   9.795  16.440   0.180
67075W        W67939   9.568  14.666  27.405
67076W        W67940   7.987  15.631  27.284
67077W        W67941   7.793  16.683  28.190
67078W        W67942   9.328  17.822  27.006
67079W        W67943  10.522  15.521  27.892
67080W        W67944   9.307  17.942  28.334
67081W        W67945  10.528  16.822  25.733
67082W        W67946   9.118  16.225  26.727
67083W        W67947  10.979  14.659  28.396
67084W        W67948   9.022  16.825  28.169
67085W        W67949   9.165  15.690  27.473
67086W        W67950  10.149  16.009  26.550
67087W        W67951  10.298  15.488  26.019
67088W        W67952  10.820  17.131  26.546
67089W        W67953   9.894  17.036  27.457
67090W        W67954   9.805  16.247  26.267
67091W        W67955   9.261  16.405  27.208
67092W        W67956  10.310  16.285  27.413
67093W        W67957   7.724  15.375  27.649
67094W        W67958  10.376  16.394  28.514
67095W        W67959  10.793  17.942  27.689
67096W        W67960   8.700  17.561  27.153
67097W        W67961   9.953  18.017  28.326
67098W        W67962   9.761  15.354  28.072
67099W        W67963   9.002  18.275  28.076
67100W        W67964  10.621  15.252  26.488
67101W        W67965  10.320  16.238  28.031
67102W        W67966   7.370  15.564  27.956
67103W        W67967  10.136  15.457  27.124
67104W        W67968  10.649  15.526  28.592
67105W        W67969   9.477  17.303  27.156
67106W        W67970   8.840  17.869  26.763
67107W        W67971   7.922  14.949  25.986
67108W        W67972   9.104  14.668  27.590
67109W        W67973   7.941  18.083  25.819
67110W        W67974   8.352  16.427  26.298
67111W        W67975   9.117  16.998  28.657
67112W        W67976   8.943  15.127  26.623
67113W        W67977  10.239  15.048  26.816
67114W        W67978  10.082  18.262  27.378
67115W        W67979   9.359  17.979  27.793
67116W        W67980   8.684  16.881  27.770
67117W        W67981  10.656  17.468  27.797
67118W        W67982   8.186  15.024  26.487
67119W        W67983   8.703  17.401  27.644
67120W        W67984   8.163  15.225  25.569
67121W        W67985   9.020  15.891  27.931
67122W        W67986   9.943  14.822  27.727
67123W        W67987   7.417  16.648  27.832
67124W        W67988   8.814  16.293  25.909
67125W        W67989   8.308  14.735  25.643
67126W        W67990   8.827  15.631  26.645
67127W        W67991   9.961  14.876  28.260
67128W        W67992   8.601  16.938  28.514
67129W        W67993   9.537  16.829  28.947
67130W        W67994   9.905  16.567  28.679
67131W        W67995   9.233  14.707   0.005
67132W        W67996   8.559  15.195  27.431
67133W        W67997   7.958  15.281  26.888
67134W        W67998   7.632  18.013  26.675
67135W        W67999   9.097  17.511  28.528
67136W        W68000   8.066  16.868  26.100
67137W        W68001   9.820  16.531  27.323
67138W        W68002   9.893  16.183  27.760
67139W        W68003   9.102  16.580  27.711
67140W        W68004   9.736  17.074  25.690
67141W        W68005   9.349  15.061  27.094
67142W        W68006  11.031  15.480  26.245
67143W        W68007   7.522  17.881  28.491
67144W        W68008   7.736  17.137  27.955
67145W        W68009   7.279  18.239  26.345
67146W        W68010   9.265  15.437  27.922
67147W        W68011   8.401  17.565  26.026
67148W        W68012  10.735  17.788  26.095
67149W        W68013   9.325  16.272  26.074
67150W        W68014   8.333  15.544  26.511
67151W        W68015   9.168  15.358  25.732
67152W        W68016   9.775  17.098  28.567
67153W        W68017  10.032  15.103  26.304
67154W        W68018   7.440  14.702  25.850
67155W        W68019   8.753  17.279  28.154
67156W        W68020   8.460  17.046  27.322
67157W        W68021   8.302  17.158  25.749
67158W        W68022   7.504  17.631  26.339
67159W        W68023   8.060  16.251  28.892
67160W        W68024   8.750  14.786  28.852
67161W        W68025   9.415  15.005  28.219
67162W        W68026   8.580  14.729  26.684
67163W        W68027   9.650  14.794  26.065
67164W        W68028   7.728  14.849  27.654
67165W        W68029   7.528  15.613  27.056
67166W        W68030  10.372  15.005  27.389
67167W        W68031   7.822  15.391  26.405
67168W        W68032  10.371  15.026  27.931
67169W        W68033  10.591  16.292  25.721
67170W        W68034   8.064  15.125  27.364
67171W        W68035   9.308  15.502  28.418
67172W        W68036   7.325  15.205  25.798
67173W        W68037   8.132  16.701  28.602
67174W        W68038   9.389  16.140  27.635
67175W        W68039   9.251  18.128  25.876
67176W        W68040   7.410  16.504  25.687
67177W        W68041   8.213  17.162  28.817
67178W        W68042   7.848  16.238  28.420
67179W        W68043   8.717  16.401  28.035
67180W        W68044  10.438  14.658  28.312
67181W        W68045  10.912  16.336  28.363
67182W        W68046  10.743  16.213  26.226
67183W        W68047   9.655  16.698  26.053
67184W        W68048  10.209  18.290  25.395
67185W        W68049   9.423  16.055   0.099
67186W        W68050   7.824  16.915   0.092
67187W        W68051  10.925  14.990  28.806
67188W        W68052  10.206  15.803  27.536
67189W        W68053   8.883  17.944  28.713
67190W        W68054   8.764  14.637  25.837
67191W        W68055  10.241  17.267  25.681
67192W        W68056   8.131  15.395  28.560
67193W        W68057   8.577  17.508  28.631
67194W        W68058  10.736  15.123  28.284
67195W        W68059  10.163  18.417  25.931
67196W        W68060  10.147  16.665  27.714
67197W        W68061   8.430  15.146  28.227
67198W        W68062   8.837  16.147  28.909
67199W        W68063   8.176  17.294  26.399
67200W        W68064   9.878  16.683  26.530
67201W        W68065   7.951  15.241  28.091
67202W        W68066   9.078  17.401  26.822
67203W        W68067  10.720  15.964  27.217
67204W        W68068   9.121  14.681  28.505
67205W        W68069  10.039  17.481  27.781
67206W        W68070  10.308  17.823  27.522
67207W        W68071   9.203  17.646  25.652
67208W        W68072   7.493  17.256  28.852
67209W        W68073   8.235  15.499  27.744
67210W        W68074   8.174  14.812  26.990
67211W        W68075   9.687  15.692  27.672
67212W        W68076   8.548  16.723  25.893
67213W        W68077  10.654  16.776  27.627
67214W        W68078   7.945  17.580  28.696
67215W        W68079  10.582  18.280  26.632
67216W        W68080   8.487  15.213  26.888
67217W        W68081   8.113  16.650  27.151
67218W        W68082   8.466  18.156  27.956
67219W        W68083  10.534  18.207  28.809
67220W        W68084   9.616  16.610  27.831
67221W        W68085   7.562  15.926  25.638
67222W        W68086  10.847  17.867  26.787
67223W        W68087  10.515  15.025  26.023
67224W        W68088   8.614  14.690  28.363
67225W        W68089  10.533  17.194  26.991
67226W        W68090  10.245  15.938  27.038
67227W        W68091   8.414  15.721  26.990
67228W        W68092   8.862  16.032  28.398
67229W        W68093  10.063  17.438  28.301
67230W        W68094   8.628  15.598  28.347
67231W        W68095   8.439  18.029  27.060
67232W        W68096   7.915  18.094  28.720
67233W        W68097   8.038  17.600  25.640
67234W        W68098  10.513  16.733  26.745
67235W        W68099   8.174  15.841  28.303
67236W        W68100  10.757  15.776  25.881
67237W        W68101   8.523  16.920  26.375
67238W        W68102   9.503  15.891  28.092
67239W        W68103   8.131  16.278  28.002
67240W        W68104  10.404  18.262  27.783
67241W        W68105  10.127  14.642  28.764
67242W        W68106   7.755  14.966  28.517
67243W        W68107   8.172  16.016  27.553
67244W        W68108   8.508  15.610  25.678
67245W        W68109   7.409  17.411  28.321
67246W        W68110   8.837  16.175  27.545
67247W        W68111   8.691  15.134  25.730
67248W        W68112   8.120  16.267  26.776
67249W        W68113   7.522  18.064  28.018
67250W        W68114  10.272  16.022  26.043
67251W        W68115  10.417  15.058  28.693
67252W        W68116  10.025  16.988  26.917
67253W        W68117   7.506  16.181  28.805
67254W        W68118  10.715  14.539  26.047
67255W        W68119  10.191  16.928  26.143
67256W        W68120   8.973  15.967  26.290
67257W        W68121  10.046  15.074  25.779
67258W        W68122  10.072  15.772  28.029
67259W        W68123   7.741  16.111  27.164
67260W        W68124   8.157  17.136  26.896
67261W        W68125   9.798  15.762  26.822
67262W        W68126   9.058  15.173  27.528
67263W        W68127  10.939  17.067  27.978
67264W        W68128  10.862  15.175  27.676
67265W        W68129   7.364  17.905  27.107
67266W        W68130   7.689  17.126  26.432
67267W        W68131   7.857  14.886   0.021
67268W        W68132   8.960  17.535   0.035
67269W        W68133  10.743  16.472  27.166
67270W        W68134  10.119  16.499  25.883
67271W        W68135   9.584  18.336  28.100
67272W        W68136  10.117  16.934  28.955
67273W        W68137   8.882  14.555  26.322
67274W        W68138   9.612  15.489  27.221
67275W        W68139   7.459  17.101  27.518
67276W        W68140   8.623  14.994  26.228
67277W        W68141   8.532  16.581  28.920
67278W        W68142   9.317  15.487  26.785
67279W        W68143   9.813  17.068  28.000
67280W        W68144   7.864  17.594  28.180
67281W        W68145   8.412  17.555   0.132
67282W        W68146   8.259  15.331  26.055
67283W        W68147   9.870  15.716  26.214
67284W        W68148   9.665  17.659  28.588
67285W        W68149   8.455  16.225  27.166
67286W        W68150   8.004  17.995  27.891
67287W        W68151  10.625  18.049  25.658
67288W        W68152   7.634  16.661  28.679
67289W        W68153   9.412  16.864  27.421
67290W        W68154   8.060  16.754  26.596
67291W        W68155   8.373  17.617  27.972
67292W        W68156   8.856  14.899  27.101
67293W        W68157   7.383  16.956  26.001
67294W        W68158   8.951  15.820  25.797
67295W        W68159   7.672  16.524  26.843
67296W        W68160   8.930  15.159  28.312
67297W        W68161  10.765  14.828  25.611
67298W        W68162  10.783  16.538  28.814
67299W        W68163   9.356  17.964  28.877
67300W        W68164  10.798  16.961  28.499
67301W        W68165  10.395  17.716   0.072
67302W        W68166   8.072  18.233  27.442
67303W        W68167  10.958  16.895  26.992
67304W        W68168   9.370  15.919  27.056
67305W        W68169   9.155  14.659  26.752
67306W        W68170   8.341  17.634  26.755
67307W        W68171   8.745  15.432  27.875
67308W        W68172   8.602  14.669  27.470
67309W        W68173   7.469  17.965  25.952
67310W        W68174   9.034  16.737  26.863
67311W        W68175   8.257  17.879  28.382
67312W        W68176   7.644  16.614  26.304
67313W        W68177   7.574  15.123  27.217
67314W        W68178   8.979  17.120  27.266
67315W        W68179   7.491  14.998  26.268
67316W        W68180   9.868  16.187  28.307
67317W        W68181   9.882  15.574  25.686
67318W        W68182  10.367  17.230  27.466
67319W        W68183   9.146  17.599  27.445
67320W        W68184   8.529  17.924  26.372
67321W        W68185   9.832  14.621  25.617
67322W        W68186   7.647  17.941  27.522
67323W        W68187   9.515  15.588  28.885
67324W        W68188   7.730  15.355  28.884
67325W        W68189   7.467  15.788  26.567
67326W        W68190   8.483  15.925  26.132
67327W        W68191   9.869  16.048  28.833
67328W        W68192   8.405  16.482  27.614
67329W        W68193   9.686  14.732  26.876
67330W        W68194   8.924  18.043  27.236
67331W        W68195  10.351  17.806  28.039
67332W        W68196   9.678  17.811  27.412
67333W        W68197   9.551  16.771  26.937
67334W        W68198   9.114  14.986  26.092
67335W        W68199  10.955  14.718  26.813
67336W        W68200   8.361  16.123  25.655
67337W        W68201  10.590  15.605  26.865
67338W        W68202   9.102  16.746  26.008
67339W        W68203  10.283  16.988  28.475
67340W        W68204   9.844  17.810  25.427
67341W        W68205   8.621  15.274  28.737
67342W        W68206   8.516  15.927  27.933
67343W        W68207  10.581  17.390  28.298
67344W        W68208   9.729  15.212  28.581
67345W        W68209   7.428  15.905  28.361
67346W        W68210   9.232  16.328  28.149
67347W        W68211   7.660  17.029  26.964
67348W        W68212   7.716  16.255  27.677
67349W        W68213  10.032  16.652  28.195
67350W        W68214  10.017  18.002  28.837
67351W        W68215   9.787  15.700  28.459
67352W        W68216   9.137  17.573  27.982
67353W        W68217   8.391  17.845  27.530
67354W        W68218  10.330  17.088  27.961
67355W        W68219   9.432  17.336  28.913
67356W        W68220   7.946  17.086  27.382
67357W        W68221  10.327  16.767  27.241
67358W        W68222   9.920  18.027  27.817
67359W        W68223   7.938  17.535  27.666
67360W        W68224   8.970  15.655  28.801
67361W        W68225   9.137  17.708  26.381
67362W        W68226   8.700  17.097  28.990
67363W        W68227   8.696  17.435  26.438
67364W        W68228   8.025  15.727  25.537
67365W        W68229   7.374  21.914   3.397
67366W        W68230   7.758  20.882   2.841
67367W        W68231  10.394  20.543   0.756
67368W        W68232  10.568  21.625   2.721
67369W        W68233   8.649  21.673   0.374
67370W        W68234   8.495  19.709   1.113
67371W        W68235   8.057  19.564   1.441
67372W        W68236   9.105  20.289   0.763
67373W        W68237   8.763  21.574   3.031
67374W        W68238   7.376  19.021   2.802
67375W        W68239   8.026  18.126   2.764
67376W        W68240   9.821  18.645   1.690
67377W        W68241   9.638  19.366   0.546
67378W        W68242  10.020  18.974   3.260
67379W        W68243   7.420  18.612   2.514
67380W        W68244   7.526  21.439   3.522
67381W        W68245   8.820  20.848   0.320
67382W        W68246   7.330  19.458   1.975
67383W        W68247   8.533  19.469   3.160
67384W        W68248  10.644  19.150   1.864
67385W        W68249  10.492  20.148   2.438
67386W        W68250   8.995  19.769   1.581
67387W        W68251   9.435  21.261   2.003
67388W        W68252   7.912  20.263   2.093
67389W        W68253   7.144  19.938   1.931
67390W        W68254   8.440  20.096   2.914
67391W        W68255  10.521  19.621   3.160
67392W        W68256   8.258  21.365   1.797
67393W        W68257   9.371  20.950   2.640
67394W        W68258   8.784  19.471   1.936
67395W        W68259   8.786  20.241   1.644
67396W        W68260   9.507  21.147   3.342
67397W        W68261   8.870  20.349   3.397
67398W        W68262   8.954  20.211   2.910
67399W        W68263   7.349  19.260   3.240
67400W        W68264  10.004  20.962   3.246
67401W        W68265   7.848  18.463   1.019
67402W        W68266   8.394  20.907   2.000
67403W        W68267  10.577  20.774   1.563
67404W        W68268  10.286  18.778   1.867
67405W        W68269  10.552  19.138   0.226
67406W        W68270  10.883  19.755   2.364
67407W        W68271   9.117  21.646   2.158
67408W        W68272  10.508  21.017   0.904
67409W        W68273   7.834  21.899   0.593
67410W        W68274   8.142  21.773   0.992
67411W        W68275   7.847  18.483   2.279
67412W        W68276  10.476  19.541   2.612
67413W        W68277   9.929  20.002   1.359
67414W        W68278   9.916  19.771   0.382
67415W        W68279   9.171  20.857   2.164
67416W        W68280   9.213  19.299   1.508
67417W        W68281   9.473  21.445   2.486
67418W        W68282  10.454  20.193   1.122
67419W        W68283   9.334  18.731   1.009
67420W        W68284   7.844  21.394   0.753
67421W        W68285   7.526  18.760   1.291
67422W        W68286  10.118  19.259   1.891
67423W        W68287   7.744  21.181   1.706
67424W        W68288   8.884  21.275   0.609
67425W        W68289  10.247  19.508   0.060
67426W        W68290   7.480  21.208   2.253
67427W        W68291   8.211  20.965   2.567
67428W        W68292   8.438  20.189   1.262
67429W        W68293   8.459  18.654   1.930
67430W        W68294  10.875  18.187   1.686
67431W        W68295   8.020  20.180   0.345
67432W        W68296   7.817  19.259   0.457
67433W        W68297   7.642  21.226   1.205
67434W        W68298   8.754  20.607   1.263
67435W        W68299  10.239  21.380   3.023
67436W        W68300   9.168  19.189   0.704
67437W        W68301  10.538  21.705   1.568
67438W        W68302  10.074  19.449   2.929
67439W        W68303  10.872  21.081   1.276
67440W        W68304   9.474  20.323   2.746
67441W        W68305   7.453  19.829   1.107
67442W        W68306   8.299  20.523   2.329
67443W        W68307   9.771  19.753   0.907
67444W        W68308   9.485  20.161   1.084
67445W        W68309   7.635  19.410   2.398
67446W        W68310   7.749  19.376   2.886
67447W        W68311   7.696  18.281   1.484
67448W        W68312   9.413  18.798   2.025
67449W        W68313   9.169  18.796   3.143
67450W        W68314   9.731  18.895   0.727
67451W        W68315  10.749  21.444   3.190
67452W        W68316   9.530  18.393   3.057
67453W        W68317  10.518  20.908   3.293
67454W        W68318  10.103  18.941   2.722
67455W        W68319   9.778  18.918   1.248
67456W        W68320  10.180  19.943   3.418
67457W        W68321   7.937  21.629   1.477
67458W        W68322   8.687  19.334   0.768
67459W        W68323   8.160  18.557   3.051
67460W        W68324  10.541  19.303   0.997
67461W        W68325  10.708  19.789   0.865
67462W        W68326   8.386  21.811   3.336
67463W        W68327   8.578  18.295   0.725
67464W        W68328  10.717  18.663   1.617
67465W        W68329  10.849  21.133   0.250
67466W        W68330   7.490  20.303   1.797
67467W        W68331   9.701  18.805   0.209
67468W        W68332  10.758  21.254   1.752
67469W        W68333  10.683  18.314   2.405
67470W        W68334   9.276  19.820   2.973
67471W        W68335   8.997  20.787   0.807
67472W        W68336   9.746  20.092   3.638
67473W        W68337   9.416  18.329   1.795
67474W        W68338   7.807  19.325   1.863
67475W        W68339   7.592  20.394   2.779
67476W        W68340   9.530  21.586   1.364
67477W        W68341  10.377  19.083   2.304
67478W        W68342   9.496  21.776   2.875
67479W        W68343  10.530  20.422   0.293
67480W        W68344   8.941  20.074   1.182
67481W        W68345  10.767  18.344   2.904
67482W        W68346   9.059  20.515   2.516
67483W        W68347   9.285  19.311   2.018
67484W        W68348  10.251  19.718   1.076
67485W        W68349  10.339  19.531   0.575
67486W        W68350  10.127  21.363   0.925
67487W        W68351  10.045  20.857   1.674
67488W        W68352   9.579  20.131   0.578
67489W        W68353   9.294  20.227   1.557
67490W        W68354  10.420  19.904   1.542
67491W        W68355   7.553  18.959   2.181
67492W        W68356  10.239  19.970   2.893
67493W        W68357  10.762  21.677   2.043
67494W        W68358   8.552  21.037   1.509
67495W        W68359   9.971  21.715   2.687
67496W        W68360   9.508  19.082   2.457
67497W        W68361   9.035  21.801   2.649
67498W        W68362  10.651  18.654   1.103
67499W        W68363  10.243  20.057   1.991
67500W        W68364   7.147  19.237   2.398
67501W        W68365  10.291  18.934   1.359
67502W        W68366  10.527  19.152   2.946
67503W        W68367   9.388  21.083   1.515
67504W        W68368   8.937  21.794   1.277
67505W        W68369   7.876  18.716   0.521
67506W        W68370   9.043  18.486   2.173
67507W        W68371   8.151  21.635   0.254
67508W        W68372   8.332  20.093   0.750
67509W        W68373   9.076  20.711   3.005
67510W        W68374   8.941  19.024   1.161
67511W        W68375  10.276  18.419   1.444
67512W        W68376  10.078  21.849   1.815
67513W        W68377   9.547  21.764   1.872
67514W        W68378   8.757  20.511   2.072
67515W        W68379  10.589  21.289   2.337
67516W        W68380   8.319  18.692   0.986
67517W        W68381   8.838  21.187   1.953
67518W        W68382   8.272  18.834   0.148
67519W        W68383   9.006  19.495   2.402
67520W        W68384   9.873  18.356   2.126
67521W        W68385   7.427  20.291   2.311
67522W        W68386   9.102  20.035   0.315
67523W        W68387   8.383  18.332   0.247
67524W        W68388   9.026  19.557   1.096
67525W        W68389   9.804  18.527   2.614
67526W        W68390   8.599  20.583   2.828
67527W        W68391   9.354  20.297   3.238
67528W        W68392   9.854  20.253   3.130
67529W        W68393   9.132  18.455   3.506
67530W        W68394   8.319  19.271   1.780
67531W        W68395   7.979  19.026   1.466
67532W        W68396   7.629  21.742   1.080
67533W        W68397   9.223  21.353   2.933
67534W        W68398   7.792  20.649   0.472
67535W        W68399   9.749  20.197   1.796
67536W        W68400   9.860  19.694   1.959
67537W        W68401   9.246  20.334   2.057
67538W        W68402   9.693  20.736   0.182
67539W        W68403   9.319  18.780   1.516
67540W        W68404  10.984  19.067   0.909
67541W        W68405   7.530  21.643   2.969
67542W        W68406   7.776  20.700   2.364
67543W        W68407   7.400  21.622   0.618
67544W        W68408   9.017  18.975   2.329
67545W        W68409   8.333  21.332   0.629
67546W        W68410  10.489  21.415   0.566
67547W        W68411   9.295  19.721   0.695
67548W        W68412   8.306  19.227   1.112
67549W        W68413   9.291  19.161   0.192
67550W        W68414   9.587  20.723   3.054
67551W        W68415  10.132  18.608   0.973
67552W        W68416   7.424  18.456   0.318
67553W        W68417   8.698  20.872   2.416
67554W        W68418   8.362  20.537   1.644
67555W        W68419   8.299  20.684   0.338
67556W        W68420   7.392  21.116   0.722
67557W        W68421   8.166  19.668   2.862
67558W        W68422   8.641  18.500   3.232
67559W        W68423   9.292  18.631   2.632
67560W        W68424   8.764  18.517   1.173
67561W        W68425   9.616  18.400   0.700
67562W        W68426   7.385  18.446   2.014
67563W        W68427   7.583  19.351   1.356
67564W        W68428  10.428  18.301   1.939
67565W        W68429   7.878  18.974   0.962
67566W        W68430  10.263  18.583   2.354
67567W        W68431  10.697  19.877   0.319
67568W        W68432   7.789  18.677   1.794
67569W        W68433   9.123  19.157   2.793
67570W        W68434   7.380  18.961   0.372
67571W        W68435   8.097  20.490   2.794
67572W        W68436   9.366  19.835   1.926
67573W        W68437   9.163  21.733   0.379
67574W        W68438   7.490  20.240   0.264
67575W        W68439   8.249  20.918   3.064
67576W        W68440   7.661  19.865   2.672
67577W        W68441   8.667  20.175   2.469
67578W        W68442  10.260  18.274   2.764
67579W        W68443  10.759  19.947   2.822
67580W        W68444  10.819  20.246   0.697
67581W        W68445   9.545  20.609   0.768
67582W        W68446  10.309  21.809   0.244
67583W        W68447   9.310  19.853   3.490
67584W        W68448   7.866  20.630   3.264
67585W        W68449  10.858  18.763   3.218
67586W        W68450  10.462  19.585   2.092
67587W        W68451   8.850  21.687   3.545
67588W        W68452   8.897  18.440   0.358
67589W        W68453  10.375  20.913   0.383
67590W        W68454   8.214  19.110   2.953
67591W        W68455   8.720  21.087   2.888
67592W        W68456  10.648  18.775   2.632
67593W        W68457   9.968  21.746   0.606
67594W        W68458  10.037  20.520   2.071
67595W        W68459   8.334  18.799   2.564
67596W        W68460   8.837  19.856   3.285
67597W        W68461   8.088  20.919   0.813
67598W        W68462   9.964  20.302   0.941
67599W        W68463   7.840  18.909   2.626
67600W        W68464   8.971  21.261   1.234
67601W        W68465  10.829  19.643   1.352
67602W        W68466   9.036  18.314   2.980
67603W        W68467   9.882  21.015   2.144
67604W        W68468  10.294  21.394   1.919
67605W        W68469   9.323  21.021   0.472
67606W        W68470   7.433  20.967   3.257
67607W        W68471   8.066  18.944   2.130
67608W        W68472   8.152  18.531   1.451
67609W        W68473   9.892  18.884   2.182
67610W        W68474   8.697  20.332   0.422
67611W        W68475  10.608  20.441   2.020
67612W        W68476   7.890  21.287   3.157
67613W        W68477  10.366  21.893   0.915
67614W        W68478   8.523  18.883   1.461
67615W        W68479   8.048  20.105   1.607
67616W        W68480   8.559  21.837   2.449
67617W        W68481  10.446  21.846   3.201
67618W        W68482   9.655  20.090   2.283
67619W        W68483   7.692  19.817   0.564
67620W        W68484  10.619  21.489   1.098
67621W        W68485  10.496  18.896   0.672
67622W        W68486   8.541  18.250   2.795
67623W        W68487  10.329  21.208   1.414
67624W        W68488  10.398  19.408   1.491
67625W        W68489   8.693  19.366   1.442
67626W        W68490   8.783  19.738   2.784
67627W        W68491   9.906  20.832   2.677
67628W        W68492   8.630  19.246   2.689
67629W        W68493   8.460  21.672   1.430
67630W        W68494   7.879  21.796   3.324
67631W        W68495   7.950  21.127   0.308
67632W        W68496  10.220  20.705   1.201
67633W        W68497   8.143  19.324   2.475
67634W        W68498  10.838  19.408   0.555
67635W        W68499   8.500  20.575   0.818
67636W        W68500   9.738  19.884   2.761
67637W        W68501   9.516  19.606   2.379
67638W        W68502   8.143  20.032   2.487
67639W        W68503  10.317  21.752   2.292
67640W        W68504   9.992  18.449   3.296
67641W        W68505   7.663  18.472   2.946
67642W        W68506   8.103  19.723   1.996
67643W        W68507   8.465  19.342   0.242
67644W        W68508   7.353  21.179   2.767
67645W        W68509   8.882  19.954   2.061
67646W        W68510   8.817  18.942   0.227
67647W        W68511   7.981  19.943   1.097
67648W        W68512   7.526  21.726   2.441
67649W        W68513  10.306  20.044   0.630
67650W        W68514  10.387  18.665   3.067
67651W        W68515   9.836  21.059   1.241
67652W        W68516   7.537  19.748   3.214
67653W        W68517  10.594  18.383   0.607
67654W        W68518   9.998  20.876   0.751
67655W        W68519   8.796  19.862   0.719
67656W        W68520  10.094  18.598   0.461
67657W        W68521   9.956  19.345   2.421
67658W        W68522   7.617  19.812   1.621
67659W        W68523   8.031  20.867   1.374
67660W        W68524   9.900  19.464   1.388
67661W        W68525   8.910  18.990   1.812
67662W        W68526  10.810  20.810   2.392
67663W        W68527  10.774  18.736   2.132
67664W        W68528   7.429  21.598   1.550
67665W        W68529   7.630  20.746   0.988
67666W        W68530   7.769  18.548   3.472
67667W        W68531   8.974  21.223   3.344
67668W        W68532  10.764  20.301   1.534
67669W        W68533  10.007  20.430   0.448
67670W        W68534   9.456  21.965   2.382
67671W        W68535  10.187  20.471   3.493
67672W        W68536   9.094  18.315   0.808
67673W        W68537   9.660  19.136   1.713
67674W        W68538   7.395  20.767   1.987
67675W        W68539   8.785  18.795   0.726
67676W        W68540   8.340  20.431   3.278
67677W        W68541   9.506  19.318   1.064
67678W        W68542   9.597  20.602   2.333
67679W        W68543   7.826  21.345   2.641
67680W        W68544   8.456  21.303   3.346
67681W        W68545   8.276  19.049   0.621
67682W        W68546  10.027  19.266   0.920
67683W        W68547   9.741  21.280   2.899
67684W        W68548   8.483  19.798   1.635
67685W        W68549   8.089  21.648   2.337
67686W        W68550  10.796  21.641   0.207
67687W        W68551   7.441  20.346   3.283
67688W        W68552   9.562  20.699   1.826
67689W        W68553   8.058  20.458   1.059
67690W        W68554   8.484  21.333   2.304
67691W        W68555   8.894  18.502   1.671
67692W        W68556   7.295  20.590   0.598
67693W        W68557   8.949  19.526   0.344
67694W        W68558   7.638  20.276   1.312
67695W        W68559   8.802  18.721   2.750
67696W        W68560  10.514  18.627   0.154
67697W        W68561  10.569  20.224   3.216
67698W        W68562   9.367  21.644   3.407
67699W        W68563  10.713  20.491   2.786
67700W        W68564  10.306  21.342   3.525
67701W        W68565   8.166  21.870   1.877
67702W        W68566  10.772  20.598   1.094
67703W        W68567   9.465  19.745   1.382
67704W        W68568   9.218  18.302   1.304
67705W        W68569   8.186  21.303   1.167
67706W        W68570   8.547  19.110   2.205
67707W        W68571   8.674  18.172   2.030
67708W        W68572   7.661  21.597   0.150
67709W        W68573   9.274  20.629   1.222
67710W        W68574   8.312  21.416   2.824
67711W        W68575   7.660  20.263   0.795
67712W        W68576   7.416  19.022   1.706
67713W        W68577   9.040  20.714   1.686
67714W        W68578   7.432  18.650   0.786
67715W        W68579  10.094  19.827   2.412
67716W        W68580  10.076  19.118   0.409
67717W        W68581  10.421  20.916   2.030
67718W        W68582   9.113  21.519   1.667
67719W        W68583   8.635  21.586   0.935
67720W        W68584   9.756  18.240   0.226
67721W        W68585   7.720  21.613   1.976
67722W        W68586   9.587  19.254   3.362
67723W        W68587   7.775  18.946   3.158
67724W        W68588   7.827  19.482   0.935
67725W        W68589   8.249  19.583   0.674
67726W        W68590   9.745  19.734   3.245
67727W        W68591   8.405  20.138   2.009
67728W        W68592   9.722  18.391   1.237
67729W        W68593   9.204  22.047   1.625
67730W        W68594  10.129  21.262   2.526
67731W        W68595   9.841  21.340   1.694
67732W        W68596   9.760  20.517   1.375
67733W        W68597   9.277  18.736   0.495
67734W        W68598  10.971  18.231   1.164
67735W        W68599   8.506  19.872   0.292
67736W        W68600  10.808  19.108   1.385
67737W        W68601   9.249  20.520   0.339
67738W        W68602  10.239  20.566   2.979
67739W        W68603  10.002  21.274   0.384
67740W        W68604   8.706  19.001   3.172
67741W        W68605   8.510  19.677   2.337
67742W        W68606  10.491  20.995   2.789
67743W        W68607   9.625  18.902   2.938
67744W        W68608   7.261  19.528   2.816
67745W        W68609   9.174  19.992   2.482
67746W        W68610   7.531  20.755   1.490
67747W        W68611   7.620  19.849   2.138
67748W        W68612   9.982  20.316   2.599
67749W        W68613   9.878  21.694   3.220
67750W        W68614   9.566  19.408   2.862
67751W        W68615  10.063  21.661   1.336
67752W        W68616   8.980  21.284   2.481
67753W        W68617   8.656  21.702   1.933
67754W        W68618  10.336  20.647   2.457
67755W        W68619   9.177  20.775   3.511
67756W        W68620   7.914  20.716   1.861
67757W        W68621  10.231  20.379   1.594
67758W        W68622   9.867  21.542   2.187
67759W        W68623   7.974  21.161   2.168
67760W        W68624   9.098  19.399   3.242
67761W        W68625   9.235  21.565   0.891
67762W        W68626   8.678  20.810   3.321
67763W        W68627   8.583  21.046   0.981
67764W        W68628   8.049  19.673   0.215
67765W        W68629   7.335  22.037   7.053
67766W        W68630   7.713  20.738   6.666
67767W        W68631  10.529  20.129   4.479
67768W        W68632  10.736  21.782   6.317
67769W        W68633   8.396  21.699   3.842
67770W        W68634   8.777  19.834   5.218
67771W        W68635   8.273  19.599   5.285
67772W        W68636   9.160  20.352   4.239
67773W        W68637   8.823  21.504   6.619
67774W        W68638   7.325  18.946   6.553
67775W        W68639   7.855  18.213   6.432
67776W        W68640   9.898  18.587   5.281
67777W        W68641   9.643  19.078   3.849
67778W        W68642   9.960  19.094   6.898
67779W        W68643   7.472  18.557   6.252
67780W        W68644   7.522  21.567   7.205
67781W        W68645   8.699  21.070   3.758
67782W        W68646   7.393  19.385   5.657
67783W        W68647   8.422  19.538   6.767
67784W        W68648  10.687  19.134   5.603
67785W        W68649  10.591  20.379   6.227
67786W        W68650   9.139  19.486   5.285
67787W        W68651   9.546  21.020   5.700
67788W        W68652   7.778  20.374   5.908
67789W        W68653   7.141  19.845   5.553
67790W        W68654   8.421  19.960   6.449
67791W        W68655  10.553  19.688   6.859
67792W        W68656   8.216  21.136   5.329
67793W        W68657   9.291  20.857   6.512
67794W        W68658   8.708  19.452   5.577
67795W        W68659   8.824  20.290   5.473
67796W        W68660   9.741  21.165   7.223
67797W        W68661   8.925  20.272   7.177
67798W        W68662   8.905  20.111   6.649
67799W        W68663   7.258  19.280   6.971
67800W        W68664  10.040  20.930   6.877
67801W        W68665   7.651  18.350   4.819
67802W        W68666   8.412  20.995   5.795
67803W        W68667  10.455  20.784   5.307
67804W        W68668  10.171  18.889   5.650
67805W        W68669  10.493  19.027   3.454
67806W        W68670  10.935  19.870   6.145
67807W        W68671   8.909  21.640   5.672
67808W        W68672  10.713  21.195   4.165
67809W        W68673   7.819  21.931   4.361
67810W        W68674   8.177  21.849   4.765
67811W        W68675   7.941  18.536   6.022
67812W        W68676  10.488  19.627   6.338
67813W        W68677   9.872  19.762   4.731
67814W        W68678   9.746  19.584   3.755
67815W        W68679   9.214  20.815   6.015
67816W        W68680   9.088  18.995   5.128
67817W        W68681   9.582  21.156   6.207
67818W        W68682  10.233  20.072   4.916
67819W        W68683   9.382  18.505   4.465
67820W        W68684   7.984  21.451   4.462
67821W        W68685   7.292  18.730   4.928
67822W        W68686   9.849  19.509   5.226
67823W        W68687   7.678  21.185   5.441
67824W        W68688   8.807  21.477   4.043
67825W        W68689  10.137  19.433   3.445
67826W        W68690   7.461  21.241   5.959
67827W        W68691   8.189  21.075   6.247
67828W        W68692   8.770  20.476   5.003
67829W        W68693   8.381  18.694   5.772
67830W        W68694  10.767  18.286   5.424
67831W        W68695   7.913  20.100   3.073
67832W        W68696   7.519  18.983   3.641
67833W        W68697   7.858  21.164   4.943
67834W        W68698   8.543  20.930   4.909
67835W        W68699  10.323  21.613   6.578
67836W        W68700   9.224  19.120   4.174
67837W        W68701  10.470  21.854   5.301
67838W        W68702  10.091  19.574   6.699
67839W        W68703  10.988  21.213   4.962
67840W        W68704   9.450  20.369   6.373
67841W        W68705   7.279  20.108   4.631
67842W        W68706   8.256  20.586   6.091
67843W        W68707   9.474  19.530   4.418
67844W        W68708   9.504  20.065   4.536
67845W        W68709   7.694  19.401   6.093
67846W        W68710   7.827  19.425   6.601
67847W        W68711   7.660  18.385   5.315
67848W        W68712   9.417  18.708   5.545
67849W        W68713   9.128  18.814   6.798
67850W        W68714   9.481  18.589   3.945
67851W        W68715  10.694  21.506   6.923
67852W        W68716   9.529  18.440   6.804
67853W        W68717  10.495  20.819   7.123
67854W        W68718  10.024  19.088   6.382
67855W        W68719   9.925  18.735   4.756
67856W        W68720  10.173  19.989   7.088
67857W        W68721   7.978  21.595   5.247
67858W        W68722   8.695  19.049   4.075
67859W        W68723   8.094  18.588   6.729
67860W        W68724  10.265  19.190   4.655
67861W        W68725  10.270  19.693   4.445
67862W        W68726   8.490  21.722   6.934
67863W        W68727   8.157  18.299   4.162
67864W        W68728  10.535  18.730   5.316
67865W        W68729  10.801  21.179   3.645
67866W        W68730   7.465  20.277   5.493
67867W        W68731   9.589  18.742   3.448
67868W        W68732  10.646  21.349   5.363
67869W        W68733  10.712  18.295   6.130
67870W        W68734   9.238  19.712   6.768
67871W        W68735   9.022  20.969   4.144
67872W        W68736   9.720  20.150   7.342
67873W        W68737   9.461  18.250   5.320
67874W        W68738   7.838  19.254   5.455
67875W        W68739   7.478  20.437   6.324
67876W        W68740   9.571  21.763   5.090
67877W        W68741  10.633  19.592   5.832
67878W        W68742   9.338  21.556   6.518
67879W        W68743  10.598  19.981   3.698
67880W        W68744   9.075  20.073   4.871
67881W        W68745  10.868  18.403   6.613
67882W        W68746   8.969  20.476   6.298
67883W        W68747   9.259  19.176   5.662
67884W        W68748   9.938  19.341   4.243
67885W        W68749  10.450  19.281   4.189
67886W        W68750  10.474  21.095   4.913
67887W        W68751  10.004  20.780   5.587
67888W        W68752   9.843  19.842   4.199
67889W        W68753   9.279  20.084   5.364
67890W        W68754  10.351  19.929   5.429
67891W        W68755   7.556  18.929   5.902
67892W        W68756  10.279  20.042   6.564
67893W        W68757  10.705  21.787   5.777
67894W        W68758   8.718  21.303   5.273
67895W        W68759   9.832  21.617   6.381
67896W        W68760   9.521  18.987   6.076
67897W        W68761   8.982  21.749   6.184
67898W        W68762  10.442  18.733   4.817
67899W        W68763  10.361  19.997   5.987
67900W        W68764   7.139  19.179   6.079
67901W        W68765  10.114  19.045   5.135
67902W        W68766  10.452  19.199   6.661
67903W        W68767   9.556  20.936   5.205
67904W        W68768   8.808  21.559   4.787
67905W        W68769   7.752  18.604   3.982
67906W        W68770   9.027  18.433   5.780
67907W        W68771   7.917  21.879   3.841
67908W        W68772   8.734  20.266   4.515
67909W        W68773   8.966  20.607   6.801
67910W        W68774   8.970  18.632   4.753
67911W        W68775  10.331  18.302   5.098
67912W        W68776   9.943  21.928   5.421
67913W        W68777   9.347  21.471   5.880
67914W        W68778   8.771  20.628   5.844
67915W        W68779  10.449  21.394   6.123
67916W        W68780   8.082  18.565   4.603
67917W        W68781   8.902  21.132   5.753
67918W        W68782   8.251  18.904   3.434
67919W        W68783   9.010  19.431   6.023
67920W        W68784   9.758  18.348   5.743
67921W        W68785   7.275  20.183   5.948
67922W        W68786   8.907  19.986   3.807
67923W        W68787   8.258  18.402   3.589
67924W        W68788   9.085  19.490   4.775
67925W        W68789  10.001  18.595   6.603
67926W        W68790   8.514  20.471   6.530
67927W        W68791   9.363  20.220   6.884
67928W        W68792   9.858  20.290   6.755
67929W        W68793   9.183  18.487   7.219
67930W        W68794   8.338  19.102   5.462
67931W        W68795   7.786  18.822   5.038
67932W        W68796   7.669  21.653   4.822
67933W        W68797   9.156  21.176   6.892
67934W        W68798   8.547  20.739   4.253
67935W        W68799   9.805  20.001   5.335
67936W        W68800   9.981  19.727   5.725
67937W        W68801   9.208  20.325   5.842
67938W        W68802   9.684  20.603   3.540
67939W        W68803   9.456  18.638   4.981
67940W        W68804  10.747  18.999   4.504
67941W        W68805   7.560  21.681   6.695
67942W        W68806   7.743  20.849   6.146
67943W        W68807   7.329  21.802   4.438
67944W        W68808   8.999  18.898   6.056
67945W        W68809   8.323  21.235   4.086
67946W        W68810  10.337  21.533   4.035
67947W        W68811   9.376  19.879   4.008
67948W        W68812   8.819  19.087   4.580
67949W        W68813   9.166  18.939   3.671
67950W        W68814   9.555  20.716   6.940
67951W        W68815   9.864  18.426   4.271
67952W        W68816   7.356  18.255   3.909
67953W        W68817   8.670  20.900   6.249
67954W        W68818   8.644  20.798   5.385
67955W        W68819   8.228  20.899   3.583
67956W        W68820   7.501  21.221   4.548
67957W        W68821   8.022  19.888   6.775
67958W        W68822   8.538  18.376   6.874
67959W        W68823   9.284  18.551   6.343
67960W        W68824   8.538  18.323   4.778
67961W        W68825   9.617  18.032   4.039
67962W        W68826   7.465  18.427   5.777
67963W        W68827   7.403  19.265   5.133
67964W        W68828  10.280  18.344   5.614
67965W        W68829   7.599  18.726   4.473
67966W        W68830  10.141  18.458   6.092
67967W        W68831  10.644  19.455   3.679
67968W        W68832   7.922  18.749   5.539
67969W        W68833   9.187  19.207   6.446
67970W        W68834   7.227  18.740   3.992
67971W        W68835   7.978  20.313   6.423
67972W        W68836   9.481  19.669   5.610
67973W        W68837   9.211  21.762   3.916
67974W        W68838   7.183  20.024   3.587
67975W        W68839   8.209  20.844   6.690
67976W        W68840   7.695  19.876   6.340
67977W        W68841   8.660  20.173   6.032
67978W        W68842  10.368  18.255   6.515
67979W        W68843  10.789  20.066   6.594
67980W        W68844  10.693  19.734   4.147
67981W        W68845   9.670  20.321   4.096
67982W        W68846  10.176  21.832   3.637
67983W        W68847   9.272  19.872   7.266
67984W        W68848   7.947  20.866   7.133
67985W        W68849  10.882  18.807   7.130
67986W        W68850  10.283  19.398   5.470
67987W        W68851   8.942  21.632   7.150
67988W        W68852   8.630  18.317   3.980
67989W        W68853  10.377  20.899   3.809
67990W        W68854   8.202  19.086   6.699
67991W        W68855   8.683  21.033   6.733
67992W        W68856  10.486  18.736   6.345
67993W        W68857   9.989  21.932   4.129
67994W        W68858  10.000  20.261   5.745
67995W        W68859   8.314  18.806   6.280
67996W        W68860   8.805  19.777   7.034
67997W        W68861   8.183  20.987   4.544
67998W        W68862  10.021  20.232   4.480
67999W        W68863   7.817  18.937   6.370
68000W        W68864   9.036  20.961   5.056
68001W        W68865  10.749  19.602   5.336
68002W        W68866   9.037  18.306   6.755
68003W        W68867   9.983  21.208   5.893
68004W        W68868  10.262  21.564   5.657
68005W        W68869   9.228  21.271   3.777
68006W        W68870   7.436  21.037   7.019
68007W        W68871   8.048  19.066   5.916
68008W        W68872   8.147  18.440   5.110
68009W        W68873   9.784  19.244   5.683
68010W        W68874   8.841  20.566   3.860
68011W        W68875  10.465  20.494   5.726
68012W        W68876   7.850  21.240   6.783
68013W        W68877  10.388  21.942   4.574
68014W        W68878   8.590  18.770   5.096
68015W        W68879   7.969  20.111   5.478
68016W        W68880   8.575  21.909   5.938
68017W        W68881  10.335  21.855   7.121
68018W        W68882   9.608  20.024   5.972
68019W        W68883   7.247  19.514   3.656
68020W        W68884  10.629  21.589   4.882
68021W        W68885  10.218  18.807   4.316
68022W        W68886   8.384  18.300   6.395
68023W        W68887  10.151  21.194   5.324
68024W        W68888  10.304  19.578   4.988
68025W        W68889   8.679  19.303   5.083
68026W        W68890   8.834  19.630   6.477
68027W        W68891   9.788  20.740   6.459
68028W        W68892   8.668  19.154   6.451
68029W        W68893   8.476  21.740   5.178
68030W        W68894   7.996  21.676   7.014
68031W        W68895   8.032  21.396   3.651
68032W        W68896  10.442  20.543   4.834
68033W        W68897   8.220  19.393   6.283
68034W        W68898  10.944  19.268   4.091
68035W        W68899   8.944  20.732   4.597
68036W        W68900   9.613  19.911   6.490
68037W        W68901   9.519  19.519   6.115
68038W        W68902   8.146  20.031   6.010
68039W        W68903  10.258  21.876   6.087
68040W        W68904  10.038  18.630   7.119
68041W        W68905   7.594  18.524   6.738
68042W        W68906   8.123  19.558   5.782
68043W        W68907   8.759  19.276   3.612
68044W        W68908   7.424  21.134   6.500
68045W        W68909   8.984  19.859   5.727
68046W        W68910   8.701  18.729   3.672
68047W        W68911   8.383  20.177   5.160
68048W        W68912   7.575  21.865   6.205
68049W        W68913  10.229  19.658   3.908
68050W        W68914  10.475  18.668   6.847
68051W        W68915  10.017  20.794   5.016
68052W        W68916   7.519  19.750   6.854
68053W        W68917  10.348  18.362   4.052
68054W        W68918  10.384  20.598   4.301
68055W        W68919   9.053  19.863   4.406
68056W        W68920   9.975  18.622   3.791
68057W        W68921  10.218  19.324   5.974
68058W        W68922   7.597  19.754   5.314
68059W        W68923   8.162  20.652   5.175
68060W        W68924   9.773  19.254   4.763
68061W        W68925   8.820  18.893   5.561
68062W        W68926  10.637  20.913   6.214
68063W        W68927  10.620  18.684   5.827
68064W        W68928   7.403  21.592   5.270
68065W        W68929   7.809  20.678   4.750
68066W        W68930   7.734  18.597   7.215
68067W        W68931   8.764  21.154   7.237
68068W        W68932  10.662  20.311   5.250
68069W        W68933  10.171  20.176   3.958
68070W        W68934   9.454  21.918   6.124
68071W        W68935  10.040  20.517   7.168
68072W        W68936   8.911  18.244   4.417
68073W        W68937   9.588  19.073   5.222
68074W        W68938   7.440  20.761   5.716
68075W        W68939   8.562  18.643   4.382
68076W        W68940   8.475  20.156   6.932
68077W        W68941   9.325  19.026   4.672
68078W        W68942   9.670  20.594   5.963
68079W        W68943   7.801  21.414   6.307
68080W        W68944   8.304  21.238   7.021
68081W        W68945   8.268  18.758   3.959
68082W        W68946   9.689  18.907   4.330
68083W        W68947   9.645  21.201   6.713
68084W        W68948   8.465  19.935   5.615
68085W        W68949   8.138  21.694   6.065
68086W        W68950  10.681  21.673   3.676
68087W        W68951   7.505  20.260   6.798
68088W        W68952   9.613  20.472   5.458
68089W        W68953   8.325  20.510   4.709
68090W        W68954   8.584  21.409   6.118
68091W        W68955   9.027  18.503   5.249
68092W        W68956   7.121  20.552   3.686
68093W        W68957   9.262  19.426   3.748
68094W        W68958   7.640  20.227   5.016
68095W        W68959   8.773  18.644   6.454
68096W        W68960  10.467  18.520   3.570
68097W        W68961  10.494  20.345   6.926
68098W        W68962   9.440  21.582   7.049
68099W        W68963  10.796  20.645   6.634
68100W        W68964  10.267  21.309   7.142
68101W        W68965   8.157  21.952   5.613
68102W        W68966  10.899  20.727   5.061
68103W        W68967   9.460  19.767   5.004
68104W        W68968   9.222  18.179   4.859
68105W        W68969   8.323  21.376   4.859
68106W        W68970   8.554  19.151   5.952
68107W        W68971   8.581  18.362   5.429
68108W        W68972   7.632  21.515   4.073
68109W        W68973   9.287  20.506   5.047
68110W        W68974   8.284  21.458   6.553
68111W        W68975   7.414  20.546   4.343
68112W        W68976   7.407  18.840   5.422
68113W        W68977   9.153  20.727   5.503
68114W        W68978   7.198  18.409   4.412
68115W        W68979   9.993  19.727   6.226
68116W        W68980  10.152  19.099   3.829
68117W        W68981  10.443  21.044   5.747
68118W        W68982   9.231  21.314   5.394
68119W        W68983   8.465  21.644   4.394
68120W        W68984   9.589  18.242   3.575
68121W        W68985   7.708  21.672   5.703
68122W        W68986   9.420  19.364   7.127
68123W        W68987   7.723  18.997   6.879
68124W        W68988   7.231  19.410   4.623
68125W        W68989   8.891  19.522   4.074
68126W        W68990   9.703  19.789   6.982
68127W        W68991   8.346  20.436   5.619
68128W        W68992   9.780  18.244   4.872
68129W        W68993   9.031  21.755   5.197
68130W        W68994  10.079  21.159   6.402
68131W        W68995   9.729  21.439   5.460
68132W        W68996   9.757  20.307   4.933
68133W        W68997   9.008  18.654   4.113
68134W        W68998  10.816  18.353   4.882
68135W        W68999   8.301  19.885   3.355
68136W        W69000  10.616  19.178   5.064
68137W        W69001   9.288  20.322   3.740
68138W        W69002  10.273  20.608   6.558
68139W        W69003   9.790  21.462   3.676
68140W        W69004   8.627  18.884   6.887
68141W        W69005   8.565  19.672   6.037
68142W        W69006  10.493  21.088   6.688
68143W        W69007   9.586  18.900   6.585
68144W        W69008   7.333  19.453   6.481
68145W        W69009   9.151  19.946   6.216
68146W        W69010   7.647  20.706   5.239
68147W        W69011   7.673  19.856   5.815
68148W        W69012   9.966  20.280   6.252
68149W        W69013   9.924  21.606   6.893
68150W        W69014   9.626  19.404   6.623
68151W        W69015  10.101  21.621   5.029
68152W        W69016   9.056  21.236   6.246
68153W        W69017   8.404  21.501   5.641
68154W        W69018  10.161  20.738   6.076
68155W        W69019   9.119  20.753   7.281
68156W        W69020   7.962  20.782   5.652
68157W        W69021  10.145  20.388   5.288
68158W        W69022   9.826  21.701   5.878
68159W        W69023   7.978  21.264   5.833
68160W        W69024   8.939  19.301   6.893
68161W        W69025   9.168  21.426   4.400
68162W        W69026   8.522  20.677   7.078
68163W        W69027   8.678  21.182   4.474
68164W        W69028   8.016  19.417   3.321
68165W        W69029   7.387  21.927  10.756
68166W        W69030   7.699  20.761  10.208
68167W        W69031  10.444  20.426   7.969
68168W        W69032  10.763  21.748  10.000
68169W        W69033   8.411  21.539   7.428
68170W        W69034   8.590  19.671   8.506
68171W        W69035   8.197  19.528   8.898
68172W        W69036   9.148  20.255   8.084
68173W        W69037   8.908  21.613  10.421
68174W        W69038   7.341  18.988  10.333
68175W        W69039   7.984  18.235  10.196
68176W        W69040   9.888  18.679   8.981
68177W        W69041   9.350  19.264   7.665
68178W        W69042  10.054  19.123  10.465
68179W        W69043   7.490  18.689   9.914
68180W        W69044   7.531  21.391  10.825
68181W        W69045   8.824  20.959   7.722
68182W        W69046   7.376  19.425   9.382
68183W        W69047   8.463  19.531  10.545
68184W        W69048  10.573  19.084   9.121
68185W        W69049  10.600  20.490   9.889
68186W        W69050   8.994  19.718   8.908
68187W        W69051   9.499  21.090   9.220
68188W        W69052   7.956  20.304   9.485
68189W        W69053   7.173  19.905   9.316
68190W        W69054   8.411  19.939  10.201
68191W        W69055  10.560  19.860  10.491
68192W        W69056   8.233  20.914   8.929
68193W        W69057   9.233  20.903  10.012
68194W        W69058   8.621  19.553   9.315
68195W        W69059   8.843  20.326   8.997
68196W        W69060   9.578  21.144  10.764
68197W        W69061   8.991  20.300  10.822
68198W        W69062   8.893  20.121  10.328
68199W        W69063   7.258  19.319  10.711
68200W        W69064  10.031  21.049  10.502
68201W        W69065   7.743  18.477   8.429
68202W        W69066   8.263  20.746   9.503
68203W        W69067  10.444  20.746   8.937
68204W        W69068  10.058  19.147   9.223
68205W        W69069  10.402  19.066   7.171
68206W        W69070  10.966  19.712   9.695
68207W        W69071   8.843  21.301   9.515
68208W        W69072  10.527  21.004   7.911
68209W        W69073   7.804  21.954   7.994
68210W        W69074   8.091  21.753   8.420
68211W        W69075   7.972  18.509   9.739
68212W        W69076  10.477  19.664   9.887
68213W        W69077   9.891  19.858   8.477
68214W        W69078   9.676  19.646   7.526
68215W        W69079   9.116  20.861   9.522
68216W        W69080   9.096  19.043   8.800
68217W        W69081   9.520  21.223   9.736
68218W        W69082  10.268  19.925   8.103
68219W        W69083   9.448  18.618   8.168
68220W        W69084   7.944  21.459   8.008
68221W        W69085   7.366  18.830   8.484
68222W        W69086  10.032  19.539   8.876
68223W        W69087   7.633  21.119   9.007
68224W        W69088   8.855  21.464   7.677
68225W        W69089  10.066  19.497   7.207
68226W        W69090   7.470  21.160   9.516
68227W        W69091   8.169  20.787   9.999
68228W        W69092   8.467  20.289   8.643
68229W        W69093   8.391  18.752   9.543
68230W        W69094  10.878  18.391   9.134
68231W        W69095   8.028  20.403   6.920
68232W        W69096   7.563  19.079   7.358
68233W        W69097   7.815  20.887   8.598
68234W        W69098   8.702  20.741   8.733
68235W        W69099  10.266  21.685  10.141
68236W        W69100   9.110  18.984   8.018
68237W        W69101  10.572  21.892   8.906
68238W        W69102  10.148  19.626  10.282
68239W        W69103  10.973  21.152   8.712
68240W        W69104   9.516  20.393   9.942
68241W        W69105   7.238  19.729   8.511
68242W        W69106   8.342  20.339   9.829
68243W        W69107   9.487  19.504   8.103
68244W        W69108   9.391  19.929   8.390
68245W        W69109   7.720  19.500   9.787
68246W        W69110   7.732  19.434  10.496
68247W        W69111   7.640  18.396   8.937
68248W        W69112   9.363  18.824   9.199
68249W        W69113   9.127  18.862  10.525
68250W        W69114   9.477  18.753   7.615
68251W        W69115  10.890  21.501  10.509
68252W        W69116   9.621  18.398  10.360
68253W        W69117  10.556  20.907  10.575
68254W        W69118  10.076  18.863  10.010
68255W        W69119   9.854  18.821   8.440
68256W        W69120  10.227  19.959  10.885
68257W        W69121   8.056  21.411   8.894
68258W        W69122   8.741  19.067   7.668
68259W        W69123   8.257  18.562  10.507
68260W        W69124  10.223  19.065   8.176
68261W        W69125  10.555  19.425   7.965
68262W        W69126   8.417  21.577  10.546
68263W        W69127   8.223  18.388   8.033
68264W        W69128  10.683  18.719   8.794
68265W        W69129  10.725  21.225   7.381
68266W        W69130   7.567  20.245   9.105
68267W        W69131   9.548  18.844   7.104
68268W        W69132  10.746  21.446   9.073
68269W        W69133  10.815  18.321   9.659
68270W        W69134   9.293  19.704  10.433
68271W        W69135   9.124  20.788   8.112
68272W        W69136   9.787  20.157  10.743
68273W        W69137   9.498  18.327   9.081
68274W        W69138   7.805  19.265   9.130
68275W        W69139   7.708  20.305   9.958
68276W        W69140   9.390  21.567   8.875
68277W        W69141  10.375  19.025   9.612
68278W        W69142   9.285  21.579  10.058
68279W        W69143  10.409  20.330   7.453
68280W        W69144   8.919  20.067   8.539
68281W        W69145  10.822  18.310  10.167
68282W        W69146   9.012  20.445   9.917
68283W        W69147   9.085  19.338   9.224
68284W        W69148   9.990  19.513   7.968
68285W        W69149  10.235  19.222   7.630
68286W        W69150  10.245  21.287   8.264
68287W        W69151   9.976  20.885   9.104
68288W        W69152   9.744  19.981   7.980
68289W        W69153   9.299  20.127   8.912
68290W        W69154  10.276  19.939   9.140
68291W        W69155   7.678  19.016   9.571
68292W        W69156  10.282  20.142  10.177
68293W        W69157  10.690  21.809   9.449
68294W        W69158   8.590  21.248   8.763
68295W        W69159   9.792  21.650   9.943
68296W        W69160   9.625  19.065   9.815
68297W        W69161   8.923  21.762   9.730
68298W        W69162  10.622  18.669   8.285
68299W        W69163  10.417  20.096   9.610
68300W        W69164   7.266  19.201   9.846
68301W        W69165  10.212  19.060   8.728
68302W        W69166  10.438  19.207  10.120
68303W        W69167   9.572  20.855   8.738
68304W        W69168   8.932  21.626   8.659
68305W        W69169   7.854  18.589   7.712
68306W        W69170   8.993  18.522   9.477
68307W        W69171   7.948  21.793   7.533
68308W        W69172   8.722  19.961   8.067
68309W        W69173   9.014  20.626  10.400
68310W        W69174   9.005  18.669   8.440
68311W        W69175  10.241  18.530   8.627
68312W        W69176   9.945  21.976   9.001
68313W        W69177   9.291  21.544   9.398
68314W        W69178   8.723  20.447   9.486
68315W        W69179  10.434  21.443   9.699
68316W        W69180   8.226  18.734   8.405
68317W        W69181   8.670  20.902   9.225
68318W        W69182   8.185  18.860   7.171
68319W        W69183   9.022  19.563   9.689
68320W        W69184   9.905  18.362   9.422
68321W        W69185   7.386  20.304   9.576
68322W        W69186   8.833  19.948   7.555
68323W        W69187   8.215  18.349   7.320
68324W        W69188   9.096  19.503   8.460
68325W        W69189   9.707  18.539   9.873
68326W        W69190   8.553  20.507  10.250
68327W        W69191   9.371  20.251  10.456
68328W        W69192   9.871  20.433  10.324
68329W        W69193   9.171  18.529  10.960
68330W        W69194   8.315  19.140   9.223
68331W        W69195   7.827  18.888   8.742
68332W        W69196   7.721  21.386   8.509
68333W        W69197   9.141  21.150  10.447
68334W        W69198   8.399  20.737   7.937
68335W        W69199   9.788  19.987   8.985
68336W        W69200   9.919  19.651   9.375
68337W        W69201   9.247  20.366   9.423
68338W        W69202   9.640  20.685   7.459
68339W        W69203   9.446  18.670   8.703
68340W        W69204  10.931  19.015   8.024
68341W        W69205   7.478  21.645  10.322
68342W        W69206   7.740  20.740   9.668
68343W        W69207   7.432  21.737   8.276
68344W        W69208   9.154  19.026   9.627
68345W        W69209   8.424  21.279   7.901
68346W        W69210  10.629  21.586   8.008
68347W        W69211   9.276  19.844   7.789
68348W        W69212   8.755  19.126   8.377
68349W        W69213   9.080  18.981   7.295
68350W        W69214   9.495  20.763  10.427
68351W        W69215  10.152  18.535   8.100
68352W        W69216   7.288  18.293   7.632
68353W        W69217   8.682  20.831   9.845
68354W        W69218   8.343  20.421   9.122
68355W        W69219   8.344  20.989   7.476
68356W        W69220   7.400  21.236   8.139
68357W        W69221   8.049  19.865  10.584
68358W        W69222   8.729  18.496  10.696
68359W        W69223   9.240  18.700  10.026
68360W        W69224   8.581  18.344   8.495
68361W        W69225   9.736  18.347   7.835
68362W        W69226   7.565  18.474   9.447
68363W        W69227   7.367  19.252   8.825
68364W        W69228  10.366  18.567   9.171
68365W        W69229   7.796  18.934   8.190
68366W        W69230  10.325  18.512   9.688
68367W        W69231  10.535  19.568   7.374
68368W        W69232   7.968  18.743   9.238
68369W        W69233   9.203  19.238  10.124
68370W        W69234   7.196  18.788   7.571
68371W        W69235   8.084  20.325  10.296
68372W        W69236   9.397  19.765   9.283
68373W        W69237   9.265  21.765   7.547
68374W        W69238   7.169  20.000   7.181
68375W        W69239   8.184  20.810  10.510
68376W        W69240   7.704  19.848  10.189
68377W        W69241   8.756  20.022   9.827
68378W        W69242  10.111  18.338  10.125
68379W        W69243  10.792  20.034  10.055
68380W        W69244  10.624  19.940   7.734
68381W        W69245   9.597  20.497   8.071
68382W        W69246  10.219  21.959   7.636
68383W        W69247   9.356  19.898  10.905
68384W        W69248   7.763  20.871  10.806
68385W        W69249  10.901  18.679  10.529
68386W        W69250  10.433  19.503   9.403
68387W        W69251   8.755  21.688  10.909
68388W        W69252   8.613  18.254   7.692
68389W        W69253  10.150  20.896   7.513
68390W        W69254   8.127  19.088  10.452
68391W        W69255   8.656  20.999  10.371
68392W        W69256  10.674  18.769   9.958
68393W        W69257  10.147  21.771   8.108
68394W        W69258  10.117  20.427   9.325
68395W        W69259   8.248  18.787  10.053
68396W        W69260   8.861  19.810  10.747
68397W        W69261   8.267  20.707   8.441
68398W        W69262  10.043  20.336   8.289
68399W        W69263   7.774  19.099  10.081
68400W        W69264   9.093  21.047   8.585
68401W        W69265  10.555  19.533   8.881
68402W        W69266   9.127  18.361  10.427
68403W        W69267   9.965  21.243   9.491
68404W        W69268  10.268  21.609   9.218
68405W        W69269   9.246  21.248   7.405
68406W        W69270   7.352  20.993  10.530
68407W        W69271   8.152  19.186   9.732
68408W        W69272   8.148  18.469   8.834
68409W        W69273   9.572  19.275   9.350
68410W        W69274   8.801  20.439   7.739
68411W        W69275  10.606  20.588   9.395
68412W        W69276   7.774  21.235  10.387
68413W        W69277  10.530  21.962   8.385
68414W        W69278   8.596  18.796   8.763
68415W        W69279   8.018  19.988   9.078
68416W        W69280   8.468  21.920   9.556
68417W        W69281  10.572  21.897  10.498
68418W        W69282   9.707  20.136   9.492
68419W        W69283   7.428  19.588   7.344
68420W        W69284  10.654  21.494   8.524
68421W        W69285  10.495  18.829   7.817
68422W        W69286   8.490  18.242  10.159
68423W        W69287  10.318  21.230   8.824
68424W        W69288  10.307  19.514   8.419
68425W        W69289   8.671  19.310   8.869
68426W        W69290   8.841  19.634  10.174
68427W        W69291   9.782  20.828  10.008
68428W        W69292   8.550  19.204  10.151
68429W        W69293   8.454  21.746   8.814
68430W        W69294   7.893  21.696  10.627
68431W        W69295   7.931  21.307   7.396
68432W        W69296  10.567  20.957   8.471
68433W        W69297   8.108  19.511  10.154
68434W        W69298  10.778  19.145   7.525
68435W        W69299   8.729  20.493   8.262
68436W        W69300   9.726  19.939  10.254
68437W        W69301   9.555  19.598   9.763
68438W        W69302   8.048  19.916   9.820
68439W        W69303  10.216  21.922   9.642
68440W        W69304  10.034  18.494  10.629
68441W        W69305   7.766  18.667  10.345
68442W        W69306   8.101  19.589   9.414
68443W        W69307   8.526  19.270   7.214
68444W        W69308   7.378  21.176  10.047
68445W        W69309   8.925  19.966   9.350
68446W        W69310   8.687  18.607   7.305
68447W        W69311   8.112  19.932   8.571
68448W        W69312   7.534  21.617   9.790
68449W        W69313  10.128  19.880   7.595
68450W        W69314  10.410  18.715  10.378
68451W        W69315  10.075  20.812   8.570
68452W        W69316   7.445  19.844  10.645
68453W        W69317  10.604  18.331   7.841
68454W        W69318  10.070  20.797   8.044
68455W        W69319   8.957  19.477   7.957
68456W        W69320  10.022  18.730   7.628
68457W        W69321  10.043  19.366   9.812
68458W        W69322   7.532  19.726   8.977
68459W        W69323   7.973  20.408   8.765
68460W        W69324   9.840  19.339   8.435
68461W        W69325   8.795  18.920   9.221
68462W        W69326  10.689  20.987   9.727
68463W        W69327  10.812  18.791   9.461
68464W        W69328   7.368  21.534   8.837
68465W        W69329   7.783  20.460   8.295
68466W        W69330   7.835  18.486  10.816
68467W        W69331   8.607  21.179  10.858
68468W        W69332  10.640  20.273   8.983
68469W        W69333   9.979  20.380   7.731
68470W        W69334   9.426  21.939   9.704
68471W        W69335  10.251  20.437  10.668
68472W        W69336   8.932  18.243   8.115
68473W        W69337   9.661  19.120   8.863
68474W        W69338   7.346  20.716   9.245
68475W        W69339   8.647  18.692   8.077
68476W        W69340   8.488  20.177  10.654
68477W        W69341   9.406  19.087   8.404
68478W        W69342   9.679  20.709   9.532
68479W        W69343   7.862  21.200   9.871
68480W        W69344   8.098  21.254  10.773
68481W        W69345   8.345  18.730   7.659
68482W        W69346   9.733  19.045   7.972
68483W        W69347   9.616  21.244  10.250
68484W        W69348   8.528  19.914   8.965
68485W        W69349   8.053  21.619   9.622
68486W        W69350  10.680  21.727   7.492
68487W        W69351   7.606  20.316  10.481
68488W        W69352   9.640  20.478   9.084
68489W        W69353   8.273  20.258   8.169
68490W        W69354   8.374  21.223   9.721
68491W        W69355   9.016  18.535   8.945
68492W        W69356   7.326  20.712   8.226
68493W        W69357   8.971  19.473   7.408
68494W        W69358   7.601  20.083   8.608
68495W        W69359   8.742  18.701  10.205
68496W        W69360  10.490  18.576   7.371
68497W        W69361  10.673  20.409  10.390
68498W        W69362   9.395  21.589  10.583
68499W        W69363  10.882  20.837  10.176
68500W        W69364  10.386  21.419  10.625
68501W        W69365   8.111  21.867   9.175
68502W        W69366  10.913  20.651   8.750
68503W        W69367   9.501  19.602   8.782
68504W        W69368   9.215  18.201   8.606
68505W        W69369   8.197  21.218   8.419
68506W        W69370   8.669  19.167   9.652
68507W        W69371   8.564  18.440   9.155
68508W        W69372   7.509  21.568   7.734
68509W        W69373   9.159  20.518   8.563
68510W        W69374   8.247  21.244  10.215
68511W        W69375   7.312  20.140   8.156
68512W        W69376   7.475  18.857   9.121
68513W        W69377   9.157  20.730   9.031
68514W        W69378   7.443  18.607   8.017
68515W        W69379  10.002  19.875   9.832
68516W        W69380   9.783  19.139   7.431
68517W        W69381  10.421  21.109   9.305
68518W        W69382   9.023  21.246   9.049
68519W        W69383   8.562  21.559   8.309
68520W        W69384   9.667  18.347   7.316
68521W        W69385   7.674  21.567   9.259
68522W        W69386   9.456  19.258  10.686
68523W        W69387   7.701  18.996  10.742
68524W        W69388   7.427  19.305   8.299
68525W        W69389   8.527  19.548   7.672
68526W        W69390   9.811  19.640  10.715
68527W        W69391   8.403  20.012   9.446
68528W        W69392   9.769  18.314   8.521
68529W        W69393   8.856  21.740   9.180
68530W        W69394  10.083  21.224  10.007
68531W        W69395   9.860  21.399   8.996
68532W        W69396   9.640  20.337   8.587
68533W        W69397   8.997  18.606   7.707
68534W        W69398  10.946  18.323   8.569
68535W        W69399   8.331  19.762   7.232
68536W        W69400  10.657  19.145   8.474
68537W        W69401   9.280  20.316   7.570
68538W        W69402  10.273  20.732  10.181
68539W        W69403  10.287  21.412   7.660
68540W        W69404   8.597  18.980  10.623
68541W        W69405   8.466  19.607   9.801
68542W        W69406  10.566  21.249  10.172
68543W        W69407   9.619  18.910  10.291
68544W        W69408   7.298  19.521  10.239
68545W        W69409   9.248  19.955   9.980
68546W        W69410   7.440  20.559   8.725
68547W        W69411   7.669  19.878   9.457
68548W        W69412  10.019  20.391   9.828
68549W        W69413   9.906  21.601  10.495
68550W        W69414   9.685  19.416  10.229
68551W        W69415  10.177  21.682   8.644
68552W        W69416   8.851  21.300  10.016
68553W        W69417   8.428  21.438   9.246
68554W        W69418  10.202  20.827   9.668
68555W        W69419   9.152  20.803  10.860
68556W        W69420   7.850  20.686   9.166
68557W        W69421  10.101  20.364   8.824
68558W        W69422   9.790  21.713   9.421
68559W        W69423   7.992  21.159   9.365
68560W        W69424   8.951  19.340  10.585
68561W        W69425   9.020  21.356   8.163
68562W        W69426   8.629  20.664  10.756
68563W        W69427   8.663  21.015   8.288
68564W        W69428   8.005  19.381   7.086
68565W        W69429   7.351  22.039  14.430
68566W        W69430   7.748  20.874  13.867
68567W        W69431  10.342  20.489  11.614
68568W        W69432  10.606  21.616  13.567
68569W        W69433   8.303  21.465  11.184
68570W        W69434   8.561  19.730  12.004
68571W        W69435   8.052  19.565  12.527
68572W        W69436   8.960  20.287  11.701
68573W        W69437   8.875  21.551  14.049
68574W        W69438   7.264  19.074  14.033
68575W        W69439   7.922  18.164  13.826
68576W        W69440   9.825  18.645  12.559
68577W        W69441   9.540  19.482  11.178
68578W        W69442   9.888  19.150  14.288
68579W        W69443   7.395  18.656  13.632
68580W        W69444   7.533  21.559  14.557
68581W        W69445   8.744  20.823  11.246
68582W        W69446   7.394  19.395  13.082
68583W        W69447   8.529  19.493  14.165
68584W        W69448  10.619  19.149  12.726
68585W        W69449  10.625  20.330  13.533
68586W        W69450   8.946  19.604  12.435
68587W        W69451   9.529  21.079  12.938
68588W        W69452   7.974  20.303  13.140
68589W        W69453   7.328  19.886  12.900
68590W        W69454   8.456  20.008  13.801
68591W        W69455  10.588  19.687  14.244
68592W        W69456   8.181  21.061  12.605
68593W        W69457   9.262  20.864  13.589
68594W        W69458   8.824  19.359  12.874
68595W        W69459   8.809  20.273  12.573
68596W        W69460   9.650  21.289  14.157
68597W        W69461   9.019  20.302  14.447
68598W        W69462   8.941  20.118  13.962
68599W        W69463   7.060  19.403  14.381
68600W        W69464  10.064  20.976  14.051
68601W        W69465   7.680  18.519  12.059
68602W        W69466   8.254  20.754  13.172
68603W        W69467  10.761  20.674  12.622
68604W        W69468  10.160  18.946  12.851
68605W        W69469  10.316  18.901  10.852
68606W        W69470  10.901  19.705  13.422
68607W        W69471   8.891  21.383  13.112
68608W        W69472  10.506  20.987  11.467
68609W        W69473   7.642  21.771  11.679
68610W        W69474   8.076  21.767  12.036
68611W        W69475   7.923  18.606  13.540
68612W        W69476  10.487  19.361  13.617
68613W        W69477   9.852  19.961  12.123
68614W        W69478   9.807  19.912  11.210
68615W        W69479   9.094  20.890  13.101
68616W        W69480   8.996  19.057  12.417
68617W        W69481   9.351  21.311  13.357
68618W        W69482  10.351  20.048  11.914
68619W        W69483   9.481  18.841  11.736
68620W        W69484   7.963  21.350  11.737
68621W        W69485   7.470  18.920  12.347
68622W        W69486   9.774  19.694  12.559
68623W        W69487   7.636  21.173  12.719
68624W        W69488   8.769  21.342  11.341
68625W        W69489  10.315  19.468  10.746
68626W        W69490   7.509  21.229  13.230
68627W        W69491   8.234  20.875  13.662
68628W        W69492   8.517  20.265  12.142
68629W        W69493   8.477  18.746  13.236
68630W        W69494  10.833  18.317  12.624
68631W        W69495   8.045  20.406  10.809
68632W        W69496   7.813  19.105  11.236
68633W        W69497   7.800  21.148  12.233
68634W        W69498   8.532  20.766  12.262
68635W        W69499  10.305  21.437  13.931
68636W        W69500   9.254  19.267  11.568
68637W        W69501  10.474  21.702  12.601
68638W        W69502  10.170  19.485  14.017
68639W        W69503  10.938  21.083  12.303
68640W        W69504   9.489  20.399  13.688
68641W        W69505   7.317  19.975  11.973
68642W        W69506   8.433  20.359  13.411
68643W        W69507   9.533  19.674  11.700
68644W        W69508   9.413  20.148  11.924
68645W        W69509   7.795  19.481  13.461
68646W        W69510   7.784  19.472  13.991
68647W        W69511   7.657  18.507  12.592
68648W        W69512   9.380  18.855  12.735
68649W        W69513   9.053  18.830  13.979
68650W        W69514   9.521  18.967  11.229
68651W        W69515  10.806  21.526  14.060
68652W        W69516   9.365  18.403  14.147
68653W        W69517  10.555  20.891  14.269
68654W        W69518  10.080  19.024  13.778
68655W        W69519   9.884  18.941  12.028
68656W        W69520  10.158  19.978  14.114
68657W        W69521   7.943  21.570  12.515
68658W        W69522   8.773  19.136  11.503
68659W        W69523   8.018  18.617  14.093
68660W        W69524  10.248  19.275  11.826
68661W        W69525  10.552  19.642  11.630
68662W        W69526   8.366  21.690  14.227
68663W        W69527   8.284  18.290  11.472
68664W        W69528  10.482  18.678  12.570
68665W        W69529  10.748  21.177  10.983
68666W        W69530   7.581  20.311  12.750
68667W        W69531   9.582  18.760  10.762
68668W        W69532  10.831  21.143  12.820
68669W        W69533  10.608  18.402  13.475
68670W        W69534   9.297  19.712  14.050
68671W        W69535   9.025  20.803  11.722
68672W        W69536   9.837  20.134  14.475
68673W        W69537   9.441  18.325  12.722
68674W        W69538   7.926  19.293  12.996
68675W        W69539   7.521  20.417  13.732
68676W        W69540   9.572  21.481  12.501
68677W        W69541  10.506  19.495  13.109
68678W        W69542   9.363  21.545  13.811
68679W        W69543  10.531  20.362  11.107
68680W        W69544   8.965  20.018  12.147
68681W        W69545  10.826  18.403  13.963
68682W        W69546   8.998  20.408  13.524
68683W        W69547   9.277  19.221  13.071
68684W        W69548  10.031  19.712  11.696
68685W        W69549  10.179  19.534  11.239
68686W        W69550  10.358  21.115  11.962
68687W        W69551   9.830  20.682  12.765
68688W        W69552   9.860  20.202  11.648
68689W        W69553   9.282  20.051  12.564
68690W        W69554  10.252  19.948  12.726
68691W        W69555   7.652  19.002  13.334
68692W        W69556  10.514  19.856  13.752
68693W        W69557  10.743  21.621  13.043
68694W        W69558   8.659  21.229  12.484
68695W        W69559   9.897  21.657  13.683
68696W        W69560   9.632  19.067  13.450
68697W        W69561   8.977  21.774  13.521
68698W        W69562  10.417  18.806  11.864
68699W        W69563  10.370  19.971  13.247
68700W        W69564   7.268  19.259  13.561
68701W        W69565   9.810  19.143  12.480
68702W        W69566  10.549  19.170  14.094
68703W        W69567   9.501  20.921  12.443
68704W        W69568   8.842  21.575  12.159
68705W        W69569   7.942  18.616  11.293
68706W        W69570   9.016  18.360  13.053
68707W        W69571   7.805  21.701  11.138
68708W        W69572   8.479  20.101  11.636
68709W        W69573   9.087  20.605  14.001
68710W        W69574   9.001  18.823  11.938
68711W        W69575  10.157  18.544  12.199
68712W        W69576   9.981  21.729  12.752
68713W        W69577   9.339  21.603  12.954
68714W        W69578   8.797  20.478  13.047
68715W        W69579  10.698  21.181  13.303
68716W        W69580   8.102  18.683  11.786
68717W        W69581   8.614  20.993  12.930
68718W        W69582   8.182  18.883  10.919
68719W        W69583   9.052  19.586  13.306
68720W        W69584   9.758  18.743  13.078
68721W        W69585   7.456  20.274  13.246
68722W        W69586   8.842  20.026  11.246
68723W        W69587   8.317  18.389  10.982
68724W        W69588   8.894  19.338  11.980
68725W        W69589   9.831  18.587  13.587
68726W        W69590   8.601  20.514  13.859
68727W        W69591   9.429  20.231  14.167
68728W        W69592   9.889  20.406  14.030
68729W        W69593   8.979  18.565  14.431
68730W        W69594   8.386  19.092  12.879
68731W        W69595   7.982  19.010  12.553
68732W        W69596   7.544  21.606  12.152
68733W        W69597   9.155  21.119  14.055
68734W        W69598   7.942  20.724  11.494
68735W        W69599   9.731  20.163  12.826
68736W        W69600   9.945  19.724  13.063
68737W        W69601   9.236  20.179  13.121
68738W        W69602   9.818  20.681  10.801
68739W        W69603   9.421  18.736  12.247
68740W        W69604  10.710  19.120  11.586
68741W        W69605   7.532  21.862  13.967
68742W        W69606   7.773  20.757  13.362
68743W        W69607   7.128  21.600  11.730
68744W        W69608   9.273  18.750  13.235
68745W        W69609   8.344  21.073  11.493
68746W        W69610  10.470  21.491  11.621
68747W        W69611   9.339  20.039  11.405
68748W        W69612   8.503  18.988  11.983
68749W        W69613   9.071  19.066  11.008
68750W        W69614   9.565  20.801  14.004
68751W        W69615   9.978  18.691  11.603
68752W        W69616   7.449  18.443  11.217
68753W        W69617   8.711  20.820  13.445
68754W        W69618   8.393  20.568  12.714
68755W        W69619   8.237  20.840  11.049
68756W        W69620   7.458  21.199  11.822
68757W        W69621   8.111  19.845  14.142
68758W        W69622   8.496  18.496  14.218
68759W        W69623   9.341  18.521  13.672
68760W        W69624   8.639  18.459  12.096
68761W        W69625   9.536  18.484  11.384
68762W        W69626   7.525  18.526  13.151
68763W        W69627   7.581  19.372  12.603
68764W        W69628  10.460  18.383  12.991
68765W        W69629   7.556  18.804  11.593
68766W        W69630  10.231  18.721  13.323
68767W        W69631  10.647  19.797  11.124
68768W        W69632   8.004  18.747  13.031
68769W        W69633   9.208  19.265  13.706
68770W        W69634   7.336  18.950  11.100
68771W        W69635   8.052  20.399  13.749
68772W        W69636   9.419  19.728  12.944
68773W        W69637   9.126  21.722  11.255
68774W        W69638   7.340  20.575  10.847
68775W        W69639   8.233  20.714  14.152
68776W        W69640   7.802  19.939  13.722
68777W        W69641   8.753  19.978  13.373
68778W        W69642  10.252  18.412  13.821
68779W        W69643  10.979  20.085  13.805
68780W        W69644  10.746  20.148  11.591
68781W        W69645   9.451  20.524  11.568
68782W        W69646  10.219  21.861  10.883
68783W        W69647   9.374  19.881  14.547
68784W        W69648   7.813  20.955  14.368
68785W        W69649  10.755  18.738  14.368
68786W        W69650  10.190  19.433  12.703
68787W        W69651   8.829  21.754  14.512
68788W        W69652   8.770  18.295  11.250
68789W        W69653  10.278  20.848  11.008
68790W        W69654   8.198  19.099  14.028
68791W        W69655   8.644  21.022  13.945
68792W        W69656  10.569  18.842  13.717
68793W        W69657  10.079  21.801  11.389
68794W        W69658  10.068  20.426  13.152
68795W        W69659   8.404  18.690  13.748
68796W        W69660   8.887  19.804  14.369
68797W        W69661   8.158  20.904  11.933
68798W        W69662  10.062  20.426  12.074
68799W        W69663   7.740  18.996  13.826
68800W        W69664   9.060  21.050  12.192
68801W        W69665  10.665  19.626  12.554
68802W        W69666   8.903  18.311  13.957
68803W        W69667   9.951  20.961  13.182
68804W        W69668  10.322  21.360  12.978
68805W        W69669   9.105  21.316  10.930
68806W        W69670   7.334  21.037  14.142
68807W        W69671   8.161  19.091  13.471
68808W        W69672   8.124  18.560  12.332
68809W        W69673   9.749  19.272  12.954
68810W        W69674   8.465  20.372  11.162
68811W        W69675  10.562  20.385  12.999
68812W        W69676   7.712  21.400  14.100
68813W        W69677  10.306  21.863  11.933
68814W        W69678   8.548  18.813  12.472
68815W        W69679   8.055  20.169  12.618
68816W        W69680   8.615  21.812  13.164
68817W        W69681  10.455  21.871  14.190
68818W        W69682   9.706  20.085  13.339
68819W        W69683   7.603  19.518  11.017
68820W        W69684  10.636  21.507  12.152
68821W        W69685  10.254  19.031  11.351
68822W        W69686   8.442  18.144  13.794
68823W        W69687  10.449  21.147  12.481
68824W        W69688  10.264  19.649  12.231
68825W        W69689   8.516  19.331  12.419
68826W        W69690   8.846  19.643  13.784
68827W        W69691   9.921  20.681  13.604
68828W        W69692   8.660  19.153  13.794
68829W        W69693   8.436  21.731  12.438
68830W        W69694   7.883  21.867  14.331
68831W        W69695   7.865  21.181  11.239
68832W        W69696  10.505  20.677  12.179
68833W        W69697   8.232  19.534  13.749
68834W        W69698  10.637  19.277  11.090
68835W        W69699   8.532  20.618  11.703
68836W        W69700   9.715  19.937  13.841
68837W        W69701   9.569  19.574  13.402
68838W        W69702   8.196  19.876  13.360
68839W        W69703  10.207  21.791  13.269
68840W        W69704   9.863  18.449  14.150
68841W        W69705   7.517  18.629  14.125
68842W        W69706   8.358  19.611  12.926
68843W        W69707   8.593  19.305  11.023
68844W        W69708   7.388  21.342  13.713
68845W        W69709   8.893  19.867  12.883
68846W        W69710   8.656  18.783  11.114
68847W        W69711   8.087  19.948  12.157
68848W        W69712   7.644  21.722  13.478
68849W        W69713  10.281  20.023  11.397
68850W        W69714  10.263  18.758  14.190
68851W        W69715  10.030  20.874  12.309
68852W        W69716   7.493  20.038  14.144
68853W        W69717  10.377  18.515  11.296
68854W        W69718   9.968  20.814  11.752
68855W        W69719   9.021  19.756  11.699
68856W        W69720   9.935  18.664  11.103
68857W        W69721  10.108  19.228  13.299
68858W        W69722   7.623  19.861  12.471
68859W        W69723   8.029  20.634  12.349
68860W        W69724   9.823  19.448  12.077
68861W        W69725   8.878  18.845  12.890
68862W        W69726  10.977  20.774  13.458
68863W        W69727  10.695  18.870  13.166
68864W        W69728   7.363  21.621  12.630
68865W        W69729   7.673  20.741  11.954
68866W        W69730   7.688  18.620  14.624
68867W        W69731   8.591  21.267  14.402
68868W        W69732  10.671  20.158  12.526
68869W        W69733  10.009  20.393  11.173
68870W        W69734   9.486  21.841  13.395
68871W        W69735  10.235  20.499  14.390
68872W        W69736   9.016  18.331  11.717
68873W        W69737   9.369  19.364  12.585
68874W        W69738   7.392  20.769  12.993
68875W        W69739   8.614  18.645  11.614
68876W        W69740   8.513  20.233  14.278
68877W        W69741   9.379  19.211  12.077
68878W        W69742   9.558  20.605  13.218
68879W        W69743   7.915  21.283  13.593
68880W        W69744   8.177  21.213  14.060
68881W        W69745   8.289  19.004  11.412
68882W        W69746   9.803  19.233  11.572
68883W        W69747   9.736  21.160  13.653
68884W        W69748   8.496  19.868  12.499
68885W        W69749   8.147  21.669  13.328
68886W        W69750  10.700  21.685  10.962
68887W        W69751   7.484  20.558  14.227
68888W        W69752   9.327  20.536  12.761
68889W        W69753   8.093  20.398  11.890
68890W        W69754   8.436  21.235  13.336
68891W        W69755   8.991  18.518  12.505
68892W        W69756   7.383  20.734  11.516
68893W        W69757   9.029  19.553  11.186
68894W        W69758   7.673  20.292  12.216
68895W        W69759   8.866  18.595  13.527
68896W        W69760  10.522  18.421  10.803
68897W        W69761  10.601  20.219  14.131
68898W        W69762   9.326  21.673  14.316
68899W        W69763  10.898  20.600  13.930
68900W        W69764  10.359  21.359  14.420
68901W        W69765   8.140  21.932  12.872
68902W        W69766  10.963  20.428  12.214
68903W        W69767   9.388  19.710  12.192
68904W        W69768   9.276  18.251  12.163
68905W        W69769   8.277  21.327  12.173
68906W        W69770   8.874  19.078  13.342
68907W        W69771   8.559  18.437  12.819
68908W        W69772   7.411  21.419  11.341
68909W        W69773   9.120  20.512  12.198
68910W        W69774   8.468  21.495  13.754
68911W        W69775   7.633  20.302  11.695
68912W        W69776   7.563  18.935  12.852
68913W        W69777   8.913  20.770  12.602
68914W        W69778   7.237  18.419  11.704
68915W        W69779  10.059  19.679  13.559
68916W        W69780   9.905  19.182  10.964
68917W        W69781  10.343  20.847  12.880
68918W        W69782   9.129  21.228  12.674
68919W        W69783   8.496  21.551  11.760
68920W        W69784   9.642  18.262  10.900
68921W        W69785   7.740  21.626  12.983
68922W        W69786   9.472  19.344  14.557
68923W        W69787   7.704  19.069  14.337
68924W        W69788   7.436  19.497  12.117
68925W        W69789   8.582  19.611  11.465
68926W        W69790   9.763  19.669  14.285
68927W        W69791   8.440  20.115  12.959
68928W        W69792   9.713  18.427  11.941
68929W        W69793   8.887  21.687  12.690
68930W        W69794  10.217  21.273  13.472
68931W        W69795   9.953  21.192  12.694
68932W        W69796   9.629  20.397  12.356
68933W        W69797   9.086  18.743  11.418
68934W        W69798  10.656  18.408  12.135
68935W        W69799   8.409  19.807  11.005
68936W        W69800  10.300  19.093  12.312
68937W        W69801   9.455  20.399  11.048
68938W        W69802  10.361  20.597  13.881
68939W        W69803  10.303  21.387  11.139
68940W        W69804   8.647  18.974  14.284
68941W        W69805   8.555  19.472  13.368
68942W        W69806  10.626  21.053  13.788
68943W        W69807   9.596  18.885  13.930
68944W        W69808   7.289  19.602  13.951
68945W        W69809   9.255  19.951  13.591
68946W        W69810   7.523  20.731  12.451
68947W        W69811   7.841  19.811  12.965
68948W        W69812  10.126  20.199  13.631
68949W        W69813   9.977  21.687  14.220
68950W        W69814   9.691  19.394  13.860
68951W        W69815  10.114  21.487  12.285
68952W        W69816   8.918  21.269  13.608
68953W        W69817   8.382  21.463  12.870
68954W        W69818  10.399  20.770  13.390
68955W        W69819   9.228  20.782  14.467
68956W        W69820   7.880  20.718  12.836
68957W        W69821  10.239  20.445  12.571
68958W        W69822   9.813  21.466  13.174
68959W        W69823   7.997  21.184  13.084
68960W        W69824   9.036  19.307  14.234
68961W        W69825   9.073  21.352  11.753
68962W        W69826   8.714  20.724  14.352
68963W        W69827   8.648  21.098  11.902
68964W        W69828   8.090  19.391  10.876
68965W        W69829   7.274  21.882  18.042
68966W        W69830   7.727  20.766  17.627
68967W        W69831  10.475  20.099  15.442
68968W        W69832  10.796  21.481  17.224
68969W        W69833   8.422  21.606  14.786
68970W        W69834   8.637  19.811  15.922
68971W        W69835   8.242  19.598  16.225
68972W        W69836   9.184  20.369  15.272
68973W        W69837   8.739  21.597  17.543
68974W        W69838   7.468  18.907  17.658
68975W        W69839   8.236  18.243  17.435
68976W        W69840   9.886  18.666  16.323
68977W        W69841   9.447  19.390  15.096
68978W        W69842  10.049  19.130  17.845
68979W        W69843   7.432  18.712  17.188
68980W        W69844   7.527  21.457  18.156
68981W        W69845   8.771  20.962  14.806
68982W        W69846   7.304  19.435  16.626
68983W        W69847   8.167  19.493  17.977
68984W        W69848  10.650  19.187  16.433
68985W        W69849  10.565  20.356  17.139
68986W        W69850   8.955  19.752  16.330
68987W        W69851   9.535  21.120  16.623
68988W        W69852   7.804  20.316  16.916
68989W        W69853   7.081  19.896  16.592
68990W        W69854   8.297  19.851  17.606
68991W        W69855  10.654  19.826  17.871
68992W        W69856   8.173  21.003  16.286
68993W        W69857   9.321  20.879  17.343
68994W        W69858   8.587  19.533  16.622
68995W        W69859   8.999  20.244  16.458
68996W        W69860   9.847  21.278  18.131
68997W        W69861   8.877  20.143  18.188
68998W        W69862   8.753  20.130  17.685
68999W        W69863   7.185  19.356  18.212
69000W        W69864  10.122  21.049  17.742
69001W        W69865   7.692  18.508  15.689
69002W        W69866   8.454  20.910  16.708
69003W        W69867  10.721  20.710  16.185
69004W        W69868  10.002  19.080  16.643
69005W        W69869  10.327  19.079  14.575
69006W        W69870  10.931  19.747  17.085
69007W        W69871   8.630  21.775  16.771
69008W        W69872  10.737  20.533  15.342
69009W        W69873   7.809  21.810  15.345
69010W        W69874   8.189  21.772  15.732
69011W        W69875   7.949  18.610  17.050
69012W        W69876  10.436  19.613  17.186
69013W        W69877   9.799  19.869  15.989
69014W        W69878   9.789  19.727  14.819
69015W        W69879   9.111  20.878  16.857
69016W        W69880   9.135  19.072  16.131
69017W        W69881   9.570  21.259  17.103
69018W        W69882  10.260  20.056  15.897
69019W        W69883   9.523  18.585  15.521
69020W        W69884   8.033  21.362  15.445
69021W        W69885   7.290  18.846  15.846
69022W        W69886   9.938  19.511  16.355
69023W        W69887   7.714  21.117  16.461
69024W        W69888   8.857  21.455  15.009
69025W        W69889  10.187  19.561  14.548
69026W        W69890   7.495  21.193  16.930
69027W        W69891   8.178  20.978  17.398
69028W        W69892   8.712  20.317  16.041
69029W        W69893   8.357  18.748  16.765
69030W        W69894  10.788  18.432  16.484
69031W        W69895   7.936  20.311  14.247
69032W        W69896   7.601  19.055  14.870
69033W        W69897   7.810  21.102  15.941
69034W        W69898   8.532  20.795  15.971
69035W        W69899  10.353  21.518  17.465
69036W        W69900   9.219  18.951  15.308
69037W        W69901  10.502  21.854  16.163
69038W        W69902  10.232  19.593  17.680
69039W        W69903  10.993  21.143  15.975
69040W        W69904   9.492  20.386  17.343
69041W        W69905   7.194  19.910  15.787
69042W        W69906   8.242  20.596  17.077
69043W        W69907   9.539  19.653  15.580
69044W        W69908   9.505  20.168  15.664
69045W        W69909   7.723  19.505  17.025
69046W        W69910   7.707  19.479  18.216
69047W        W69911   7.679  18.420  16.220
69048W        W69912   9.378  18.859  16.540
69049W        W69913   9.156  18.873  17.758
69050W        W69914   9.493  18.896  14.884
69051W        W69915  10.760  21.351  17.760
69052W        W69916   9.579  18.464  17.731
69053W        W69917  10.575  20.862  17.884
69054W        W69918  10.120  18.803  17.464
69055W        W69919   9.892  18.861  15.815
69056W        W69920  10.221  20.027  18.003
69057W        W69921   7.982  21.512  16.210
69058W        W69922   8.838  19.245  15.129
69059W        W69923   8.257  18.646  17.743
69060W        W69924  10.226  19.115  15.510
69061W        W69925  10.307  19.623  15.583
69062W        W69926   8.451  21.754  17.968
69063W        W69927   8.083  18.238  15.271
69064W        W69928  10.696  18.797  16.118
69065W        W69929  10.838  21.178  14.601
69066W        W69930   7.399  20.262  16.401
69067W        W69931   9.408  18.862  14.387
69068W        W69932  10.811  21.162  16.465
69069W        W69933  10.816  18.373  17.030
69070W        W69934   9.118  19.774  17.846
69071W        W69935   9.035  20.891  15.243
69072W        W69936   9.819  20.274  18.209
69073W        W69937   9.501  18.273  16.327
69074W        W69938   7.800  19.359  16.469
69075W        W69939   7.539  20.341  17.351
69076W        W69940   9.466  21.542  16.281
69077W        W69941  10.426  19.136  16.934
69078W        W69942   9.374  21.618  17.408
69079W        W69943  10.363  20.041  14.593
69080W        W69944   9.008  20.082  15.686
69081W        W69945  10.894  18.419  17.549
69082W        W69946   8.965  20.464  17.309
69083W        W69947   9.057  19.322  16.578
69084W        W69948   9.922  19.490  15.277
69085W        W69949  10.369  19.319  15.043
69086W        W69950  10.655  20.981  15.619
69087W        W69951   9.868  20.779  16.462
69088W        W69952   9.952  19.996  15.451
69089W        W69953   9.317  20.022  16.112
69090W        W69954  10.183  19.971  16.403
69091W        W69955   7.578  19.049  16.833
69092W        W69956  10.357  20.064  17.498
69093W        W69957  10.802  21.617  16.731
69094W        W69958   8.633  21.195  16.273
69095W        W69959   9.867  21.682  17.283
69096W        W69960   9.655  18.942  17.008
69097W        W69961   8.979  21.829  17.155
69098W        W69962  10.550  18.737  15.635
69099W        W69963  10.271  20.010  16.911
69100W        W69964   7.322  19.244  17.272
69101W        W69965  10.213  19.077  16.152
69102W        W69966  10.463  19.189  17.465
69103W        W69967   9.522  20.948  16.115
69104W        W69968   8.815  21.465  15.894
69105W        W69969   7.694  18.572  15.142
69106W        W69970   9.120  18.493  16.801
69107W        W69971   7.948  21.804  14.837
69108W        W69972   8.701  20.190  15.278
69109W        W69973   9.016  20.751  17.728
69110W        W69974   9.045  18.707  15.736
69111W        W69975  10.274  18.523  16.016
69112W        W69976  10.016  21.818  16.360
69113W        W69977   9.238  21.543  16.772
69114W        W69978   8.717  20.477  16.839
69115W        W69979  10.521  21.195  16.899
69116W        W69980   8.353  18.560  15.601
69117W        W69981   8.795  21.286  16.742
69118W        W69982   8.172  18.898  14.514
69119W        W69983   8.976  19.502  17.065
69120W        W69984   9.678  18.493  16.756
69121W        W69985   7.301  20.263  16.905
69122W        W69986   9.032  20.044  14.898
69123W        W69987   8.179  18.400  14.639
69124W        W69988   9.105  19.590  15.850
69125W        W69989   9.771  18.496  17.261
69126W        W69990   8.523  20.578  17.548
69127W        W69991   9.224  20.280  17.761
69128W        W69992   9.883  20.233  17.679
69129W        W69993   9.235  18.548  18.159
69130W        W69994   8.346  19.118  16.418
69131W        W69995   7.777  18.908  16.020
69132W        W69996   7.695  21.589  15.787
69133W        W69997   9.122  21.258  17.678
69134W        W69998   8.541  20.698  15.221
69135W        W69999   9.674  19.928  16.494
69136W        W70000   9.944  19.620  16.847
69137W        W70001   9.233  20.334  16.897
69138W        W70002   9.737  20.644  14.465
69139W        W70003   9.463  18.697  16.026
69140W        W70004  10.727  19.125  15.364
69141W        W70005   7.511  21.605  17.656
69142W        W70006   7.731  20.778  17.125
69143W        W70007   7.315  21.670  15.399
69144W        W70008   9.136  19.010  16.991
69145W        W70009   8.403  21.195  15.107
69146W        W70010  10.794  21.025  15.113
69147W        W70011   9.502  19.965  15.162
69148W        W70012   8.880  19.177  15.656
69149W        W70013   9.025  19.029  14.688
69150W        W70014   9.595  20.621  17.865
69151W        W70015  10.095  18.550  15.478
69152W        W70016   7.309  18.290  14.954
69153W        W70017   8.692  20.888  17.169
69154W        W70018   8.392  20.500  16.404
69155W        W70019   8.283  20.929  14.630
69156W        W70020   7.526  21.173  15.518
69157W        W70021   7.904  19.935  17.954
69158W        W70022   8.751  18.642  18.023
69159W        W70023   9.262  18.613  17.309
69160W        W70024   8.721  18.348  15.917
69161W        W70025   9.800  18.503  15.052
69162W        W70026   7.572  18.542  16.729
69163W        W70027   7.393  19.294  16.118
69164W        W70028  10.374  18.738  16.513
69165W        W70029   7.504  18.962  15.399
69166W        W70030  10.157  18.657  16.963
69167W        W70031  10.652  19.637  14.762
69168W        W70032   7.919  18.839  16.507
69169W        W70033   9.230  19.364  17.526
69170W        W70034   7.176  18.777  15.006
69171W        W70035   8.047  20.345  17.518
69172W        W70036   9.257  19.788  16.744
69173W        W70037   9.221  21.797  14.855
69174W        W70038   7.281  20.042  14.653
69175W        W70039   8.183  20.765  17.867
69176W        W70040   8.514  20.158  17.244
69177W        W70041  10.280  18.313  17.368
69178W        W70042  10.878  20.097  17.475
69179W        W70043  10.716  19.644  15.283
69180W        W70044   9.689  20.454  15.283
69181W        W70045  10.223  21.804  14.671
69182W        W70046   9.374  20.051  18.189
69183W        W70047   7.767  20.752  18.181
69184W        W70048  11.018  18.655  18.000
69185W        W70049  10.417  19.580  16.645
69186W        W70050   8.923  21.586  18.035
69187W        W70051   8.559  18.307  15.075
69188W        W70052  10.436  20.483  14.870
69189W        W70053   7.937  19.076  17.796
69190W        W70054   8.619  21.094  17.640
69191W        W70055  10.602  18.757  17.259
69192W        W70056  10.548  21.484  15.014
69193W        W70057   9.935  20.336  16.689
69194W        W70058   8.324  18.868  17.277
69195W        W70059   8.615  19.746  18.010
69196W        W70060   8.167  20.882  15.593
69197W        W70061   9.936  20.425  15.758
69198W        W70062   7.823  19.054  17.298
69199W        W70063   9.016  20.985  15.912
69200W        W70064  10.810  19.679  16.287
69201W        W70065   9.081  18.328  17.718
69202W        W70066  10.022  21.162  16.769
69203W        W70067  10.370  21.456  16.475
69204W        W70068   9.082  21.292  14.549
69205W        W70069   7.399  21.006  17.946
69206W        W70070   8.107  19.193  16.881
69207W        W70071   8.214  18.539  16.130
69208W        W70072   9.553  19.333  16.682
69209W        W70073   8.660  20.426  14.790
69210W        W70074  10.603  20.482  16.642
69211W        W70075   7.878  21.208  17.855
69212W        W70076  10.410  21.914  15.627
69213W        W70077   8.654  18.834  16.071
69214W        W70078   7.929  20.224  16.421
69215W        W70079   8.444  21.921  17.231
69216W        W70080  10.478  21.799  17.857
69217W        W70081   9.633  20.029  17.000
69218W        W70082   7.539  19.584  14.431
69219W        W70083  10.704  21.518  15.783
69220W        W70084  10.182  18.849  15.057
69221W        W70085   8.702  18.577  17.479
69222W        W70086  10.479  21.162  16.069
69223W        W70087  10.352  19.589  16.095
69224W        W70088   8.713  19.348  16.143
69225W        W70089   8.762  19.640  17.506
69226W        W70090   9.830  20.760  17.431
69227W        W70091   8.356  19.316  17.527
69228W        W70092   8.459  21.688  16.189
69229W        W70093   7.931  21.741  17.945
69230W        W70094   8.038  21.398  14.522
69231W        W70095  10.440  20.533  15.788
69232W        W70096   7.893  19.533  17.520
69233W        W70097  11.010  19.317  14.980
69234W        W70098   8.865  20.583  15.621
69235W        W70099   9.512  19.901  17.543
69236W        W70100   9.518  19.543  17.146
69237W        W70101   8.006  19.930  17.182
69238W        W70102  10.256  21.624  16.956
69239W        W70103  10.087  18.617  17.969
69240W        W70104   7.782  18.505  17.534
69241W        W70105   8.106  19.704  16.712
69242W        W70106   8.597  19.329  14.653
69243W        W70107   7.367  21.118  17.442
69244W        W70108   8.782  19.957  16.850
69245W        W70109   8.605  18.715  14.745
69246W        W70110   8.217  20.094  16.014
69247W        W70111   7.530  21.700  17.135
69248W        W70112  10.266  19.813  15.061
69249W        W70113  10.538  18.761  17.780
69250W        W70114  10.063  20.872  15.994
69251W        W70115   7.402  19.876  18.076
69252W        W70116  10.550  18.500  15.169
69253W        W70117  10.203  20.515  15.326
69254W        W70118   9.076  19.701  15.318
69255W        W70119   9.897  18.739  14.593
69256W        W70120  10.006  19.267  17.225
69257W        W70121   7.468  19.789  16.218
69258W        W70122   8.068  20.583  16.015
69259W        W70123   9.916  19.387  15.832
69260W        W70124   8.821  18.877  16.564
69261W        W70125  10.807  20.801  17.018
69262W        W70126  10.824  18.836  16.791
69263W        W70127   7.455  21.529  16.235
69264W        W70128   7.678  20.674  15.686
69265W        W70129   7.851  18.630  18.047
69266W        W70130   8.868  21.076  18.094
69267W        W70131  10.648  20.172  16.214
69268W        W70132   9.982  20.213  14.950
69269W        W70133   9.478  21.936  17.001
69270W        W70134  10.143  20.580  17.979
69271W        W70135   8.960  18.290  15.423
69272W        W70136   9.676  19.112  16.210
69273W        W70137   7.437  20.719  16.688
69274W        W70138   8.728  18.756  15.297
69275W        W70139   8.328  20.234  17.959
69276W        W70140   9.446  19.151  15.729
69277W        W70141   9.653  20.717  16.945
69278W        W70142   7.817  21.328  17.339
69279W        W70143   8.364  21.225  18.084
69280W        W70144   8.203  18.701  15.069
69281W        W70145   9.755  19.001  15.319
69282W        W70146   9.652  21.225  17.620
69283W        W70147   8.523  19.998  16.404
69284W        W70148   8.079  21.641  17.013
69285W        W70149  10.726  21.669  14.581
69286W        W70150   7.587  20.325  17.859
69287W        W70151   9.370  20.627  16.495
69288W        W70152   8.385  20.409  15.639
69289W        W70153   8.483  21.360  17.142
69290W        W70154   9.053  18.541  16.265
69291W        W70155   7.227  20.419  15.060
69292W        W70156   9.062  19.543  14.779
69293W        W70157   7.707  20.194  15.959
69294W        W70158   8.810  19.086  17.423
69295W        W70159  10.380  18.577  14.676
69296W        W70160  10.610  20.349  17.852
69297W        W70161   9.440  21.582  17.938
69298W        W70162  10.866  20.621  17.490
69299W        W70163  10.365  21.309  18.097
69300W        W70164   8.160  21.892  16.568
69301W        W70165  10.919  20.370  15.830
69302W        W70166   9.424  19.543  16.238
69303W        W70167   9.247  18.251  15.864
69304W        W70168   8.316  21.291  15.875
69305W        W70169   8.619  19.152  16.953
69306W        W70170   8.603  18.396  16.473
69307W        W70171   7.646  21.410  15.056
69308W        W70172   9.205  20.509  16.014
69309W        W70173   8.243  21.466  17.594
69310W        W70174   7.482  20.227  15.472
69311W        W70175   7.387  18.856  16.368
69312W        W70176   8.858  20.735  16.385
69313W        W70177   7.222  18.496  15.436
69314W        W70178   9.959  19.811  17.317
69315W        W70179   9.894  19.217  14.831
69316W        W70180  10.359  20.909  16.494
69317W        W70181   9.121  21.178  16.369
69318W        W70182   8.581  21.568  15.446
69319W        W70183   9.477  18.408  14.645
69320W        W70184   7.734  21.578  16.660
69321W        W70185   9.413  19.364  18.039
69322W        W70186   7.539  18.995  18.169
69323W        W70187   7.355  19.436  15.608
69324W        W70188   8.643  19.725  15.020
69325W        W70189   9.776  19.787  17.986
69326W        W70190   8.281  20.175  16.800
69327W        W70191   9.800  18.339  15.898
69328W        W70192   8.947  21.675  16.362
69329W        W70193  10.055  21.181  17.258
69330W        W70194   9.916  21.282  16.289
69331W        W70195   9.704  20.356  16.203
69332W        W70196   9.072  18.572  14.953
69333W        W70197  10.955  18.372  15.991
69334W        W70198   8.410  19.814  14.566
69335W        W70199  10.618  19.234  15.857
69336W        W70200   9.455  20.337  14.787
69337W        W70201  10.315  20.599  17.505
69338W        W70202  10.385  20.986  14.772
69339W        W70203   8.448  19.056  17.974
69340W        W70204   8.434  19.635  17.110
69341W        W70205  10.542  21.041  17.394
69342W        W70206   9.619  18.953  17.520
69343W        W70207   7.449  19.438  17.761
69344W        W70208   9.096  19.970  17.266
69345W        W70209   7.620  20.676  16.213
69346W        W70210   7.622  19.887  16.692
69347W        W70211  10.001  20.335  17.196
69348W        W70212   9.982  21.641  17.800
69349W        W70213   9.727  19.445  17.617
69350W        W70214  10.170  21.552  15.929
69351W        W70215   9.026  21.297  17.188
69352W        W70216   8.305  21.405  16.603
69353W        W70217  10.245  20.748  16.992
69354W        W70218   9.164  20.581  18.199
69355W        W70219   7.965  20.697  16.632
69356W        W70220  10.225  20.461  16.257
69357W        W70221   9.752  21.583  16.734
69358W        W70222   8.023  21.130  16.910
69359W        W70223   8.874  19.316  17.892
69360W        W70224   9.083  21.364  15.476
69361W        W70225   8.655  20.606  18.064
69362W        W70226   8.655  21.073  15.553
69363W        W70227   8.086  19.411  14.430
69364W        W70228   7.323  21.983  21.579
69365W        W70229   7.711  20.815  21.091
69366W        W70230  10.303  20.431  19.193
69367W        W70231  10.759  21.537  20.916
69368W        W70232   8.300  21.590  18.451
69369W        W70233   8.574  19.753  19.348
69370W        W70234   8.296  19.217  19.313
69371W        W70235   8.625  20.155  19.016
69372W        W70236   8.810  21.524  21.193
69373W        W70237   7.351  18.835  21.251
69374W        W70238   8.182  18.140  21.123
69375W        W70239   9.871  18.732  19.883
69376W        W70240   9.355  19.263  18.582
69377W        W70241   9.995  19.084  21.520
69378W        W70242   7.470  18.606  20.796
69379W        W70243   7.536  21.519  21.683
69380W        W70244   8.755  20.846  18.533
69381W        W70245   7.351  19.349  20.348
69382W        W70246   8.516  19.519  21.364
69383W        W70247  10.608  19.147  19.987
69384W        W70248  10.673  20.270  20.764
69385W        W70249   8.982  19.765  19.849
69386W        W70250   9.438  21.005  20.319
69387W        W70251   7.891  20.273  20.402
69388W        W70252   7.277  19.791  20.067
69389W        W70253   8.355  19.893  21.044
69390W        W70254  10.677  19.648  21.445
69391W        W70255   8.158  21.043  19.913
69392W        W70256   9.359  20.933  20.929
69393W        W70257   8.703  19.450  20.169
69394W        W70258   8.802  20.245  19.960
69395W        W70259   9.756  21.249  21.715
69396W        W70260   8.974  20.275  21.669
69397W        W70261   9.116  20.131  21.203
69398W        W70262   7.054  19.159  21.565
69399W        W70263  10.095  20.993  21.396
69400W        W70264   7.735  18.522  19.348
69401W        W70265   8.184  20.721  20.452
69402W        W70266  10.318  20.509  19.851
69403W        W70267  10.104  19.115  20.192
69404W        W70268  10.359  18.998  18.218
69405W        W70269  11.070  19.862  20.697
69406W        W70270   8.846  21.555  20.403
69407W        W70271  10.609  21.127  18.750
69408W        W70272   7.785  21.867  18.934
69409W        W70273   8.195  21.820  19.276
69410W        W70274   8.015  18.516  20.793
69411W        W70275  10.565  19.708  20.787
69412W        W70276   9.548  19.976  19.366
69413W        W70277   9.605  19.675  18.457
69414W        W70278   8.985  20.940  20.559
69415W        W70279   9.101  19.082  19.619
69416W        W70280   9.625  21.311  20.701
69417W        W70281  10.064  19.948  19.198
69418W        W70282   9.510  18.641  19.039
69419W        W70283   7.991  21.400  18.992
69420W        W70284   7.450  18.909  19.493
69421W        W70285  10.013  19.553  19.892
69422W        W70286   7.628  21.127  19.983
69423W        W70287   8.760  21.375  18.502
69424W        W70288  10.196  19.511  18.177
69425W        W70289   7.400  21.198  20.443
69426W        W70290   8.111  21.082  20.863
69427W        W70291   8.495  20.293  19.530
69428W        W70292   8.409  18.649  20.466
69429W        W70293  10.936  18.332  20.045
69430W        W70294   7.973  20.312  18.337
69431W        W70295   7.633  19.138  18.657
69432W        W70296   7.783  21.115  19.501
69433W        W70297   8.518  20.822  19.555
69434W        W70298  10.315  21.530  21.196
69435W        W70299  10.492  21.594  19.919
69436W        W70300  10.266  19.504  21.191
69437W        W70301  10.924  21.056  19.608
69438W        W70302   9.536  20.469  21.050
69439W        W70303   7.380  19.939  19.230
69440W        W70304   8.245  20.336  20.788
69441W        W70305   9.443  19.604  18.982
69442W        W70306   9.274  20.288  19.056
69443W        W70307   7.750  19.413  20.725
69444W        W70308   7.845  19.389  21.289
69445W        W70309   7.777  18.373  19.851
69446W        W70310   9.352  18.853  20.004
69447W        W70311   9.202  18.808  21.319
69448W        W70312   9.522  18.774  18.534
69449W        W70313  10.759  21.393  21.431
69450W        W70314   9.525  18.384  21.271
69451W        W70315  10.564  20.862  21.560
69452W        W70316  10.194  18.944  21.065
69453W        W70317   9.877  18.901  19.353
69454W        W70318  10.305  19.985  21.630
69455W        W70319   7.951  21.510  19.855
69456W        W70320   8.854  19.240  18.699
69457W        W70321   8.156  18.604  21.319
69458W        W70322  10.282  19.134  19.143
69459W        W70323  10.450  19.611  18.977
69460W        W70324   8.450  21.655  21.536
69461W        W70325   8.285  18.505  18.775
69462W        W70326  10.736  18.709  19.727
69463W        W70327  10.808  21.098  18.277
69464W        W70328   7.538  20.258  20.027
69465W        W70329   9.619  18.878  18.034
69466W        W70330  10.771  21.192  20.082
69467W        W70331  10.874  18.257  20.549
69468W        W70332   9.307  19.598  21.205
69469W        W70333   8.844  20.614  19.132
69470W        W70334   9.835  20.104  21.826
69471W        W70335   9.528  18.323  19.860
69472W        W70336   7.839  19.264  20.103
69473W        W70337   7.720  20.330  20.879
69474W        W70338   9.348  21.483  19.783
69475W        W70339  10.551  19.098  20.478
69476W        W70340   9.391  21.682  21.089
69477W        W70341  10.433  20.330  18.350
69478W        W70342   8.980  20.069  19.423
69479W        W70343  10.862  18.277  21.056
69480W        W70344   9.078  20.484  20.794
69481W        W70345   9.174  19.338  20.049
69482W        W70346   9.935  19.569  18.866
69483W        W70347  10.262  19.274  18.635
69484W        W70348  10.309  21.400  19.072
69485W        W70349   9.943  20.857  19.942
69486W        W70350   9.697  20.027  18.834
69487W        W70351   9.305  20.151  19.833
69488W        W70352  10.283  20.010  20.017
69489W        W70353   7.699  18.946  20.490
69490W        W70354  10.355  20.051  21.121
69491W        W70355  10.788  21.599  20.381
69492W        W70356   8.604  21.267  19.821
69493W        W70357   9.884  21.712  20.962
69494W        W70358   9.721  19.052  20.706
69495W        W70359   8.961  21.871  20.823
69496W        W70360  10.640  18.717  19.187
69497W        W70361  10.248  20.035  20.523
69498W        W70362   7.344  19.109  20.813
69499W        W70363  10.198  19.107  19.682
69500W        W70364  10.620  19.228  20.959
69501W        W70365   9.426  20.962  19.804
69502W        W70366   8.732  21.548  19.404
69503W        W70367   7.863  18.693  18.567
69504W        W70368   9.205  18.428  20.241
69505W        W70369   7.834  21.767  18.446
69506W        W70370   8.167  19.999  18.818
69507W        W70371   9.123  20.644  21.289
69508W        W70372   9.036  18.725  19.251
69509W        W70373  10.266  18.608  19.543
69510W        W70374   9.869  21.825  19.920
69511W        W70375   9.352  21.519  20.309
69512W        W70376   8.711  20.497  20.401
69513W        W70377  10.609  21.163  20.592
69514W        W70378   8.209  18.701  19.260
69515W        W70379   8.570  21.003  20.268
69516W        W70380   8.054  19.085  18.303
69517W        W70381   9.037  19.467  20.586
69518W        W70382   9.654  18.687  20.369
69519W        W70383   7.366  20.343  20.514
69520W        W70384   8.680  19.856  18.579
69521W        W70385   8.290  18.497  18.241
69522W        W70386   9.174  19.561  19.426
69523W        W70387   9.899  18.481  20.904
69524W        W70388   8.670  20.409  21.138
69525W        W70389   9.469  20.354  21.536
69526W        W70390   9.935  20.268  21.341
69527W        W70391   9.155  18.411  21.659
69528W        W70392   8.347  19.115  19.970
69529W        W70393   7.945  18.929  19.658
69530W        W70394   7.730  21.633  19.406
69531W        W70395   9.240  21.230  21.352
69532W        W70396   7.906  20.676  18.726
69533W        W70397   9.768  20.049  20.055
69534W        W70398   9.899  19.664  20.377
69535W        W70399   9.220  20.272  20.337
69536W        W70400   9.804  20.786  18.325
69537W        W70401   9.453  18.713  19.540
69538W        W70402  10.770  19.180  18.958
69539W        W70403   7.538  21.735  21.183
69540W        W70404   7.686  20.773  20.576
69541W        W70405   7.326  21.797  19.118
69542W        W70406   9.209  18.986  20.470
69543W        W70407   8.335  21.134  18.707
69544W        W70408  10.518  21.628  18.654
69545W        W70409   9.208  19.948  18.654
69546W        W70410   8.816  19.247  19.211
69547W        W70411   9.046  19.018  18.258
69548W        W70412   9.593  20.839  21.417
69549W        W70413  10.149  18.623  19.013
69550W        W70414   7.415  18.492  18.418
69551W        W70415   8.550  20.777  20.788
69552W        W70416   8.386  20.565  19.994
69553W        W70417   8.260  20.771  18.362
69554W        W70418   7.480  21.283  19.105
69555W        W70419   8.094  19.777  21.501
69556W        W70420   8.583  18.308  21.409
69557W        W70421   9.388  18.634  20.829
69558W        W70422   8.624  18.417  19.387
69559W        W70423   9.800  18.341  18.741
69560W        W70424   7.717  18.426  20.381
69561W        W70425   7.426  19.323  19.813
69562W        W70426  10.367  18.648  20.097
69563W        W70427   7.804  19.018  19.140
69564W        W70428  10.160  18.782  20.578
69565W        W70429  10.556  19.796  18.401
69566W        W70430   8.028  18.764  20.153
69567W        W70431   9.273  19.157  20.957
69568W        W70432   7.158  18.914  18.518
69569W        W70433   8.051  20.235  21.266
69570W        W70434   9.370  19.767  20.269
69571W        W70435   9.228  21.839  18.358
69572W        W70436   7.454  20.323  18.351
69573W        W70437   8.239  20.698  21.186
69574W        W70438   7.763  19.843  21.065
69575W        W70439   8.706  20.116  20.737
69576W        W70440  10.382  18.320  20.730
69577W        W70441  10.875  20.021  21.151
69578W        W70442  10.394  20.095  18.816
69579W        W70443   9.479  20.411  18.577
69580W        W70444  10.193  21.753  18.283
69581W        W70445   9.410  19.868  21.638
69582W        W70446   7.936  20.897  21.558
69583W        W70447  10.865  18.819  21.660
69584W        W70448  10.381  19.547  20.288
69585W        W70449   8.924  21.664  21.763
69586W        W70450   8.710  18.394  18.512
69587W        W70451  10.332  20.852  18.382
69588W        W70452   8.254  19.092  21.363
69589W        W70453   8.838  21.022  21.111
69590W        W70454  10.658  18.732  20.815
69591W        W70455  10.073  21.843  18.811
69592W        W70456  10.026  20.456  20.305
69593W        W70457   8.340  18.913  20.900
69594W        W70458   8.931  19.764  21.533
69595W        W70459   8.134  20.918  19.161
69596W        W70460   9.797  20.427  19.127
69597W        W70461   7.828  18.958  20.998
69598W        W70462   8.988  21.091  19.530
69599W        W70463  10.654  19.672  19.870
69600W        W70464   9.011  18.373  21.162
69601W        W70465   9.934  20.958  20.446
69602W        W70466  10.243  21.371  20.301
69603W        W70467   9.388  21.046  18.058
69604W        W70468   7.418  21.039  21.465
69605W        W70469   8.170  19.161  20.487
69606W        W70470   8.308  18.569  19.780
69607W        W70471   9.619  19.256  20.253
69608W        W70472   8.467  20.305  18.463
69609W        W70473  10.543  20.409  20.301
69610W        W70474   7.837  21.314  21.282
69611W        W70475  10.372  21.886  19.245
69612W        W70476   8.626  18.894  19.549
69613W        W70477   8.040  20.189  19.889
69614W        W70478   8.512  21.920  20.554
69615W        W70479  10.460  21.877  21.552
69616W        W70480   9.668  20.082  20.564
69617W        W70481   7.713  19.906  18.514
69618W        W70482  10.654  21.467  19.459
69619W        W70483  10.501  18.835  18.693
69620W        W70484   8.536  18.458  20.936
69621W        W70485  10.402  21.078  19.729
69622W        W70486  10.316  19.567  19.475
69623W        W70487   8.685  19.385  19.677
69624W        W70488   8.847  19.725  21.028
69625W        W70489   9.877  20.838  20.951
69626W        W70490   8.720  19.243  20.979
69627W        W70491   8.404  21.726  19.764
69628W        W70492   7.946  21.794  21.475
69629W        W70493   7.926  21.218  18.395
69630W        W70494  10.552  20.964  19.238
69631W        W70495   8.214  19.409  20.946
69632W        W70496  10.734  19.287  18.435
69633W        W70497   8.422  20.632  18.848
69634W        W70498   9.590  19.982  21.080
69635W        W70499   9.533  19.555  20.716
69636W        W70500   8.051  19.839  20.634
69637W        W70501  10.327  21.712  20.702
69638W        W70502  10.025  18.554  21.418
69639W        W70503   7.700  18.375  21.204
69640W        W70504   8.227  19.593  20.211
69641W        W70505   8.485  19.398  18.379
69642W        W70506   7.307  21.154  20.982
69643W        W70507   8.871  19.896  20.325
69644W        W70508   8.556  18.886  18.460
69645W        W70509   8.098  19.936  19.433
69646W        W70510   7.556  21.877  20.701
69647W        W70511  10.058  19.911  18.481
69648W        W70512  10.546  18.632  21.303
69649W        W70513  10.060  20.783  19.451
69650W        W70514   7.423  19.848  21.461
69651W        W70515  10.636  18.350  18.724
69652W        W70516  10.153  20.878  18.911
69653W        W70517   8.935  19.699  18.994
69654W        W70518  10.033  18.729  18.491
69655W        W70519  10.153  19.328  20.705
69656W        W70520   7.620  19.807  19.679
69657W        W70521   8.035  20.644  19.599
69658W        W70522   9.812  19.500  19.369
69659W        W70523   8.831  18.931  20.046
69660W        W70524  10.887  20.731  20.575
69661W        W70525  10.901  18.750  20.344
69662W        W70526   7.408  21.578  19.809
69663W        W70527   7.666  20.715  19.189
69664W        W70528   7.753  18.476  21.715
69665W        W70529   8.787  21.210  21.609
69666W        W70530  10.790  20.193  19.900
69667W        W70531  10.030  20.431  18.660
69668W        W70532   9.428  21.921  20.602
69669W        W70533  10.192  20.506  21.715
69670W        W70534   8.917  18.296  18.981
69671W        W70535   9.645  19.176  19.736
69672W        W70536   7.349  20.738  20.180
69673W        W70537   8.624  18.828  18.986
69674W        W70538   8.525  20.072  21.496
69675W        W70539   9.442  19.150  19.247
69676W        W70540   9.580  20.590  20.569
69677W        W70541   7.706  21.399  20.797
69678W        W70542   8.355  21.173  21.338
69679W        W70543   8.195  19.040  18.805
69680W        W70544   9.838  19.051  18.863
69681W        W70545   9.732  21.294  21.201
69682W        W70546   8.471  19.861  19.846
69683W        W70547   8.047  21.708  20.596
69684W        W70548  10.757  21.603  18.227
69685W        W70549   7.552  20.351  21.365
69686W        W70550   9.570  20.532  20.058
69687W        W70551   8.119  20.386  19.168
69688W        W70552   8.570  21.309  20.755
69689W        W70553   9.001  18.556  19.740
69690W        W70554   7.351  20.599  18.767
69691W        W70555   9.028  19.581  18.322
69692W        W70556   7.698  20.267  19.471
69693W        W70557   8.909  18.784  20.846
69694W        W70558  10.592  18.546  18.251
69695W        W70559  10.631  20.351  21.479
69696W        W70560   9.419  21.643  21.613
69697W        W70561  10.835  20.649  21.095
69698W        W70562  10.313  21.352  21.686
69699W        W70563   8.102  21.922  20.143
69700W        W70564  10.691  20.569  19.521
69701W        W70565   9.515  19.669  19.792
69702W        W70566   9.248  18.245  19.394
69703W        W70567   8.252  21.330  19.449
69704W        W70568   8.676  19.085  20.507
69705W        W70569   8.704  18.396  20.136
69706W        W70570   7.444  21.520  18.658
69707W        W70571   8.990  20.564  19.613
69708W        W70572   8.231  21.588  21.061
69709W        W70573   7.690  20.238  18.927
69710W        W70574   7.549  18.828  20.000
69711W        W70575   9.070  20.696  20.097
69712W        W70576   7.463  18.688  18.909
69713W        W70577   9.993  19.785  20.873
69714W        W70578   9.828  19.205  18.360
69715W        W70579  10.388  20.881  20.208
69716W        W70580   9.028  21.200  20.076
69717W        W70581   8.500  21.575  18.936
69718W        W70582   9.711  18.388  18.236
69719W        W70583   7.654  21.629  20.260
69720W        W70584   9.494  19.224  21.503
69721W        W70585   7.780  18.933  21.510
69722W        W70586   7.486  19.428  19.297
69723W        W70587   8.454  19.508  18.901
69724W        W70588   9.882  19.753  21.430
69725W        W70589   8.381  20.102  20.308
69726W        W70590   9.818  18.380  19.405
69727W        W70591   8.893  21.721  19.922
69728W        W70592  10.131  21.255  20.809
69729W        W70593   9.772  21.325  20.071
69730W        W70594   9.501  20.513  19.532
69731W        W70595   9.034  18.737  18.687
69732W        W70596  10.968  18.326  19.437
69733W        W70597   8.229  19.858  18.332
69734W        W70598  10.687  19.181  19.477
69735W        W70599   8.938  20.381  18.655
69736W        W70600  10.309  20.586  21.176
69737W        W70601  10.134  21.298  18.573
69738W        W70602   8.681  18.817  21.308
69739W        W70603   8.539  19.624  20.623
69740W        W70604  10.528  21.065  21.087
69741W        W70605   9.687  18.867  21.171
69742W        W70606   7.353  19.400  21.216
69743W        W70607   9.200  19.949  20.734
69744W        W70608   7.524  20.679  19.697
69745W        W70609   7.779  19.812  20.171
69746W        W70610  10.002  20.348  20.836
69747W        W70611   9.948  21.707  21.511
69748W        W70612   9.786  19.363  21.109
69749W        W70613  10.133  21.545  19.560
69750W        W70614   9.114  21.370  20.800
69751W        W70615   8.360  21.482  20.231
69752W        W70616  10.349  20.718  20.689
69753W        W70617   9.184  20.742  21.788
69754W        W70618   7.854  20.667  20.080
69755W        W70619   9.948  20.252  19.608
69756W        W70620   9.855  21.683  20.443
69757W        W70621   7.950  21.196  20.376
69758W        W70622   8.978  19.259  21.411
69759W        W70623   8.997  21.389  18.974
69760W        W70624   8.687  20.725  21.528
69761W        W70625   8.616  21.095  19.135
69762W        W70626   8.014  19.498  18.633
69763W        W70627   7.314  21.976  25.364
69764W        W70628   7.751  20.789  25.001
69765W        W70629  10.335  20.409  22.694
69766W        W70630  10.951  21.527  24.645
69767W        W70631   8.220  21.706  22.356
69768W        W70632   8.635  19.871  23.357
69769W        W70633   8.346  19.481  23.597
69770W        W70634   9.234  20.047  22.534
69771W        W70635   8.799  21.588  24.900
69772W        W70636   7.310  19.049  24.983
69773W        W70637   7.885  18.361  24.853
69774W        W70638  10.009  18.821  23.989
69775W        W70639   9.566  19.112  22.012
69776W        W70640   9.902  19.158  25.253
69777W        W70641   7.437  18.769  24.569
69778W        W70642   7.534  21.540  25.516
69779W        W70643   8.820  21.022  22.089
69780W        W70644   7.450  19.427  23.978
69781W        W70645   8.425  19.526  25.237
69782W        W70646  10.819  19.046  23.706
69783W        W70647  10.536  20.351  24.557
69784W        W70648   8.986  19.837  23.721
69785W        W70649   9.593  21.122  24.047
69786W        W70650   7.786  20.358  24.244
69787W        W70651   7.192  19.855  23.878
69788W        W70652   8.386  19.944  24.933
69789W        W70653  10.667  19.811  25.268
69790W        W70654   8.204  21.141  23.703
69791W        W70655   9.317  20.927  24.700
69792W        W70656   8.682  19.497  23.995
69793W        W70657   8.772  20.300  23.783
69794W        W70658   9.386  21.239  25.510
69795W        W70659   8.922  20.323  25.513
69796W        W70660   8.882  20.217  25.007
69797W        W70661   7.232  19.343  25.411
69798W        W70662  10.022  20.937  25.222
69799W        W70663   7.646  18.351  23.128
69800W        W70664   8.306  20.857  24.303
69801W        W70665  10.686  20.764  23.586
69802W        W70666  10.498  18.896  24.082
69803W        W70667  10.357  18.778  21.759
69804W        W70668  11.053  19.708  24.340
69805W        W70669   8.808  21.660  24.162
69806W        W70670  10.741  21.210  22.538
69807W        W70671   7.856  21.901  22.678
69808W        W70672   8.171  21.848  23.093
69809W        W70673   7.905  18.614  24.404
69810W        W70674  10.443  19.424  24.605
69811W        W70675   9.850  19.858  23.213
69812W        W70676   9.740  19.570  21.889
69813W        W70677   9.138  20.898  24.225
69814W        W70678   9.386  18.934  23.683
69815W        W70679   9.616  21.303  24.517
69816W        W70680  10.331  20.006  23.034
69817W        W70681   9.771  18.503  22.992
69818W        W70682   8.013  21.424  22.833
69819W        W70683   7.341  18.743  23.004
69820W        W70684   9.936  19.545  23.627
69821W        W70685   7.691  21.182  23.785
69822W        W70686   8.515  21.448  22.007
69823W        W70687  10.246  19.489  21.709
69824W        W70688   7.488  21.229  24.279
69825W        W70689   8.190  20.994  24.792
69826W        W70690   8.412  20.351  23.419
69827W        W70691   8.397  18.711  24.316
69828W        W70692  10.867  18.519  23.803
69829W        W70693   8.256  20.488  21.667
69830W        W70694   7.691  18.921  22.020
69831W        W70695   7.858  21.216  23.303
69832W        W70696   8.533  20.879  23.363
69833W        W70697  10.479  21.627  24.815
69834W        W70698   9.532  19.217  22.726
69835W        W70699  10.527  21.763  23.535
69836W        W70700  10.055  19.528  24.931
69837W        W70701  10.984  21.133  23.393
69838W        W70702   9.489  20.420  24.800
69839W        W70703   7.330  19.967  23.065
69840W        W70704   8.130  20.491  24.602
69841W        W70705   9.556  19.726  22.801
69842W        W70706   9.437  20.168  23.088
69843W        W70707   7.759  19.542  24.428
69844W        W70708   7.710  19.441  25.173
69845W        W70709   7.572  18.429  23.624
69846W        W70710   9.524  18.686  24.100
69847W        W70711   9.082  18.828  25.133
69848W        W70712   9.816  18.902  22.417
69849W        W70713  10.852  21.523  25.167
69850W        W70714   9.443  18.464  25.066
69851W        W70715  10.540  20.852  25.312
69852W        W70716  10.147  19.018  24.806
69853W        W70717  10.115  18.866  23.158
69854W        W70718  10.138  20.009  25.297
69855W        W70719   8.010  21.622  23.581
69856W        W70720   9.188  19.055  22.344
69857W        W70721   8.205  18.598  25.200
69858W        W70722  10.132  19.150  22.729
69859W        W70723  10.543  19.491  22.845
69860W        W70724   8.503  21.667  25.319
69861W        W70725   8.064  18.036  22.447
69862W        W70726  10.399  18.729  23.587
69863W        W70727  10.801  21.117  21.937
69864W        W70728   7.463  20.291  23.828
69865W        W70729   9.591  18.744  21.652
69866W        W70730  10.849  21.167  23.912
69867W        W70731  10.729  18.472  24.354
69868W        W70732   9.262  19.866  25.069
69869W        W70733   9.126  20.525  22.810
69870W        W70734   9.751  20.123  25.630
69871W        W70735   9.519  18.208  23.852
69872W        W70736   7.896  19.241  23.770
69873W        W70737   7.580  20.404  24.718
69874W        W70738   9.563  21.521  23.679
69875W        W70739  10.684  19.374  24.147
69876W        W70740   9.328  21.648  24.762
69877W        W70741  10.514  20.216  22.035
69878W        W70742   9.186  19.736  23.244
69879W        W70743  10.802  18.495  24.876
69880W        W70744   9.024  20.520  24.613
69881W        W70745   9.207  19.412  23.908
69882W        W70746  10.068  19.661  22.760
69883W        W70747  10.374  19.404  22.355
69884W        W70748  10.343  21.421  22.776
69885W        W70749   9.908  20.745  23.909
69886W        W70750   9.695  19.934  22.316
69887W        W70751   9.259  20.266  23.604
69888W        W70752   9.994  20.047  23.670
69889W        W70753   7.726  19.054  24.224
69890W        W70754  10.392  19.922  24.851
69891W        W70755  10.864  21.658  24.114
69892W        W70756   8.690  21.304  23.618
69893W        W70757   9.824  21.774  24.681
69894W        W70758   9.767  18.998  24.441
69895W        W70759   8.948  21.955  24.572
69896W        W70760  10.580  18.625  23.085
69897W        W70761  10.568  19.870  24.376
69898W        W70762   7.302  19.249  24.440
69899W        W70763  10.336  19.234  23.729
69900W        W70764  10.547  19.237  25.073
69901W        W70765   9.627  21.017  23.518
69902W        W70766   8.858  21.540  23.177
69903W        W70767   7.904  18.481  22.204
69904W        W70768   8.893  18.599  24.270
69905W        W70769   7.773  21.789  22.081
69906W        W70770   8.918  20.088  22.977
69907W        W70771   8.991  20.733  25.094
69908W        W70772   9.336  18.497  23.359
69909W        W70773  10.172  18.362  23.295
69910W        W70774  10.027  21.788  23.710
69911W        W70775   9.304  21.556  24.134
69912W        W70776   8.726  20.589  24.206
69913W        W70777  10.551  21.314  24.400
69914W        W70778   7.958  18.485  22.727
69915W        W70779   8.696  21.127  24.091
69916W        W70780   8.183  18.794  21.818
69917W        W70781   9.019  19.544  24.389
69918W        W70782   9.896  18.339  24.182
69919W        W70783   7.283  20.252  24.305
69920W        W70784   9.013  19.882  22.038
69921W        W70785   8.214  18.276  21.748
69922W        W70786   9.478  19.374  23.463
69923W        W70787   9.759  18.515  24.652
69924W        W70788   8.521  20.593  24.932
69925W        W70789   9.381  20.328  25.298
69926W        W70790   9.874  20.440  25.145
69927W        W70791   9.191  18.481  25.524
69928W        W70792   8.366  19.079  23.951
69929W        W70793   7.710  18.849  23.362
69930W        W70794   7.682  21.685  23.175
69931W        W70795   9.145  21.248  25.059
69932W        W70796   8.597  20.765  22.482
69933W        W70797   9.651  20.267  23.964
69934W        W70798   9.809  19.762  24.060
69935W        W70799   9.172  20.355  24.144
69936W        W70800   9.718  20.621  21.903
69937W        W70801   9.789  18.569  23.594
69938W        W70802  10.619  18.987  22.731
69939W        W70803   7.564  21.667  25.005
69940W        W70804   7.776  20.845  24.477
69941W        W70805   7.344  21.854  22.820
69942W        W70806   9.247  19.071  24.294
69943W        W70807   8.362  21.222  22.479
69944W        W70808  10.571  21.723  22.398
69945W        W70809   9.353  19.554  22.314
69946W        W70810   9.154  19.228  23.093
69947W        W70811   9.105  18.930  21.818
69948W        W70812   9.500  20.824  25.165
69949W        W70813  10.194  18.626  22.712
69950W        W70814   7.383  18.333  22.093
69951W        W70815   8.727  20.931  24.596
69952W        W70816   8.399  20.678  23.819
69953W        W70817   8.368  20.977  21.841
69954W        W70818   7.489  21.295  22.893
69955W        W70819   7.991  19.853  25.289
69956W        W70820   8.716  18.528  25.372
69957W        W70821   9.233  18.673  24.642
69958W        W70822   8.789  18.346  23.437
69959W        W70823   9.799  18.391  22.452
69960W        W70824   7.496  18.541  24.118
69961W        W70825   7.483  19.318  23.459
69962W        W70826  10.373  18.406  23.992
69963W        W70827   7.522  18.699  22.490
69964W        W70828  10.217  18.661  24.436
69965W        W70829  10.625  19.698  21.987
69966W        W70830   7.949  18.725  23.884
69967W        W70831   9.079  19.197  24.774
69968W        W70832   7.063  18.693  22.265
69969W        W70833   8.019  20.299  25.042
69970W        W70834   9.311  19.870  24.112
69971W        W70835   9.214  21.735  22.181
69972W        W70836   7.037  19.885  21.850
69973W        W70837   8.173  20.731  25.280
69974W        W70838   7.717  19.909  24.833
69975W        W70839   8.594  20.227  24.571
69976W        W70840  10.277  18.341  24.825
69977W        W70841  10.890  20.131  24.859
69978W        W70842  10.441  19.928  22.515
69979W        W70843   9.580  20.433  22.461
69980W        W70844  10.197  21.766  21.990
69981W        W70845   9.274  19.891  25.574
69982W        W70846   7.732  20.768  25.538
69983W        W70847  10.930  18.880  25.445
69984W        W70848  10.321  19.715  23.947
69985W        W70849   9.003  21.684  25.431
69986W        W70850   8.716  18.121  21.871
69987W        W70851  10.439  20.754  22.110
69988W        W70852   8.098  19.127  25.155
69989W        W70853   8.618  21.121  25.055
69990W        W70854  10.646  18.940  24.582
69991W        W70855  10.096  21.861  22.504
69992W        W70856  10.156  20.176  24.166
69993W        W70857   8.192  18.829  24.762
69994W        W70858   8.798  19.849  25.354
69995W        W70859   8.190  20.939  22.968
69996W        W70860   9.887  20.140  22.761
69997W        W70861   7.762  19.141  24.740
69998W        W70862   9.025  21.037  23.308
69999W        W70863  10.741  19.544  23.648
70000W        W70864   8.958  18.269  24.998
70001W        W70865  10.061  21.172  24.279
70002W        W70866  10.395  21.505  23.963
70003W        W70867   9.233  21.257  21.889
70004W        W70868   7.433  21.093  25.283
70005W        W70869   8.188  19.206  24.424
70006W        W70870   8.062  18.462  23.432
70007W        W70871   9.678  19.242  23.986
70008W        W70872   8.671  20.528  22.004
70009W        W70873  10.691  20.493  24.043
70010W        W70874   7.906  21.259  25.194
70011W        W70875  10.496  21.891  22.900
70012W        W70876   8.954  18.852  23.416
70013W        W70877   7.984  20.303  23.753
70014W        W70878   8.463  21.995  24.383
70015W        W70879  10.489  21.883  25.260
70016W        W70880   9.640  20.084  24.439
70017W        W70881   7.525  19.340  21.704
70018W        W70882  10.730  21.499  23.143
70019W        W70883  10.376  18.839  22.285
70020W        W70884   8.406  18.341  24.722
70021W        W70885  10.497  21.246  23.535
70022W        W70886  10.314  19.561  23.297
70023W        W70887   8.876  19.375  23.515
70024W        W70888   8.828  19.683  24.858
70025W        W70889   9.828  20.829  24.741
70026W        W70890   8.534  19.240  24.832
70027W        W70891   8.514  21.768  23.482
70028W        W70892   7.991  21.787  25.275
70029W        W70893   8.055  21.391  21.766
70030W        W70894  10.570  21.005  23.073
70031W        W70895   8.095  19.538  24.825
70032W        W70896  10.623  19.176  21.954
70033W        W70897   8.568  20.563  22.954
70034W        W70898   9.754  19.962  24.933
70035W        W70899   9.547  19.506  24.421
70036W        W70900   8.087  19.965  24.475
70037W        W70901  10.238  21.763  24.380
70038W        W70902   9.936  18.646  25.114
70039W        W70903   7.721  18.770  25.090
70040W        W70904   8.149  19.586  24.079
70041W        W70905   8.604  19.152  21.745
70042W        W70906   7.383  21.079  24.769
70043W        W70907   8.793  19.976  24.182
70044W        W70908   8.676  18.627  21.785
70045W        W70909   8.083  19.940  23.403
70046W        W70910   7.563  21.797  24.496
70047W        W70911  10.144  19.807  22.113
70048W        W70912  10.447  18.732  25.171
70049W        W70913  10.160  20.863  23.455
70050W        W70914   7.435  19.864  25.265
70051W        W70915  10.668  18.499  22.553
70052W        W70916  10.303  20.929  22.597
70053W        W70917   9.058  19.597  22.738
70054W        W70918   9.950  18.625  22.004
70055W        W70919  10.140  19.296  24.211
70056W        W70920   7.573  19.837  23.542
70057W        W70921   8.045  20.728  23.443
70058W        W70922   9.866  19.350  23.122
70059W        W70923   8.892  18.995  23.907
70060W        W70924  10.688  20.826  24.445
70061W        W70925  10.990  18.893  24.154
70062W        W70926   7.415  21.561  23.597
70063W        W70927   7.696  20.805  23.066
70064W        W70928   7.786  18.544  25.553
70065W        W70929   8.863  21.193  25.505
70066W        W70930  10.470  19.991  23.531
70067W        W70931  10.053  20.321  22.247
70068W        W70932   9.454  21.978  24.366
70069W        W70933  10.189  20.519  25.539
70070W        W70934   8.566  17.936  22.462
70071W        W70935   9.887  19.058  23.559
70072W        W70936   7.408  20.732  24.109
70073W        W70937   8.414  18.386  22.205
70074W        W70938   8.449  20.261  25.328
70075W        W70939   9.567  18.930  23.185
70076W        W70940   9.591  20.640  24.324
70077W        W70941   7.811  21.343  24.676
70078W        W70942   8.335  21.174  25.475
70079W        W70943   8.693  18.914  22.201
70080W        W70944   9.846  19.429  22.372
70081W        W70945   9.678  21.289  25.020
70082W        W70946   8.411  19.944  23.817
70083W        W70947   8.063  21.690  24.394
70084W        W70948  10.700  21.609  21.924
70085W        W70949   7.567  20.352  25.250
70086W        W70950   9.391  20.700  23.830
70087W        W70951   8.064  20.420  23.032
70088W        W70952   8.474  21.376  24.473
70089W        W70953   9.109  18.525  23.816
70090W        W70954   7.001  20.315  22.839
70091W        W70955   9.194  19.440  21.843
70092W        W70956   7.666  20.300  23.338
70093W        W70957   8.722  18.752  24.767
70094W        W70958  10.708  18.497  22.020
70095W        W70959  10.489  20.341  25.141
70096W        W70960   9.480  21.697  25.253
70097W        W70961  10.848  20.655  24.935
70098W        W70962  10.367  21.362  25.267
70099W        W70963   8.069  21.970  23.971
70100W        W70964  10.449  20.490  23.218
70101W        W70965   9.518  19.843  23.639
70102W        W70966   9.181  18.018  23.511
70103W        W70967   8.348  21.359  23.231
70104W        W70968   8.717  19.119  24.372
70105W        W70969   8.555  18.559  23.849
70106W        W70970   7.301  21.690  22.334
70107W        W70971   8.918  20.507  23.315
70108W        W70972   8.247  21.515  24.901
70109W        W70973   7.554  20.366  22.827
70110W        W70974   7.455  18.930  23.797
70111W        W70975   8.890  20.790  23.749
70112W        W70976   7.141  18.390  22.683
70113W        W70977  10.060  19.775  24.490
70114W        W70978  10.073  19.138  22.021
70115W        W70979  10.391  20.944  23.962
70116W        W70980   9.164  21.207  23.789
70117W        W70981   8.515  21.612  22.794
70118W        W70982   9.680  18.252  21.766
70119W        W70983   7.691  21.634  24.021
70120W        W70984   9.405  19.323  25.419
70121W        W70985   7.674  19.070  25.513
70122W        W70986   7.063  19.564  22.870
70123W        W70987   8.838  19.418  22.208
70124W        W70988   9.762  19.673  25.362
70125W        W70989   8.303  20.308  24.154
70126W        W70990   9.699  18.121  23.342
70127W        W70991   9.027  21.709  23.684
70128W        W70992  10.143  21.243  24.786
70129W        W70993  10.009  21.259  23.758
70130W        W70994   9.747  20.472  23.490
70131W        W70995   9.430  18.615  22.119
70132W        W70996  10.933  18.327  23.287
70133W        W70997   8.531  19.668  21.852
70134W        W70998  10.563  19.116  23.259
70135W        W70999   9.371  20.243  22.028
70136W        W71000  10.327  20.736  24.843
70137W        W71001  10.362  21.291  22.199
70138W        W71002   8.571  18.999  25.292
70139W        W71003   8.495  19.637  24.472
70140W        W71004  10.661  21.138  24.882
70141W        W71005   9.561  18.951  24.920
70142W        W71006   7.348  19.547  24.852
70143W        W71007   9.136  20.021  24.583
70144W        W71008   7.567  20.727  23.601
70145W        W71009   7.712  19.888  24.047
70146W        W71010  10.040  20.305  24.680
70147W        W71011   9.997  21.750  25.174
70148W        W71012   9.540  19.459  24.935
70149W        W71013  10.157  21.542  23.262
70150W        W71014   9.026  21.328  24.503
70151W        W71015   8.360  21.551  23.966
70152W        W71016  10.176  20.671  24.346
70153W        W71017   9.169  20.764  25.579
70154W        W71018   7.920  20.768  23.973
70155W        W71019  10.295  20.449  23.730
70156W        W71020   9.812  21.597  24.138
70157W        W71021   8.002  21.237  24.189
70158W        W71022   8.927  19.360  25.253
70159W        W71023   8.838  21.436  22.421
70160W        W71024   8.630  20.737  25.506
70161W        W71025   8.678  21.111  22.898
70162W        W71026   8.066  19.316  21.774
70163W        W71027   7.430  21.938  28.823
70164W        W71028   7.816  20.884  28.576
70165W        W71029  10.540  20.347  26.396
70166W        W71030  10.740  21.509  28.209
70167W        W71031   8.416  21.547  25.799
70168W        W71032   8.536  19.737  26.664
70169W        W71033   7.954  19.513  26.895
70170W        W71034   8.913  20.157  26.307
70171W        W71035   8.863  21.608  28.488
70172W        W71036   7.577  19.084  28.537
70173W        W71037   8.039  18.340  28.279
70174W        W71038   9.875  18.724  27.332
70175W        W71039   9.588  19.587  25.834
70176W        W71040  10.150  19.018  28.893
70177W        W71041   7.618  18.684  28.130
70178W        W71042   7.540  21.141  28.935
70179W        W71043   8.871  20.583  25.985
70180W        W71044   7.461  19.455  27.571
70181W        W71045   8.391  19.615  28.802
70182W        W71046  10.584  19.174  27.396
70183W        W71047  10.533  20.325  28.119
70184W        W71048   8.890  19.600  27.076
70185W        W71049   9.493  21.099  27.712
70186W        W71050   7.910  20.401  27.959
70187W        W71051   7.164  19.941  27.592
70188W        W71052   8.434  20.035  28.478
70189W        W71053  10.653  19.724  28.807
70190W        W71054   8.149  21.194  27.280
70191W        W71055   9.457  20.977  28.239
70192W        W71056   8.654  19.322  27.524
70193W        W71057   8.753  20.368  27.277
70194W        W71058   9.572  21.246   0.071
70195W        W71059   8.870  20.480  28.964
70196W        W71060   8.957  20.172  28.565
70197W        W71061   7.379  19.295  28.971
70198W        W71062  10.038  21.026  28.908
70199W        W71063   7.766  18.532  26.708
70200W        W71064   8.412  21.037  27.761
70201W        W71065  10.798  20.695  27.220
70202W        W71066  10.071  19.120  27.619
70203W        W71067  10.454  19.084  25.584
70204W        W71068  10.878  19.767  27.981
70205W        W71069   8.873  21.613  27.685
70206W        W71070  10.787  20.945  26.396
70207W        W71071   7.806  21.919  26.225
70208W        W71072   8.207  21.690  26.612
70209W        W71073   8.124  18.572  27.832
70210W        W71074  10.674  19.482  28.327
70211W        W71075   9.885  19.889  26.930
70212W        W71076  10.093  19.768  25.794
70213W        W71077   9.231  20.691  27.872
70214W        W71078   8.907  19.085  27.095
70215W        W71079   9.705  21.402  28.079
70216W        W71080  10.371  20.009  26.759
70217W        W71081   9.479  18.908  26.377
70218W        W71082   8.059  21.442  26.166
70219W        W71083   7.423  18.901  26.749
70220W        W71084   9.910  19.563  27.343
70221W        W71085   7.639  21.209  27.239
70222W        W71086   8.918  21.496  25.919
70223W        W71087  10.257  19.513  25.390
70224W        W71088   7.414  21.271  27.926
70225W        W71089   8.198  20.845  28.212
70226W        W71090   8.816  20.185  26.804
70227W        W71091   8.656  18.615  27.866
70228W        W71092  10.851  18.423  27.473
70229W        W71093   7.989  20.310  25.575
70230W        W71094   7.811  19.214  25.984
70231W        W71095   7.970  21.147  26.785
70232W        W71096   8.746  20.708  26.870
70233W        W71097  10.264  21.358  28.568
70234W        W71098   9.245  19.369  26.300
70235W        W71099  10.531  21.818  27.109
70236W        W71100  10.233  19.572  28.543
70237W        W71101  10.960  21.071  26.874
70238W        W71102   9.447  20.423  28.299
70239W        W71103   7.433  19.885  26.724
70240W        W71104   8.406  20.405  28.084
70241W        W71105   9.557  19.710  26.536
70242W        W71106   9.427  20.087  26.839
70243W        W71107   7.912  19.477  27.864
70244W        W71108   7.885  19.399  28.829
70245W        W71109   7.666  18.335  27.161
70246W        W71110   9.513  18.823  27.668
70247W        W71111   9.134  18.873  28.778
70248W        W71112   9.455  19.100  25.895
70249W        W71113  10.780  21.249  28.722
70250W        W71114   9.652  18.319  28.639
70251W        W71115  10.535  20.823  28.889
70252W        W71116  10.251  19.079  28.365
70253W        W71117   9.736  18.859  26.845
70254W        W71118  10.254  20.028   0.077
70255W        W71119   7.878  21.618  27.031
70256W        W71120   8.846  19.112  26.118
70257W        W71121   8.254  18.490  28.744
70258W        W71122  10.186  19.178  26.566
70259W        W71123  10.553  19.564  26.540
70260W        W71124   8.480  21.581  28.848
70261W        W71125   8.294  18.297  26.142
70262W        W71126  10.659  18.744  27.101
70263W        W71127  10.845  21.199  25.573
70264W        W71128   7.671  20.359  27.425
70265W        W71129   9.543  18.836  25.437
70266W        W71130  10.894  21.157  27.421
70267W        W71131  10.881  18.359  27.987
70268W        W71132   9.341  19.408  28.737
70269W        W71133   9.081  20.610  26.482
70270W        W71134   9.727  20.178   0.100
70271W        W71135   9.597  18.337  27.537
70272W        W71136   7.980  19.274  27.360
70273W        W71137   7.546  20.497  28.356
70274W        W71138   9.405  21.768  27.175
70275W        W71139  10.520  19.204  27.919
70276W        W71140   9.423  21.682  28.398
70277W        W71141  10.481  20.116  25.666
70278W        W71142   9.063  19.761  26.620
70279W        W71143  10.876  18.495  28.475
70280W        W71144   8.912  20.425  28.147
70281W        W71145   9.168  19.354  27.468
70282W        W71146  10.065  19.689  26.484
70283W        W71147  10.340  19.355  26.105
70284W        W71148  10.420  21.294  26.546
70285W        W71149   9.891  20.762  27.434
70286W        W71150   9.770  19.948  26.136
70287W        W71151   9.137  20.036  27.239
70288W        W71152  10.284  19.973  27.280
70289W        W71153   7.750  18.980  27.717
70290W        W71154  10.326  20.088  28.554
70291W        W71155  10.839  21.609  27.692
70292W        W71156   8.681  21.256  27.329
70293W        W71157   9.957  21.743  28.409
70294W        W71158   9.793  18.987  28.087
70295W        W71159   9.045  21.911  28.082
70296W        W71160  10.511  18.783  26.595
70297W        W71161  10.357  19.842  28.093
70298W        W71162   7.482  19.227  28.050
70299W        W71163  10.168  19.060  27.094
70300W        W71164  10.606  19.203  28.733
70301W        W71165   9.486  20.956  27.180
70302W        W71166   8.723  21.589  26.726
70303W        W71167   7.937  18.689  26.025
70304W        W71168   9.081  18.394  27.576
70305W        W71169   7.933  21.750  25.774
70306W        W71170   8.422  20.020  26.226
70307W        W71171   9.096  20.719  28.516
70308W        W71172   9.030  18.788  26.652
70309W        W71173  10.201  18.550  26.960
70310W        W71174  10.061  21.903  27.310
70311W        W71175   9.395  21.657  27.741
70312W        W71176   8.708  20.625  27.721
70313W        W71177  10.584  21.174  27.834
70314W        W71178   8.203  18.651  26.494
70315W        W71179   8.929  21.098  27.754
70316W        W71180   8.156  18.926  25.623
70317W        W71181   8.962  19.544  27.941
70318W        W71182   9.974  18.567  27.825
70319W        W71183   7.417  20.275  27.909
70320W        W71184   8.825  19.963  25.851
70321W        W71185   8.284  18.428  25.657
70322W        W71186   8.817  19.291  26.624
70323W        W71187  10.011  18.577  28.360
70324W        W71188   8.579  20.548  28.541
70325W        W71189   9.360  20.393  28.828
70326W        W71190   9.832  20.254  28.605
70327W        W71191   9.324  18.472   0.043
70328W        W71192   8.470  18.871  27.324
70329W        W71193   8.036  18.984  26.921
70330W        W71194   7.719  21.510  26.535
70331W        W71195   9.207  21.246  28.623
70332W        W71196   8.092  20.480  26.237
70333W        W71197   9.660  20.037  27.362
70334W        W71198   9.909  19.840  27.783
70335W        W71199   9.050  20.232  27.699
70336W        W71200   9.681  20.634  25.608
70337W        W71201   9.321  18.727  27.179
70338W        W71202  10.816  19.129  26.361
70339W        W71203   7.514  21.500  28.530
70340W        W71204   7.712  20.871  28.058
70341W        W71205   7.284  22.071  26.392
70342W        W71206   9.228  19.112  27.949
70343W        W71207   8.596  21.055  25.936
70344W        W71208  10.761  21.543  26.219
70345W        W71209   9.255  19.843  26.114
70346W        W71210   8.287  19.292  26.556
70347W        W71211   9.040  18.992  25.609
70348W        W71212   9.681  20.761  28.649
70349W        W71213  10.004  18.900  26.130
70350W        W71214   7.336  18.456  25.850
70351W        W71215   8.728  20.905  28.191
70352W        W71216   8.463  20.794  27.284
70353W        W71217   8.170  20.792  25.817
70354W        W71218   7.742  21.032  26.199
70355W        W71219   7.993  19.949  28.766
70356W        W71220   8.756  18.419  28.885
70357W        W71221   9.376  18.766  28.305
70358W        W71222   8.624  18.349  26.690
70359W        W71223   9.621  18.616  25.921
70360W        W71224   7.630  18.454  27.665
70361W        W71225   7.524  19.294  27.085
70362W        W71226  10.377  18.706  27.521
70363W        W71227   7.849  19.015  26.449
70364W        W71228  10.438  18.701  28.055
70365W        W71229  10.591  19.626  25.751
70366W        W71230   7.975  18.728  27.358
70367W        W71231   9.013  19.207  28.397
70368W        W71232   7.272  19.006  25.859
70369W        W71233   8.058  20.408  28.487
70370W        W71234   9.333  19.790  27.671
70371W        W71235   9.304  21.853  25.965
70372W        W71236   7.474  20.135  25.718
70373W        W71237   8.255  20.820  28.834
70374W        W71238   7.746  20.026  28.278
70375W        W71239   8.693  19.980  28.021
70376W        W71240  10.437  18.247  28.306
70377W        W71241  10.863  20.056  28.416
70378W        W71242  10.901  19.631  26.176
70379W        W71243   9.433  20.254  26.365
70380W        W71244  10.196  21.859  25.681
70381W        W71245   9.444  19.694   0.166
70382W        W71246   7.865  20.499  28.964
70383W        W71247  10.917  18.817  28.896
70384W        W71248  10.361  19.594  27.623
70385W        W71249   8.892  21.861  28.954
70386W        W71250   8.753  18.317  25.865
70387W        W71251  10.567  20.586  25.919
70388W        W71252   8.105  18.975  28.664
70389W        W71253   8.415  21.200  28.505
70390W        W71254  10.798  18.974  28.308
70391W        W71255  10.249  21.606  26.140
70392W        W71256  10.047  20.313  27.608
70393W        W71257   8.362  18.753  28.272
70394W        W71258   8.856  19.833  28.921
70395W        W71259   8.250  20.981  26.348
70396W        W71260   9.948  20.219  26.537
70397W        W71261   7.972  19.083  28.186
70398W        W71262   8.996  21.171  26.912
70399W        W71263  10.725  19.694  27.028
70400W        W71264   9.149  18.370  28.566
70401W        W71265  10.016  21.142  27.752
70402W        W71266  10.303  21.465  27.479
70403W        W71267   9.111  21.035  26.025
70404W        W71268   7.379  20.656  28.827
70405W        W71269   8.260  19.070  27.756
70406W        W71270   8.244  18.499  27.005
70407W        W71271   9.630  19.370  27.747
70408W        W71272   8.449  20.351  25.835
70409W        W71273  10.576  20.399  27.586
70410W        W71274   8.021  21.317  28.823
70411W        W71275  10.447  21.840  26.571
70412W        W71276   8.539  18.882  26.794
70413W        W71277   8.179  20.368  27.201
70414W        W71278   8.524  21.902  27.964
70415W        W71279  10.594  21.732  28.715
70416W        W71280   9.564  20.218  27.848
70417W        W71281   7.608  19.608  25.664
70418W        W71282  10.828  21.555  26.725
70419W        W71283  10.510  18.852  26.061
70420W        W71284   8.599  18.285  28.423
70421W        W71285  10.545  21.300  27.068
70422W        W71286  10.256  19.544  26.967
70423W        W71287   8.431  19.345  27.055
70424W        W71288   8.817  19.677  28.428
70425W        W71289  10.006  21.013  28.261
70426W        W71290   8.476  19.262  28.424
70427W        W71291   8.388  21.628  27.115
70428W        W71292   7.924  21.809  28.684
70429W        W71293   7.884  21.227  25.726
70430W        W71294  10.471  20.849  26.831
70431W        W71295   8.058  19.586  28.371
70432W        W71296  10.872  19.218  25.849
70433W        W71297   8.566  20.522  26.413
70434W        W71298   9.407  19.914  28.620
70435W        W71299   9.416  19.518  28.215
70436W        W71300   8.174  19.948  28.015
70437W        W71301  10.412  21.905  27.719
70438W        W71302  10.058  18.514  28.913
70439W        W71303   7.743  18.590  28.628
70440W        W71304   8.253  19.689  27.527
70441W        W71305   8.576  19.325  25.708
70442W        W71306   7.338  21.002  28.398
70443W        W71307   8.783  19.816  27.541
70444W        W71308   8.616  18.798  25.789
70445W        W71309   8.007  19.795  26.469
70446W        W71310   7.487  21.777  28.047
70447W        W71311  10.423  19.893  26.173
70448W        W71312  10.451  18.696  28.630
70449W        W71313  10.061  21.101  27.086
70450W        W71314   7.573  19.759   0.051
70451W        W71315  10.652  18.340  26.111
70452W        W71316  10.292  20.798  26.328
70453W        W71317   8.767  19.613  26.213
70454W        W71318  10.044  18.773  25.595
70455W        W71319  10.059  19.428  28.048
70456W        W71320   7.650  19.812  27.211
70457W        W71321   8.237  20.697  26.793
70458W        W71322   9.800  19.375  26.834
70459W        W71323   8.962  18.889  27.559
70460W        W71324  10.831  20.735  27.972
70461W        W71325  10.867  18.851  27.775
70462W        W71326   7.372  21.642  27.149
70463W        W71327   7.754  20.697  26.594
70464W        W71328   7.891  18.417   0.109
70465W        W71329   8.976  21.343   0.090
70466W        W71330  10.730  20.204  27.075
70467W        W71331  10.133  20.297  26.019
70468W        W71332   9.656  22.023  28.088
70469W        W71333  10.120  20.513  28.955
70470W        W71334   8.969  18.215  26.327
70471W        W71335   9.605  19.156  27.263
70472W        W71336   7.547  20.829  27.580
70473W        W71337   8.668  18.654  26.283
70474W        W71338   8.371  20.286  28.956
70475W        W71339   9.312  19.218  26.801
70476W        W71340   9.760  20.690  27.928
70477W        W71341   7.937  21.311  28.275
70478W        W71342   8.453  21.183   0.160
70479W        W71343   8.310  19.025  26.124
70480W        W71344   9.774  19.340  26.251
70481W        W71345   9.720  21.293  28.581
70482W        W71346   8.482  19.939  27.134
70483W        W71347   8.004  21.733  27.944
70484W        W71348  10.683  21.667  25.707
70485W        W71349   7.529  20.157  28.738
70486W        W71350   9.432  20.502  27.442
70487W        W71351   8.270  20.191  26.704
70488W        W71352   8.619  21.398  28.073
70489W        W71353   8.831  18.571  27.112
70490W        W71354   7.395  20.627  26.180
70491W        W71355   9.065  19.475  25.796
70492W        W71356   7.763  20.260  26.907
70493W        W71357   8.868  18.721  28.328
70494W        W71358  10.575  18.567  25.645
70495W        W71359  10.716  20.233  28.875
70496W        W71360   9.401  21.706  28.907
70497W        W71361  10.783  20.583  28.496
70498W        W71362  10.409  21.336   0.061
70499W        W71363   8.071  21.895  27.450
70500W        W71364  10.883  20.555  26.728
70501W        W71365   9.432  19.633  27.100
70502W        W71366   9.155  18.296  26.826
70503W        W71367   8.473  21.160  26.855
70504W        W71368   8.715  19.093  27.994
70505W        W71369   8.561  18.335  27.465
70506W        W71370   7.546  21.494  26.043
70507W        W71371   9.205  20.514  26.985
70508W        W71372   8.310  21.685  28.373
70509W        W71373   7.677  20.213  26.391
70510W        W71374   7.474  18.810  27.267
70511W        W71375   9.000  20.828  27.333
70512W        W71376   7.468  18.716  26.271
70513W        W71377   9.832  19.823  28.305
70514W        W71378   9.965  19.258  25.752
70515W        W71379  10.395  20.923  27.433
70516W        W71380   9.194  21.338  27.373
70517W        W71381   8.550  21.441  26.283
70518W        W71382   9.719  18.353  25.502
70519W        W71383   7.657  21.623  27.567
70520W        W71384   9.759  19.304   0.037
70521W        W71385   7.764  18.925   0.040
70522W        W71386   7.515  19.395  26.573
70523W        W71387   8.258  19.537  26.077
70524W        W71388   9.856  19.765  28.829
70525W        W71389   8.414  20.187  27.620
70526W        W71390   9.665  18.351  27.027
70527W        W71391   8.893  21.716  27.177
70528W        W71392  10.246  21.480  28.065
70529W        W71393   9.752  21.419  27.378
70530W        W71394   9.772  20.425  27.039
70531W        W71395   9.115  18.670  26.018
70532W        W71396  10.988  18.409  26.917
70533W        W71397   8.361  19.854  25.661
70534W        W71398  10.623  19.200  26.876
70535W        W71399   9.307  20.315  25.861
70536W        W71400  10.242  20.602  28.465
70537W        W71401  10.514  21.152  25.989
70538W        W71402   8.607  18.882  28.742
70539W        W71403   8.439  19.520  27.980
70540W        W71404  10.536  21.006  28.317
70541W        W71405   9.687  18.848  28.702
70542W        W71406   7.540  19.629  28.527
70543W        W71407   9.198  19.981  28.143
70544W        W71408   7.827  20.752  27.111
70545W        W71409   7.770  19.942  27.700
70546W        W71410  10.017  20.271  28.121
70547W        W71411   9.957  21.576  28.934
70548W        W71412   9.798  19.315  28.507
70549W        W71413  10.124  21.586  26.904
70550W        W71414   9.149  21.376  28.105
70551W        W71415   8.364  21.528  27.632
70552W        W71416  10.285  20.723  27.912
70553W        W71417   9.232  20.877  28.979
70554W        W71418   8.050  20.721  27.585
70555W        W71419  10.284  20.486  27.158
70556W        W71420   9.921  21.724  27.759
70557W        W71421   7.921  21.222  27.744
70558W        W71422   8.839  19.324  28.867
70559W        W71423   9.082  21.419  26.406
70560W        W71424   8.759  20.973  28.799
70561W        W71425   8.763  21.007  26.441
70562W        W71426   8.072  19.424  25.586
70563W        W71427   7.353  25.610   3.425
70564W        W71428   7.732  24.468   2.900
70565W        W71429  10.537  24.126   0.707
70566W        W71430  10.758  25.190   2.626
70567W        W71431   8.651  25.220   0.326
70568W        W71432   8.603  23.418   1.067
70569W        W71433   8.108  23.088   1.400
70570W        W71434   9.155  24.003   0.718
70571W        W71435   8.833  25.216   2.957
70572W        W71436   7.403  22.642   2.848
70573W        W71437   8.069  21.880   2.812
70574W        W71438  10.073  22.382   1.787
70575W        W71439   9.632  23.118   0.401
70576W        W71440  10.160  22.651   3.358
70577W        W71441   7.475  22.241   2.520
70578W        W71442   7.538  25.137   3.576
70579W        W71443   8.963  24.226   0.304
70580W        W71444   7.463  23.044   1.964
70581W        W71445   8.649  23.055   3.045
70582W        W71446  11.030  22.734   1.697
70583W        W71447  10.483  23.930   2.486
70584W        W71448   8.942  23.467   1.531
70585W        W71449   9.557  24.765   1.931
70586W        W71450   7.871  23.954   2.213
70587W        W71451   7.234  23.501   1.828
70588W        W71452   8.541  23.595   2.791
70589W        W71453  10.656  23.403   3.224
70590W        W71454   8.176  24.754   1.699
70591W        W71455   9.406  24.488   2.586
70592W        W71456   8.925  23.095   1.945
70593W        W71457   8.743  23.930   1.602
70594W        W71458   9.709  24.851   3.417
70595W        W71459   8.859  23.876   3.143
70596W        W71460   9.034  23.718   2.690
70597W        W71461   7.198  22.923   3.233
70598W        W71462  10.097  24.719   3.092
70599W        W71463   7.845  22.198   1.024
70600W        W71464   8.275  24.439   2.156
70601W        W71465  10.702  24.275   1.569
70602W        W71466  10.538  22.645   1.890
70603W        W71467  10.574  22.631   0.032
70604W        W71468  10.865  23.357   2.430
70605W        W71469   8.722  25.286   2.194
70606W        W71470  10.718  24.606   0.755
70607W        W71471   8.020  25.555   0.633
70608W        W71472   8.115  25.373   1.089
70609W        W71473   7.954  22.136   2.325
70610W        W71474  10.457  23.251   2.750
70611W        W71475   9.988  23.635   1.309
70612W        W71476  10.030  23.382   0.248
70613W        W71477   9.126  24.618   2.164
70614W        W71478   9.194  23.030   1.525
70615W        W71479   9.512  24.959   2.411
70616W        W71480  10.486  23.743   1.054
70617W        W71481   9.550  22.445   0.938
70618W        W71482   7.853  25.016   0.762
70619W        W71483   7.458  22.455   1.212
70620W        W71484   9.916  23.259   1.745
70621W        W71485   7.640  24.747   1.721
70622W        W71486   8.982  25.076   0.704
70623W        W71487  10.451  23.123   0.031
70624W        W71488   7.419  24.791   2.219
70625W        W71489   8.209  24.457   2.674
70626W        W71490   8.412  23.958   1.187
70627W        W71491   8.462  22.226   2.103
70628W        W71492  10.974  21.995   1.692
70629W        W71493   7.811  23.875   0.178
70630W        W71494   8.075  22.976   0.236
70631W        W71495   7.682  24.841   1.218
70632W        W71496   8.756  24.325   1.181
70633W        W71497  10.310  25.152   2.868
70634W        W71498   9.286  22.888   0.701
70635W        W71499  10.620  25.171   1.405
70636W        W71500  10.049  23.024   3.004
70637W        W71501  10.841  24.685   1.270
70638W        W71502   9.482  23.981   2.682
70639W        W71503   7.219  23.658   0.871
70640W        W71504   8.650  23.834   2.323
70641W        W71505   9.644  23.298   0.893
70642W        W71506   9.494  23.772   1.040
70643W        W71507   7.914  23.090   2.296
70644W        W71508   7.853  23.013   2.802
70645W        W71509   7.663  22.078   1.520
70646W        W71510   9.571  22.289   1.939
70647W        W71511   9.241  22.516   3.257
70648W        W71512   9.725  22.441   0.457
70649W        W71513  10.742  25.023   3.134
70650W        W71514   9.559  22.118   3.231
70651W        W71515  10.556  24.496   3.253
70652W        W71516  10.174  22.578   2.801
70653W        W71517   9.953  22.530   1.236
70654W        W71518  10.273  23.644   3.493
70655W        W71519   7.920  25.178   1.544
70656W        W71520   8.818  23.105   0.694
70657W        W71521   8.185  22.263   3.163
70658W        W71522  10.335  22.866   0.979
70659W        W71523  10.671  23.268   0.915
70660W        W71524   8.353  25.481   3.556
70661W        W71525   8.345  22.039   0.582
70662W        W71526  10.715  22.390   1.491
70663W        W71527  10.928  24.783   0.292
70664W        W71528   7.557  23.894   1.766
70665W        W71529   9.768  22.484  28.948
70666W        W71530  10.814  24.821   1.781
70667W        W71531  10.708  22.054   2.397
70668W        W71532   9.374  23.008   3.173
70669W        W71533   9.032  24.498   0.764
70670W        W71534   9.697  23.796   3.518
70671W        W71535   9.742  22.083   1.501
70672W        W71536   7.927  22.861   1.830
70673W        W71537   7.600  24.009   2.660
70674W        W71538   9.468  25.157   1.568
70675W        W71539  10.574  22.926   2.331
70676W        W71540   9.316  25.312   2.756
70677W        W71541  10.659  24.005   0.236
70678W        W71542   8.929  23.818   1.131
70679W        W71543  10.841  22.014   2.906
70680W        W71544   9.078  24.139   2.387
70681W        W71545   9.313  22.736   1.918
70682W        W71546  10.147  23.391   0.892
70683W        W71547  10.373  23.138   0.527
70684W        W71548  10.398  24.890   1.032
70685W        W71549   9.952  24.434   1.727
70686W        W71550   9.822  23.706   0.611
70687W        W71551   9.280  23.861   1.523
70688W        W71552  10.268  23.623   1.788
70689W        W71553   7.656  22.615   2.217
70690W        W71554  10.298  23.689   2.954
70691W        W71555  10.811  25.231   2.111
70692W        W71556   8.641  24.747   1.474
70693W        W71557   9.837  25.338   2.640
70694W        W71558   9.796  22.590   2.403
70695W        W71559   8.917  25.590   2.585
70696W        W71560  10.603  22.400   0.997
70697W        W71561  10.377  23.458   2.281
70698W        W71562   7.220  22.867   2.407
70699W        W71563  10.301  22.809   1.490
70700W        W71564  10.547  22.883   3.105
70701W        W71565   9.523  24.605   1.453
70702W        W71566   8.855  25.211   1.192
70703W        W71567   7.709  22.409   0.542
70704W        W71568   8.976  22.128   2.070
70705W        W71569   8.093  25.215   0.252
70706W        W71570   8.288  23.770   0.734
70707W        W71571   9.036  24.308   2.885
70708W        W71572   8.946  22.827   1.124
70709W        W71573  10.282  22.133   1.377
70710W        W71574  10.017  25.461   1.676
70711W        W71575   9.241  25.201   2.050
70712W        W71576   8.737  24.251   2.012
70713W        W71577  10.515  24.860   2.300
70714W        W71578   8.228  22.470   0.861
70715W        W71579   8.645  24.788   1.992
70716W        W71580   8.164  22.450   0.290
70717W        W71581   9.176  22.951   2.373
70718W        W71582   9.932  22.083   2.255
70719W        W71583   7.338  23.884   2.238
70720W        W71584   9.023  23.713   0.168
70721W        W71585   8.401  22.046   0.049
70722W        W71586   9.140  23.325   1.050
70723W        W71587   9.800  22.195   2.753
70724W        W71588   8.601  24.108   2.735
70725W        W71589   9.368  23.991   3.166
70726W        W71590   9.853  23.915   3.034
70727W        W71591   9.191  22.163   3.617
70728W        W71592   8.408  22.658   1.792
70729W        W71593   7.960  22.576   1.386
70730W        W71594   7.592  25.333   1.063
70731W        W71595   8.982  24.758   3.182
70732W        W71596   8.044  24.173   0.518
70733W        W71597   9.744  23.758   1.744
70734W        W71598   9.878  23.518   2.193
70735W        W71599   9.055  23.792   1.994
70736W        W71600   9.775  24.341   0.099
70737W        W71601   9.399  22.480   1.447
70738W        W71602  11.017  22.651   0.791
70739W        W71603   7.494  25.417   2.951
70740W        W71604   7.751  24.426   2.378
70741W        W71605   7.200  25.423   0.754
70742W        W71606   9.290  22.454   2.337
70743W        W71607   8.676  24.712   0.466
70744W        W71608  10.594  25.080   0.576
70745W        W71609   9.321  23.539   0.586
70746W        W71610   8.429  22.939   1.017
70747W        W71611   9.377  22.718   0.197
70748W        W71612   9.448  24.500   3.111
70749W        W71613  10.146  22.389   0.756
70750W        W71614   7.410  22.039   0.318
70751W        W71615   8.713  24.525   2.459
70752W        W71616   8.401  24.303   1.605
70753W        W71617   8.432  24.333   0.229
70754W        W71618   7.338  24.927   0.802
70755W        W71619   8.050  23.505   2.985
70756W        W71620   8.716  22.211   3.418
70757W        W71621   9.290  22.272   2.807
70758W        W71622   8.542  22.078   1.071
70759W        W71623   9.517  21.994   0.638
70760W        W71624   7.543  22.104   2.029
70761W        W71625   7.575  22.944   1.405
70762W        W71626  10.513  22.121   1.913
70763W        W71627   7.781  22.750   0.928
70764W        W71628  10.304  22.430   2.296
70765W        W71629  10.775  23.495   0.219
70766W        W71630   7.986  22.349   1.857
70767W        W71631   7.247  22.519   0.260
70768W        W71632   8.118  23.924   2.669
70769W        W71633   9.377  23.395   1.897
70770W        W71634   9.285  25.398   0.405
70771W        W71635   7.411  24.238   0.186
70772W        W71636   8.142  24.693   3.147
70773W        W71637   7.730  23.510   2.585
70774W        W71638   8.791  23.334   2.406
70775W        W71639  10.324  22.091   2.739
70776W        W71640  10.813  23.689   2.816
70777W        W71641  10.849  23.711   0.679
70778W        W71642   9.640  24.208   0.765
70779W        W71643  10.341  25.436   0.292
70780W        W71644   9.439  23.351   3.545
70781W        W71645   7.779  24.658   3.543
70782W        W71646  10.989  22.465   3.456
70783W        W71647  10.466  23.153   1.861
70784W        W71648   8.852  25.392   3.475
70785W        W71649   8.794  22.197   0.341
70786W        W71650  10.462  24.509   0.306
70787W        W71651   8.295  22.706   2.901
70788W        W71652   8.557  24.804   2.859
70789W        W71653  10.663  22.510   2.645
70790W        W71654  10.106  25.619   0.739
70791W        W71655  10.078  24.036   2.035
70792W        W71656   8.339  22.296   2.610
70793W        W71657   9.006  23.390   3.270
70794W        W71658   8.281  24.428   0.909
70795W        W71659  10.076  24.033   0.969
70796W        W71660   7.879  22.511   2.679
70797W        W71661   9.100  24.749   1.209
70798W        W71662  10.886  23.229   1.560
70799W        W71663   9.073  21.967   3.147
70800W        W71664  10.051  24.782   2.084
70801W        W71665  10.369  25.114   1.856
70802W        W71666   9.384  24.498   0.393
70803W        W71667   7.371  24.636   3.227
70804W        W71668   8.173  22.634   2.266
70805W        W71669   8.175  22.110   1.421
70806W        W71670  10.090  22.838   2.021
70807W        W71671   8.516  23.830   0.277
70808W        W71672  10.588  23.993   1.977
70809W        W71673   7.718  24.992   3.119
70810W        W71674  10.554  25.454   0.945
70811W        W71675   8.503  22.530   1.306
70812W        W71676   8.004  23.915   1.510
70813W        W71677   8.433  25.400   2.605
70814W        W71678  10.480  25.491   3.236
70815W        W71679   9.530  23.894   2.190
70816W        W71680   7.548  23.499   0.470
70817W        W71681  10.907  25.083   0.974
70818W        W71682  10.531  22.658   0.541
70819W        W71683   8.612  22.043   2.936
70820W        W71684  10.379  24.705   1.518
70821W        W71685  10.408  23.318   1.364
70822W        W71686   8.628  23.051   1.503
70823W        W71687   9.079  23.193   2.801
70824W        W71688   9.853  24.381   2.789
70825W        W71689   8.701  22.825   2.579
70826W        W71690   8.433  25.226   1.475
70827W        W71691   7.868  25.498   3.302
70828W        W71692   8.106  24.681   0.461
70829W        W71693  10.457  24.357   1.140
70830W        W71694   8.315  23.160   2.649
70831W        W71695  10.871  23.040   0.455
70832W        W71696   8.648  24.134   0.702
70833W        W71697   9.442  23.514   2.988
70834W        W71698   9.647  23.047   2.172
70835W        W71699   8.213  23.545   2.324
70836W        W71700  10.275  25.332   2.344
70837W        W71701  10.062  22.182   3.218
70838W        W71702   7.683  22.172   3.018
70839W        W71703   8.129  23.331   1.867
70840W        W71704   8.490  22.737   0.014
70841W        W71705   7.375  24.808   2.742
70842W        W71706   8.619  23.499   1.945
70843W        W71707   8.894  22.718   0.343
70844W        W71708   8.036  23.534   1.129
70845W        W71709   7.493  25.226   2.477
70846W        W71710  10.361  23.671   0.514
70847W        W71711  10.553  22.373   3.136
70848W        W71712   9.984  24.539   1.218
70849W        W71713   7.503  23.619   3.061
70850W        W71714  10.603  22.157   0.540
70851W        W71715  10.175  24.517   0.736
70852W        W71716   8.807  23.618   0.641
70853W        W71717  10.201  22.325   0.234
70854W        W71718  10.075  23.039   2.483
70855W        W71719   7.711  23.411   1.570
70856W        W71720   7.984  24.430   1.335
70857W        W71721   9.951  23.093   1.257
70858W        W71722   8.908  22.606   1.625
70859W        W71723  10.754  24.405   2.398
70860W        W71724  10.893  22.471   2.172
70861W        W71725   7.379  25.160   1.501
70862W        W71726   7.749  24.495   0.838
70863W        W71727   7.750  22.268   3.536
70864W        W71728   8.537  24.998   3.338
70865W        W71729  10.690  23.756   1.515
70866W        W71730  10.096  24.112   0.434
70867W        W71731   9.463  25.567   2.341
70868W        W71732  10.173  24.132   3.373
70869W        W71733   8.958  21.986   0.785
70870W        W71734   9.749  22.789   1.640
70871W        W71735   7.376  24.339   1.978
70872W        W71736   8.739  22.480   0.790
70873W        W71737   8.344  23.940   3.144
70874W        W71738   9.500  22.893   1.163
70875W        W71739   9.755  24.380   2.242
70876W        W71740   7.899  24.895   2.650
70877W        W71741   8.055  25.082   3.520
70878W        W71742   8.440  22.798   0.529
70879W        W71743   9.862  22.839   0.779
70880W        W71744   9.625  24.923   2.905
70881W        W71745   8.393  23.555   1.501
70882W        W71746   7.981  25.330   2.362
70883W        W71747  10.864  25.350   0.227
70884W        W71748   7.841  24.016   3.119
70885W        W71749   9.477  24.242   1.824
70886W        W71750   7.932  24.040   1.006
70887W        W71751   8.360  24.922   2.403
70888W        W71752   8.977  22.312   1.211
70889W        W71753   7.263  24.439   0.642
70890W        W71754   9.134  23.189   0.275
70891W        W71755   7.569  23.771   1.239
70892W        W71756   8.842  22.290   2.539
70893W        W71757  10.659  22.120   0.041
70894W        W71758  10.641  23.952   3.238
70895W        W71759   9.328  25.206   3.258
70896W        W71760  10.867  24.252   2.872
70897W        W71761  10.304  25.062   3.439
70898W        W71762   7.962  25.595   1.918
70899W        W71763  10.905  24.066   1.105
70900W        W71764   9.533  23.396   1.400
70901W        W71765   9.376  22.013   1.133
70902W        W71766   8.193  24.873   1.178
70903W        W71767   8.817  22.622   2.130
70904W        W71768   8.668  22.130   1.616
70905W        W71769   7.591  25.296   0.419
70906W        W71770   9.271  24.242   1.161
70907W        W71771   8.192  25.190   3.008
70908W        W71772   7.559  24.005   0.646
70909W        W71773   7.523  22.546   1.725
70910W        W71774   9.032  24.369   1.607
70911W        W71775   7.369  22.119   0.820
70912W        W71776   9.887  23.466   2.715
70913W        W71777  10.056  22.822   0.271
70914W        W71778  10.448  24.477   1.964
70915W        W71779   9.079  24.865   1.709
70916W        W71780   8.344  25.075   0.701
70917W        W71781   9.779  22.001   0.170
70918W        W71782   7.616  25.208   1.965
70919W        W71783   9.788  22.981   3.470
70920W        W71784   7.825  22.653   3.178
70921W        W71785   7.484  23.177   0.918
70922W        W71786   8.323  23.284   0.619
70923W        W71787   9.889  23.431   3.238
70924W        W71788   8.308  23.913   1.933
70925W        W71789   9.881  22.041   1.019
70926W        W71790   8.875  25.356   1.703
70927W        W71791  10.020  24.842   2.582
70928W        W71792   9.933  24.946   1.595
70929W        W71793   9.730  24.109   1.365
70930W        W71794   9.207  22.391   0.574
70931W        W71795  10.814  21.967   1.199
70932W        W71796   8.625  23.210   0.203
70933W        W71797  10.798  22.849   1.224
70934W        W71798   9.471  23.976   0.325
70935W        W71799  10.325  24.204   2.890
70936W        W71800  10.132  24.925   0.398
70937W        W71801   8.791  22.534   3.005
70938W        W71802   8.448  23.045   2.151
70939W        W71803  10.511  24.681   2.777
70940W        W71804   9.712  22.616   3.043
70941W        W71805   7.367  23.173   2.802
70942W        W71806   9.404  23.445   2.442
70943W        W71807   7.514  24.310   1.476
70944W        W71808   7.695  23.501   2.075
70945W        W71809   9.972  23.942   2.526
70946W        W71810   9.915  25.268   3.165
70947W        W71811   9.596  23.026   2.704
70948W        W71812  10.114  25.290   1.198
70949W        W71813   9.073  24.844   2.691
70950W        W71814   8.277  25.191   1.958
70951W        W71815  10.235  24.395   2.419
70952W        W71816   9.064  24.301   3.419
70953W        W71817   7.895  24.312   1.840
70954W        W71818  10.236  24.056   1.504
70955W        W71819   9.778  25.216   2.059
70956W        W71820   7.931  24.842   2.137
70957W        W71821   8.937  22.884   3.438
70958W        W71822   9.361  25.197   1.065
70959W        W71823   8.601  24.390   3.162
70960W        W71824   8.651  24.783   0.970
70961W        W71825   8.166  23.480   0.114
70962W        W71826   7.335  25.690   7.178
70963W        W71827   7.802  24.520   6.649
70964W        W71828  10.653  24.154   4.513
70965W        W71829  10.717  25.321   6.458
70966W        W71830   8.256  25.370   4.069
70967W        W71831   8.663  23.295   4.729
70968W        W71832   8.285  23.252   5.350
70969W        W71833   9.033  23.763   4.085
70970W        W71834   8.789  25.165   6.771
70971W        W71835   7.341  22.691   6.637
70972W        W71836   8.008  21.892   6.521
70973W        W71837  10.003  22.443   5.396
70974W        W71838   9.595  23.002   3.960
70975W        W71839  10.057  22.785   7.026
70976W        W71840   7.415  22.365   6.240
70977W        W71841   7.545  25.247   7.312
70978W        W71842   8.693  24.595   3.622
70979W        W71843   7.313  22.979   5.642
70980W        W71844   8.552  23.101   6.819
70981W        W71845  10.701  22.935   5.410
70982W        W71846  10.619  23.993   6.262
70983W        W71847   9.141  23.300   5.369
70984W        W71848   9.577  24.709   5.760
70985W        W71849   7.855  24.071   6.007
70986W        W71850   7.100  23.567   5.702
70987W        W71851   8.577  23.577   6.609
70988W        W71852  10.648  23.342   7.010
70989W        W71853   8.235  24.862   5.528
70990W        W71854   9.411  24.517   6.444
70991W        W71855   8.730  23.146   5.645
70992W        W71856   9.069  23.857   5.428
70993W        W71857   9.624  24.783   7.179
70994W        W71858   9.067  23.961   7.161
70995W        W71859   9.041  23.797   6.646
70996W        W71860   6.946  22.896   6.920
70997W        W71861  10.071  24.600   6.956
70998W        W71862   7.793  22.167   4.819
70999W        W71863   8.229  24.608   6.004
71000W        W71864  10.763  24.417   5.344
71001W        W71865  10.334  22.727   5.700
71002W        W71866  10.574  22.715   3.655
71003W        W71867  10.875  23.533   6.180
71004W        W71868   9.021  25.087   5.945
71005W        W71869  10.588  24.706   4.360
71006W        W71870   7.727  25.462   4.346
71007W        W71871   8.058  25.478   4.876
71008W        W71872   8.008  22.206   6.074
71009W        W71873  10.580  23.178   6.435
71010W        W71874   9.775  23.588   4.807
71011W        W71875   9.909  23.394   3.775
71012W        W71876   9.145  24.584   5.993
71013W        W71877   9.190  22.759   5.186
71014W        W71878   9.475  24.966   6.202
71015W        W71879  10.208  23.851   4.631
71016W        W71880   9.541  22.335   4.530
71017W        W71881   7.863  25.027   4.609
71018W        W71882   7.419  22.486   4.944
71019W        W71883   9.870  23.299   5.335
71020W        W71884   7.715  24.891   5.644
71021W        W71885   8.610  25.098   3.833
71022W        W71886  10.288  23.130   3.510
71023W        W71887   7.507  25.067   6.088
71024W        W71888   8.223  24.784   6.493
71025W        W71889   8.571  23.992   5.323
71026W        W71890   8.461  22.371   5.813
71027W        W71891  10.806  22.211   5.486
71028W        W71892   8.199  24.312   3.483
71029W        W71893   7.539  22.778   3.592
71030W        W71894   7.880  24.697   5.185
71031W        W71895   8.850  24.429   5.325
71032W        W71896  10.270  25.178   6.674
71033W        W71897   9.286  22.759   4.315
71034W        W71898  10.556  25.336   5.403
71035W        W71899  10.197  23.250   6.787
71036W        W71900  11.033  24.814   5.108
71037W        W71901   9.560  24.000   6.456
71038W        W71902   7.173  23.620   4.794
71039W        W71903   8.375  24.088   6.048
71040W        W71904   9.541  23.205   4.497
71041W        W71905   9.373  23.730   4.498
71042W        W71906   7.828  23.093   6.136
71043W        W71907   7.791  23.051   6.643
71044W        W71908   7.719  22.049   5.307
71045W        W71909   9.457  22.434   5.551
71046W        W71910   9.115  22.459   6.812
71047W        W71911   9.687  22.388   4.043
71048W        W71912  10.745  25.079   6.927
71049W        W71913   9.566  21.968   6.729
71050W        W71914  10.574  24.503   7.114
71051W        W71915  10.149  22.585   6.577
71052W        W71916  10.014  22.602   4.874
71053W        W71917  10.243  23.662   7.112
71054W        W71918   7.915  25.221   5.294
71055W        W71919   8.798  22.878   4.227
71056W        W71920   8.284  22.214   6.820
71057W        W71921  10.275  22.851   4.496
71058W        W71922  10.384  23.352   4.556
71059W        W71923   8.479  25.567   6.932
71060W        W71924   8.291  22.084   4.200
71061W        W71925  10.496  22.501   5.208
71062W        W71926  10.722  24.819   3.624
71063W        W71927   7.551  23.939   5.602
71064W        W71928   9.703  22.484   3.545
71065W        W71929  10.827  24.919   5.574
71066W        W71930  10.710  22.224   6.054
71067W        W71931   9.383  23.303   6.824
71068W        W71932   8.956  24.038   4.966
71069W        W71933   9.790  23.839   7.333
71070W        W71934   9.433  21.887   5.569
71071W        W71935   7.873  22.968   5.563
71072W        W71936   7.549  24.159   6.407
71073W        W71937   9.539  25.162   5.212
71074W        W71938  10.593  23.143   5.919
71075W        W71939   9.313  25.244   6.623
71076W        W71940  10.594  23.918   3.775
71077W        W71941   9.113  23.532   4.903
71078W        W71942  10.902  22.251   6.618
71079W        W71943   9.104  24.152   6.263
71080W        W71944   9.351  22.931   5.644
71081W        W71945   9.989  23.212   4.250
71082W        W71946  10.455  23.068   4.067
71083W        W71947  10.250  24.920   4.700
71084W        W71948  10.274  24.339   5.450
71085W        W71949   9.852  23.706   4.284
71086W        W71950   9.518  23.661   5.266
71087W        W71951  10.400  23.833   5.420
71088W        W71952   7.652  22.661   5.904
71089W        W71953  10.481  23.675   6.644
71090W        W71954  10.751  25.319   5.915
71091W        W71955   8.679  24.923   5.257
71092W        W71956   9.814  25.313   6.430
71093W        W71957   9.736  22.637   6.257
71094W        W71958   8.896  25.401   6.332
71095W        W71959  10.501  22.442   4.690
71096W        W71960  10.395  23.647   5.919
71097W        W71961   7.258  22.857   6.150
71098W        W71962  10.199  22.922   5.239
71099W        W71963  10.554  22.860   6.827
71100W        W71964   9.536  24.635   5.243
71101W        W71965   8.796  25.269   4.859
71102W        W71966   7.823  22.349   4.053
71103W        W71967   9.061  22.136   5.811
71104W        W71968   7.825  25.486   3.825
71105W        W71969   8.806  23.756   4.551
71106W        W71970   9.075  24.302   6.767
71107W        W71971   9.071  22.481   4.738
71108W        W71972  10.184  22.145   5.005
71109W        W71973   9.908  25.408   5.511
71110W        W71974   9.444  25.211   5.712
71111W        W71975   8.837  24.158   5.801
71112W        W71976  10.590  24.902   6.185
71113W        W71977   8.309  22.339   4.667
71114W        W71978   8.700  24.714   5.751
71115W        W71979   8.455  22.658   3.401
71116W        W71980   9.125  23.097   6.069
71117W        W71981   9.816  22.221   5.848
71118W        W71982   7.377  23.827   6.070
71119W        W71983   8.771  23.509   3.718
71120W        W71984   8.282  22.226   3.696
71121W        W71985   9.084  23.005   4.748
71122W        W71986   9.879  22.141   6.358
71123W        W71987   8.620  24.115   6.554
71124W        W71988   9.477  23.807   6.917
71125W        W71989   9.943  23.966   6.830
71126W        W71990   9.271  22.079   7.141
71127W        W71991   8.390  22.771   5.506
71128W        W71992   7.900  22.601   5.104
71129W        W71993   7.563  25.370   4.849
71130W        W71994   9.190  24.800   6.893
71131W        W71995   7.695  24.631   4.317
71132W        W71996   9.925  23.740   5.599
71133W        W71997  10.005  23.267   5.836
71134W        W71998   9.363  23.912   5.868
71135W        W71999   9.702  24.305   3.510
71136W        W72000   9.626  22.292   5.056
71137W        W72001  10.789  22.798   4.424
71138W        W72002   7.547  25.408   6.804
71139W        W72003   7.729  24.594   6.111
71140W        W72004   7.213  25.401   4.481
71141W        W72005   9.221  22.596   6.012
71142W        W72006   8.272  24.855   4.324
71143W        W72007  10.620  25.231   4.447
71144W        W72008   9.459  23.478   4.044
71145W        W72009   8.623  22.760   4.693
71146W        W72010   9.276  22.650   3.779
71147W        W72011   9.583  24.334   6.915
71148W        W72012  10.070  22.339   4.426
71149W        W72013   7.411  21.975   3.934
71150W        W72014   8.689  24.492   6.220
71151W        W72015   8.388  24.349   5.605
71152W        W72016   8.237  24.719   3.818
71153W        W72017   7.289  24.910   4.531
71154W        W72018   8.106  23.443   6.721
71155W        W72019   8.772  22.126   7.050
71156W        W72020   9.366  22.316   6.405
71157W        W72021   8.724  22.069   4.845
71158W        W72022   9.490  21.877   4.315
71159W        W72023   7.583  22.162   5.796
71160W        W72024   7.508  22.958   5.162
71161W        W72025  10.334  22.172   5.673
71162W        W72026   7.877  22.590   4.536
71163W        W72027  10.220  22.423   6.097
71164W        W72028  10.689  23.393   3.735
71165W        W72029   7.985  22.434   5.583
71166W        W72030   9.311  22.846   6.501
71167W        W72031   7.265  22.478   3.896
71168W        W72032   8.076  24.042   6.478
71169W        W72033   9.512  23.414   5.731
71170W        W72034   9.064  25.375   3.967
71171W        W72035   7.201  23.384   3.473
71172W        W72036   8.276  24.370   6.863
71173W        W72037   7.722  23.581   6.378
71174W        W72038   8.772  23.789   6.182
71175W        W72039  10.406  22.139   6.491
71176W        W72040  10.985  23.833   6.608
71177W        W72041  10.743  23.658   4.312
71178W        W72042   9.517  23.981   3.965
71179W        W72043  10.215  25.519   3.715
71180W        W72044   9.350  23.530   7.316
71181W        W72045   7.878  24.510   7.165
71182W        W72046  10.952  22.466   7.124
71183W        W72047  10.371  23.329   5.501
71184W        W72048   8.886  25.399   7.220
71185W        W72049   8.758  22.042   3.920
71186W        W72050  10.160  24.596   3.600
71187W        W72051   8.214  22.719   6.726
71188W        W72052   8.681  24.658   6.730
71189W        W72053  10.624  22.657   6.347
71190W        W72054  10.185  25.492   4.319
71191W        W72055  10.175  24.102   5.880
71192W        W72056   8.387  22.433   6.341
71193W        W72057   8.917  23.451   7.011
71194W        W72058   8.068  24.545   4.718
71195W        W72059   9.748  24.089   4.670
71196W        W72060   7.846  22.604   6.390
71197W        W72061   9.127  24.894   5.006
71198W        W72062  10.754  23.388   5.173
71199W        W72063   9.049  21.966   6.654
71200W        W72064  10.060  24.608   5.862
71201W        W72065  10.343  25.034   5.749
71202W        W72066   9.078  24.955   3.645
71203W        W72067   7.384  24.620   7.008
71204W        W72068   8.152  22.728   5.985
71205W        W72069   8.228  22.196   5.165
71206W        W72070   9.828  22.772   5.774
71207W        W72071   8.649  24.029   3.580
71208W        W72072  10.717  24.069   5.753
71209W        W72073   7.777  24.960   6.922
71210W        W72074  10.437  25.582   4.794
71211W        W72075   8.667  22.495   5.131
71212W        W72076   8.095  23.912   5.569
71213W        W72077   8.496  25.531   6.046
71214W        W72078  10.523  25.533   6.946
71215W        W72079   9.774  23.687   6.084
71216W        W72080   7.652  23.163   3.249
71217W        W72081  10.663  25.132   4.950
71218W        W72082  10.446  22.534   4.131
71219W        W72083   8.535  21.916   6.450
71220W        W72084  10.418  24.813   5.286
71221W        W72085  10.242  23.504   5.034
71222W        W72086   8.739  23.004   5.155
71223W        W72087   8.971  23.256   6.534
71224W        W72088   9.911  24.392   6.512
71225W        W72089   8.793  22.760   6.504
71226W        W72090   8.452  25.395   5.217
71227W        W72091   8.004  25.406   7.069
71228W        W72092   7.866  25.021   4.024
71229W        W72093  10.615  24.605   4.867
71230W        W72094   8.282  23.073   6.372
71231W        W72095  10.937  22.984   3.930
71232W        W72096   8.446  24.110   4.831
71233W        W72097   9.768  23.534   6.590
71234W        W72098   9.639  23.161   6.182
71235W        W72099   8.238  23.604   6.214
71236W        W72100  10.278  25.324   6.178
71237W        W72101  10.021  22.154   6.851
71238W        W72102   7.635  22.210   6.670
71239W        W72103   8.248  23.212   5.855
71240W        W72104   8.569  23.025   3.771
71241W        W72105   7.401  24.858   6.542
71242W        W72106   9.017  23.534   5.818
71243W        W72107   8.777  22.541   3.822
71244W        W72108   8.210  23.701   5.097
71245W        W72109   7.515  25.552   6.315
71246W        W72110  10.308  23.567   4.054
71247W        W72111  10.485  22.363   6.934
71248W        W72112  10.021  24.528   5.059
71249W        W72113   7.601  23.532   6.883
71250W        W72114  10.508  22.024   4.077
71251W        W72115  10.205  24.386   4.602
71252W        W72116   9.071  23.326   4.363
71253W        W72117  10.131  22.312   3.778
71254W        W72118  10.173  22.926   6.186
71255W        W72119   7.552  23.413   5.479
71256W        W72120   8.381  24.529   5.133
71257W        W72121   9.957  23.108   4.808
71258W        W72122   8.904  22.598   5.587
71259W        W72123  10.871  24.469   6.226
71260W        W72124  10.829  22.677   5.842
71261W        W72125   7.410  25.279   5.328
71262W        W72126   7.551  24.587   4.810
71263W        W72127   7.842  22.145   7.145
71264W        W72128   8.782  24.896   7.215
71265W        W72129  10.883  23.894   5.262
71266W        W72130  10.045  23.962   3.853
71267W        W72131   9.386  25.479   6.160
71268W        W72132  10.195  24.167   7.221
71269W        W72133   8.930  21.881   4.376
71270W        W72134   9.695  22.815   5.268
71271W        W72135   7.393  24.476   5.681
71272W        W72136   8.731  22.361   4.355
71273W        W72137   8.578  23.898   7.016
71274W        W72138   9.526  22.756   4.794
71275W        W72139   9.688  24.280   6.045
71276W        W72140   7.854  25.165   6.453
71277W        W72141   8.318  24.996   6.959
71278W        W72142   8.335  22.595   4.111
71279W        W72143   9.798  22.763   4.371
71280W        W72144   9.695  24.869   6.682
71281W        W72145   8.706  23.519   5.229
71282W        W72146   7.991  25.582   6.122
71283W        W72147  10.714  25.334   3.690
71284W        W72148   7.515  24.109   6.919
71285W        W72149   9.783  24.255   5.533
71286W        W72150   8.014  24.181   5.129
71287W        W72151   8.561  25.005   6.162
71288W        W72152   9.122  22.251   5.214
71289W        W72153   7.223  24.411   4.429
71290W        W72154   9.091  23.132   3.878
71291W        W72155   7.633  23.786   5.107
71292W        W72156   8.867  22.283   6.262
71293W        W72157  10.596  22.178   3.604
71294W        W72158  10.693  23.981   7.068
71295W        W72159   9.370  25.254   7.135
71296W        W72160  10.887  24.332   6.714
71297W        W72161  10.302  25.018   7.167
71298W        W72162   8.158  25.509   5.638
71299W        W72163  10.969  24.236   4.904
71300W        W72164   9.486  23.206   5.012
71301W        W72165   9.242  21.989   4.771
71302W        W72166   8.241  24.998   4.965
71303W        W72167   8.671  22.794   6.014
71304W        W72168   8.692  22.092   5.456
71305W        W72169   7.355  25.086   4.063
71306W        W72170   9.458  24.139   5.116
71307W        W72171   8.342  25.318   6.504
71308W        W72172   7.685  24.114   4.699
71309W        W72173   7.469  22.518   5.446
71310W        W72174   9.279  24.320   5.575
71311W        W72175   7.447  22.319   4.449
71312W        W72176  10.159  23.422   6.302
71313W        W72177  10.057  22.805   3.883
71314W        W72178  10.564  24.556   5.806
71315W        W72179   9.140  24.827   5.516
71316W        W72180   8.386  25.291   4.555
71317W        W72181   9.673  21.977   3.714
71318W        W72182   7.670  25.410   5.741
71319W        W72183   9.542  22.912   7.139
71320W        W72184   7.762  22.628   6.944
71321W        W72185   7.441  22.885   4.623
71322W        W72186   8.603  23.369   4.190
71323W        W72187   9.809  23.361   7.118
71324W        W72188   8.518  23.653   5.733
71325W        W72189   9.846  21.946   4.683
71326W        W72190   9.021  25.300   5.350
71327W        W72191  10.078  24.852   6.329
71328W        W72192   9.937  24.894   5.445
71329W        W72193   9.973  23.966   5.129
71330W        W72194   9.187  22.270   4.132
71331W        W72195  10.774  22.083   4.942
71332W        W72196   8.491  23.475   3.294
71333W        W72197  10.583  22.945   4.900
71334W        W72198   9.172  23.798   3.589
71335W        W72199  10.382  24.205   6.718
71336W        W72200  10.391  25.085   3.995
71337W        W72201   8.644  22.606   6.970
71338W        W72202   8.663  23.304   6.134
71339W        W72203  10.506  24.711   6.652
71340W        W72204   9.654  22.516   6.776
71341W        W72205   7.324  23.233   6.526
71342W        W72206   9.301  23.564   6.266
71343W        W72207   7.529  24.282   5.221
71344W        W72208   7.850  23.564   5.870
71345W        W72209  10.115  23.938   6.357
71346W        W72210   9.860  25.275   6.970
71347W        W72211   9.782  23.002   6.648
71348W        W72212  10.154  25.230   5.097
71349W        W72213   9.013  24.868   6.408
71350W        W72214   8.604  25.218   5.671
71351W        W72215  10.350  24.423   6.250
71352W        W72216   9.230  24.440   7.286
71353W        W72217   7.888  24.399   5.608
71354W        W72218  10.446  24.148   5.009
71355W        W72219   9.882  25.109   5.934
71356W        W72220   8.073  25.100   5.973
71357W        W72221   9.038  22.948   6.957
71358W        W72222   8.780  25.070   4.321
71359W        W72223   8.737  24.373   7.154
71360W        W72224   8.638  24.776   4.741
71361W        W72225   8.164  23.065   3.239
71362W        W72226   7.426  25.650  10.748
71363W        W72227   7.808  24.510  10.258
71364W        W72228  10.618  24.225   8.100
71365W        W72229  10.771  25.359  10.056
71366W        W72230   8.411  25.288   7.384
71367W        W72231   8.785  23.505   8.790
71368W        W72232   8.360  23.227   9.104
71369W        W72233   9.250  23.944   8.114
71370W        W72234   8.781  25.135  10.399
71371W        W72235   7.450  22.665  10.226
71372W        W72236   7.951  21.662  10.119
71373W        W72237   9.920  22.495   9.025
71374W        W72238   9.656  23.234   7.647
71375W        W72239  10.112  22.732  10.659
71376W        W72240   7.553  22.292   9.900
71377W        W72241   7.554  25.138  10.825
71378W        W72242   8.808  24.677   7.685
71379W        W72243   7.272  23.221   9.516
71380W        W72244   8.545  23.071  10.298
71381W        W72245  10.679  23.020   9.050
71382W        W72246  10.666  24.010   9.857
71383W        W72247   9.201  23.562   9.092
71384W        W72248   9.630  24.727   9.319
71385W        W72249   7.824  24.088   9.548
71386W        W72250   7.070  23.680   9.386
71387W        W72251   8.536  23.570  10.168
71388W        W72252  10.728  23.387  10.516
71389W        W72253   8.255  24.896   9.066
71390W        W72254   9.436  24.539  10.037
71391W        W72255   8.840  23.260   9.278
71392W        W72256   8.963  23.994   8.939
71393W        W72257   9.658  24.742  10.778
71394W        W72258   9.010  23.909  10.659
71395W        W72259   9.032  23.762  10.154
71396W        W72260   7.356  22.959  10.652
71397W        W72261  10.097  24.571  10.536
71398W        W72262   7.723  22.196   8.449
71399W        W72263   8.379  24.592   9.615
71400W        W72264  10.802  24.438   8.934
71401W        W72265  10.250  22.815   9.298
71402W        W72266  10.516  22.724   7.312
71403W        W72267  10.941  23.515   9.732
71404W        W72268   9.011  25.216   9.555
71405W        W72269  10.609  24.698   7.874
71406W        W72270   7.859  25.599   8.068
71407W        W72271   8.186  25.488   8.472
71408W        W72272   8.060  22.123   9.896
71409W        W72273  10.637  23.178  10.042
71410W        W72274  10.024  23.653   8.684
71411W        W72275  10.112  23.547   7.617
71412W        W72276   9.216  24.576   9.579
71413W        W72277   9.134  22.655   8.745
71414W        W72278   9.527  24.971   9.784
71415W        W72279  10.475  23.743   8.479
71416W        W72280   9.541  22.337   8.152
71417W        W72281   8.002  25.114   8.173
71418W        W72282   7.439  22.563   8.714
71419W        W72283   9.991  23.158   8.986
71420W        W72284   7.726  24.909   9.146
71421W        W72285   8.802  25.192   7.694
71422W        W72286  10.261  23.170   7.305
71423W        W72287   7.509  24.948   9.637
71424W        W72288   8.227  24.768  10.079
71425W        W72289   8.811  23.922   8.456
71426W        W72290   8.616  22.428   9.578
71427W        W72291  10.869  22.208   9.194
71428W        W72292   8.022  23.901   6.968
71429W        W72293   7.723  22.530   7.460
71430W        W72294   7.866  24.874   8.640
71431W        W72295   8.763  24.410   8.660
71432W        W72296  10.308  25.239  10.244
71433W        W72297   9.262  23.062   7.973
71434W        W72298  10.583  25.341   8.998
71435W        W72299  10.231  23.293  10.403
71436W        W72300  11.029  24.889   8.740
71437W        W72301   9.649  24.025  10.057
71438W        W72302   7.195  23.451   8.546
71439W        W72303   8.230  24.236   9.944
71440W        W72304   9.512  23.403   8.257
71441W        W72305   9.671  23.876   8.392
71442W        W72306   7.737  23.181   9.734
71443W        W72307   7.819  23.017  10.325
71444W        W72308   7.760  21.837   8.806
71445W        W72309   9.413  22.501   9.167
71446W        W72310   9.189  22.434  10.446
71447W        W72311   9.451  22.681   7.695
71448W        W72312  10.787  25.159  10.543
71449W        W72313   9.550  21.983  10.297
71450W        W72314  10.595  24.582  10.717
71451W        W72315  10.169  22.582  10.176
71452W        W72316   9.893  22.569   8.484
71453W        W72317  10.358  23.654  10.790
71454W        W72318   8.000  25.315   8.938
71455W        W72319   8.921  22.715   7.790
71456W        W72320   8.216  22.014  10.392
71457W        W72321  10.288  22.833   8.263
71458W        W72322  10.590  23.315   8.166
71459W        W72323   8.430  25.386  10.746
71460W        W72324   8.357  21.818   7.890
71461W        W72325  10.684  22.540   8.884
71462W        W72326  10.774  24.847   7.425
71463W        W72327   7.420  24.023   9.201
71464W        W72328   9.624  22.428   7.282
71465W        W72329  10.876  24.918   9.223
71466W        W72330  10.821  22.218   9.726
71467W        W72331   9.393  23.312  10.295
71468W        W72332   9.275  24.475   7.803
71469W        W72333   9.843  23.695  10.851
71470W        W72334   9.442  21.993   9.154
71471W        W72335   7.757  23.180   9.221
71472W        W72336   7.746  24.049  10.047
71473W        W72337   9.587  25.130   8.833
71474W        W72338  10.592  23.172   9.531
71475W        W72339   9.399  25.255  10.236
71476W        W72340  10.552  24.248   7.586
71477W        W72341   9.234  23.691   8.589
71478W        W72342  10.910  22.220  10.255
71479W        W72343   9.206  24.102   9.811
71480W        W72344   9.254  23.009   9.141
71481W        W72345  10.077  23.490   8.177
71482W        W72346  10.238  23.097   7.830
71483W        W72347  10.342  25.022   8.183
71484W        W72348  10.284  24.442   9.027
71485W        W72349   9.705  23.721   7.881
71486W        W72350   9.559  23.919   8.900
71487W        W72351  10.379  23.943   8.974
71488W        W72352   7.775  22.686   9.410
71489W        W72353  10.470  23.745  10.278
71490W        W72354  10.876  25.339   9.517
71491W        W72355   8.731  24.882   8.892
71492W        W72356   9.868  25.318   9.982
71493W        W72357   9.786  22.666   9.827
71494W        W72358   8.958  25.424  10.019
71495W        W72359  10.633  22.461   8.371
71496W        W72360  10.465  23.679   9.511
71497W        W72361   7.387  22.785   9.737
71498W        W72362  10.261  22.786   8.773
71499W        W72363  10.553  22.885  10.444
71500W        W72364   9.627  24.579   8.805
71501W        W72365   8.873  25.179   8.497
71502W        W72366   8.132  22.268   7.699
71503W        W72367   9.043  22.177   9.425
71504W        W72368   7.969  25.488   7.576
71505W        W72369   8.779  23.805   7.958
71506W        W72370   9.114  24.269  10.313
71507W        W72371   9.038  22.379   8.294
71508W        W72372  10.265  22.267   8.699
71509W        W72373   9.996  25.402   9.068
71510W        W72374   9.461  25.225   9.323
71511W        W72375   8.883  24.171   9.413
71512W        W72376  10.669  24.924   9.768
71513W        W72377   8.199  22.218   8.219
71514W        W72378   8.792  24.789   9.408
71515W        W72379   8.197  22.546   7.235
71516W        W72380   9.247  23.180   9.624
71517W        W72381   9.800  22.251   9.463
71518W        W72382   7.347  23.981   9.727
71519W        W72383   8.836  23.634   7.475
71520W        W72384   8.326  22.037   7.297
71521W        W72385   9.194  23.166   8.645
71522W        W72386   9.899  22.171   9.965
71523W        W72387   8.640  24.074  10.279
71524W        W72388   9.477  23.817  10.485
71525W        W72389  10.004  23.996  10.456
71526W        W72390   9.168  22.013  10.760
71527W        W72391   8.391  22.690   9.147
71528W        W72392   7.902  22.758   8.921
71529W        W72393   7.686  25.350   8.536
71530W        W72394   9.244  24.793  10.462
71531W        W72395   8.430  24.400   7.861
71532W        W72396   9.962  23.736   9.180
71533W        W72397  10.098  23.297   9.457
71534W        W72398   9.459  23.895   9.407
71535W        W72399   9.736  24.348   7.445
71536W        W72400   9.510  22.317   8.708
71537W        W72401  10.753  22.840   8.037
71538W        W72402   7.523  25.330  10.344
71539W        W72403   7.851  24.570   9.757
71540W        W72404   7.369  25.528   8.171
71541W        W72405   9.234  22.674   9.598
71542W        W72406   8.344  24.928   7.797
71543W        W72407  10.337  25.108   7.675
71544W        W72408   9.224  23.536   7.808
71545W        W72409   8.905  22.883   8.316
71546W        W72410   9.117  22.574   7.310
71547W        W72411   9.610  24.339  10.469
71548W        W72412  10.190  22.294   8.162
71549W        W72413   7.500  22.056   7.558
71550W        W72414   8.796  24.418   9.862
71551W        W72415   8.543  24.444   9.133
71552W        W72416   8.358  24.642   7.361
71553W        W72417   7.483  24.959   8.246
71554W        W72418   8.156  23.376  10.495
71555W        W72419   8.695  22.070  10.550
71556W        W72420   9.401  22.361   9.970
71557W        W72421   8.654  22.050   8.448
71558W        W72422   9.869  22.349   7.753
71559W        W72423   7.723  22.014   9.505
71560W        W72424   7.340  22.830   9.177
71561W        W72425  10.349  22.248   9.221
71562W        W72426   7.728  22.461   7.975
71563W        W72427  10.258  22.455   9.678
71564W        W72428  10.624  23.634   7.458
71565W        W72429   8.137  22.322   9.415
71566W        W72430   9.365  22.863  10.067
71567W        W72431   7.239  22.479   7.664
71568W        W72432   8.146  23.887  10.343
71569W        W72433   9.611  23.390   9.333
71570W        W72434   9.274  25.417   7.643
71571W        W72435   7.290  23.766   7.274
71572W        W72436   8.281  24.396  10.426
71573W        W72437   7.774  23.529  10.123
71574W        W72438   8.643  23.916   9.796
71575W        W72439  10.431  22.157  10.062
71576W        W72440  11.006  23.811  10.194
71577W        W72441  10.939  23.967   7.781
71578W        W72442   9.689  24.225   7.991
71579W        W72443  10.202  25.501   7.344
71580W        W72444   9.401  23.407  10.799
71581W        W72445   7.946  24.561  10.770
71582W        W72446  10.974  22.482  10.701
71583W        W72447  10.403  23.447   9.063
71584W        W72448   8.914  25.287  10.917
71585W        W72449   8.763  21.940   7.544
71586W        W72450  10.201  24.623   7.494
71587W        W72451   8.088  22.488  10.296
71588W        W72452   8.733  24.626  10.314
71589W        W72453  10.652  22.633   9.995
71590W        W72454   9.955  25.525   7.807
71591W        W72455  10.241  24.129   9.463
71592W        W72456   8.558  22.185  10.030
71593W        W72457   8.939  23.411  10.515
71594W        W72458   8.113  24.623   8.247
71595W        W72459  10.131  24.020   8.227
71596W        W72460   7.876  22.717   9.903
71597W        W72461   9.146  24.739   8.556
71598W        W72462  10.800  23.428   8.722
71599W        W72463   9.043  22.037  10.153
71600W        W72464  10.091  24.616   9.485
71601W        W72465  10.393  25.019   9.342
71602W        W72466   9.224  24.918   7.499
71603W        W72467   7.461  24.650  10.621
71604W        W72468   8.193  22.985   9.533
71605W        W72469   8.172  22.186   8.756
71606W        W72470   9.724  22.883   9.361
71607W        W72471   8.882  24.171   7.612
71608W        W72472  10.749  24.074   9.309
71609W        W72473   7.880  24.975  10.462
71610W        W72474  10.324  25.560   8.288
71611W        W72475   8.644  22.492   8.712
71612W        W72476   7.933  24.000   9.053
71613W        W72477   8.676  25.628   9.653
71614W        W72478  10.517  25.599  10.527
71615W        W72479   9.868  23.719   9.671
71616W        W72480   7.432  23.047   7.022
71617W        W72481  10.721  25.219   8.482
71618W        W72482  10.362  22.575   7.774
71619W        W72483   8.473  21.674  10.024
71620W        W72484  10.521  24.858   8.851
71621W        W72485  10.330  23.256   8.595
71622W        W72486   8.753  22.984   8.852
71623W        W72487   8.938  23.263  10.014
71624W        W72488   9.948  24.447  10.067
71625W        W72489   8.393  22.717   9.943
71626W        W72490   8.516  25.376   8.864
71627W        W72491   7.919  25.468  10.671
71628W        W72492   7.982  24.992   7.406
71629W        W72493  10.680  24.686   8.389
71630W        W72494   8.173  23.219   9.993
71631W        W72495  10.703  23.117   7.588
71632W        W72496   8.897  24.323   8.131
71633W        W72497   9.836  23.561  10.205
71634W        W72498   9.738  23.198   9.814
71635W        W72499   8.147  23.740   9.839
71636W        W72500  10.352  25.363   9.731
71637W        W72501  10.069  22.108  10.446
71638W        W72502   7.707  22.128  10.364
71639W        W72503   8.107  23.598   9.354
71640W        W72504   8.669  22.964   7.340
71641W        W72505   7.435  24.847  10.138
71642W        W72506   9.014  23.651   9.577
71643W        W72507   8.650  22.424   7.450
71644W        W72508   8.434  24.024   8.848
71645W        W72509   7.531  25.515   9.864
71646W        W72510  10.472  23.762   7.938
71647W        W72511  10.492  22.395  10.529
71648W        W72512  10.152  24.659   8.546
71649W        W72513   7.533  23.433  10.562
71650W        W72514  10.659  22.120   7.912
71651W        W72515  10.166  24.494   8.023
71652W        W72516   8.972  23.418   8.251
71653W        W72517  10.127  22.361   7.310
71654W        W72518  10.218  22.954   9.830
71655W        W72519   7.532  23.592   8.953
71656W        W72520   8.220  24.504   8.745
71657W        W72521   9.870  23.094   8.463
71658W        W72522   8.899  22.619   9.195
71659W        W72523  10.951  24.475   9.834
71660W        W72524  10.723  22.659   9.455
71661W        W72525   7.413  25.313   8.998
71662W        W72526   7.552  24.478   8.399
71663W        W72527   7.855  22.147  10.858
71664W        W72528   8.839  24.797  10.790
71665W        W72529  10.871  23.933   8.797
71666W        W72530  10.091  24.057   7.714
71667W        W72531   9.412  25.483   9.774
71668W        W72532  10.317  24.168  10.833
71669W        W72533   8.919  21.857   8.040
71670W        W72534   9.613  22.851   8.830
71671W        W72535   7.505  24.490   9.373
71672W        W72536   8.637  22.282   7.945
71673W        W72537   8.536  23.718  10.666
71674W        W72538   9.434  22.792   8.358
71675W        W72539   9.678  24.314   9.642
71676W        W72540   7.850  25.121   9.978
71677W        W72541   8.370  24.873  10.586
71678W        W72542   8.385  22.737   7.741
71679W        W72543   9.829  22.814   8.020
71680W        W72544   9.759  24.885  10.278
71681W        W72545   8.624  23.726   9.245
71682W        W72546   8.215  25.425   9.775
71683W        W72547  10.694  25.342   7.389
71684W        W72548   7.707  24.109  10.561
71685W        W72549   9.831  24.256   9.173
71686W        W72550   8.412  24.218   8.343
71687W        W72551   8.585  25.061   9.847
71688W        W72552   9.024  22.146   8.862
71689W        W72553   7.203  24.192   7.714
71690W        W72554   9.165  23.077   7.461
71691W        W72555   7.932  24.135   8.545
71692W        W72556   8.923  22.570   9.998
71693W        W72557  10.595  22.224   7.417
71694W        W72558  10.775  23.943  10.654
71695W        W72559   9.413  25.260  10.751
71696W        W72560  10.952  24.333  10.329
71697W        W72561  10.313  25.045  10.721
71698W        W72562   8.180  25.632   9.312
71699W        W72563  11.001  24.286   8.448
71700W        W72564   9.601  23.407   8.803
71701W        W72565   9.282  21.939   8.438
71702W        W72566   8.351  25.000   8.557
71703W        W72567   8.763  22.922   9.644
71704W        W72568   8.565  22.177   9.117
71705W        W72569   7.632  25.181   7.814
71706W        W72570   9.264  24.218   8.571
71707W        W72571   8.282  25.252  10.259
71708W        W72572   7.156  24.144   8.244
71709W        W72573   7.730  22.285   9.058
71710W        W72574   9.312  24.323   9.136
71711W        W72575   7.308  22.209   8.121
71712W        W72576  10.241  23.466   9.914
71713W        W72577   9.934  22.809   7.514
71714W        W72578  10.604  24.544   9.411
71715W        W72579   9.203  24.834   9.077
71716W        W72580   8.519  25.274   8.133
71717W        W72581   9.789  21.938   7.271
71718W        W72582   7.744  25.370   9.409
71719W        W72583   9.469  22.882  10.619
71720W        W72584   7.729  22.595  10.644
71721W        W72585   7.505  23.089   8.767
71722W        W72586   8.792  23.222   7.798
71723W        W72587   9.868  23.178  10.776
71724W        W72588   8.322  24.090   9.436
71725W        W72589   9.853  22.037   8.464
71726W        W72590   9.027  25.323   9.011
71727W        W72591  10.153  24.895   9.906
71728W        W72592  10.015  24.881   9.017
71729W        W72593   9.975  24.175   8.694
71730W        W72594   9.142  22.249   7.741
71731W        W72595  10.936  22.147   8.657
71732W        W72596   8.420  23.437   7.177
71733W        W72597  10.726  22.937   8.546
71734W        W72598   9.367  23.997   7.593
71735W        W72599  10.445  24.252  10.330
71736W        W72600   9.861  25.120   7.473
71737W        W72601   8.601  22.555  10.388
71738W        W72602   8.529  23.409   9.662
71739W        W72603  10.545  24.776  10.253
71740W        W72604   9.705  22.488  10.366
71741W        W72605   7.372  23.166  10.107
71742W        W72606   9.421  23.602   9.870
71743W        W72607   7.687  24.438   8.895
71744W        W72608   7.604  23.616   9.478
71745W        W72609  10.164  23.997   9.960
71746W        W72610   9.882  25.342  10.522
71747W        W72611   9.842  22.987  10.268
71748W        W72612  10.207  25.207   8.648
71749W        W72613   9.052  24.894   9.984
71750W        W72614   8.519  25.233   9.356
71751W        W72615  10.418  24.455   9.865
71752W        W72616   9.215  24.394  10.825
71753W        W72617   8.025  24.484   9.266
71754W        W72618  10.479  24.250   8.582
71755W        W72619   9.928  25.127   9.500
71756W        W72620   8.071  24.989   9.534
71757W        W72621   8.997  22.906  10.431
71758W        W72622   9.086  24.950   8.049
71759W        W72623   8.700  24.306  10.737
71760W        W72624   8.635  24.752   8.217
71761W        W72625   8.075  23.049   7.086
71762W        W72626   7.405  25.637  14.381
71763W        W72627   7.713  24.461  13.895
71764W        W72628  10.505  23.963  11.707
71765W        W72629  10.956  25.244  13.494
71766W        W72630   8.409  25.282  11.261
71767W        W72631   9.089  23.453  11.911
71768W        W72632   8.145  23.003  12.597
71769W        W72633   9.293  23.954  11.878
71770W        W72634   8.803  25.157  14.019
71771W        W72635   7.357  22.727  13.946
71772W        W72636   8.022  21.737  13.840
71773W        W72637   9.910  22.353  12.621
71774W        W72638   9.531  22.924  11.147
71775W        W72639   9.997  22.784  14.278
71776W        W72640   7.492  22.232  13.608
71777W        W72641   7.547  25.156  14.504
71778W        W72642   8.872  24.583  11.253
71779W        W72643   7.384  23.129  13.039
71780W        W72644   8.501  23.184  14.142
71781W        W72645  10.660  22.953  12.691
71782W        W72646  10.537  24.005  13.502
71783W        W72647   9.030  23.343  12.462
71784W        W72648   9.602  24.668  13.024
71785W        W72649   7.975  23.987  13.269
71786W        W72650   7.229  23.594  12.916
71787W        W72651   8.502  23.622  13.814
71788W        W72652  10.660  23.413  14.203
71789W        W72653   8.209  24.756  12.657
71790W        W72654   9.330  24.552  13.722
71791W        W72655   8.583  23.003  12.976
71792W        W72656   8.643  23.870  12.676
71793W        W72657   9.660  24.795  14.483
71794W        W72658   8.993  23.935  14.489
71795W        W72659   9.027  23.783  13.978
71796W        W72660   7.193  23.062  14.386
71797W        W72661  10.074  24.640  14.154
71798W        W72662   7.706  22.104  12.106
71799W        W72663   8.271  24.433  13.248
71800W        W72664  10.819  24.285  12.602
71801W        W72665  10.306  22.629  12.860
71802W        W72666  10.571  22.688  10.965
71803W        W72667  11.026  23.324  13.381
71804W        W72668   8.881  25.171  13.147
71805W        W72669  10.718  24.959  11.558
71806W        W72670   7.692  25.416  11.682
71807W        W72671   8.163  25.463  12.124
71808W        W72672   7.982  22.142  13.500
71809W        W72673  10.550  23.483  13.413
71810W        W72674   9.894  23.420  12.221
71811W        W72675  10.115  23.399  11.181
71812W        W72676   9.138  24.501  13.238
71813W        W72677   9.143  22.691  12.388
71814W        W72678   9.611  24.944  13.467
71815W        W72679  10.683  23.605  12.053
71816W        W72680   9.539  22.163  11.809
71817W        W72681   8.042  25.065  11.813
71818W        W72682   7.411  22.511  12.248
71819W        W72683  10.036  23.046  12.657
71820W        W72684   7.674  24.816  12.734
71821W        W72685   8.877  25.092  11.421
71822W        W72686  10.400  23.141  10.863
71823W        W72687   7.507  24.888  13.239
71824W        W72688   8.235  24.452  13.758
71825W        W72689   8.912  23.827  12.237
71826W        W72690   8.395  22.272  13.211
71827W        W72691  10.846  22.053  12.801
71828W        W72692   8.219  24.106  10.834
71829W        W72693   7.964  22.602  11.094
71830W        W72694   7.873  24.818  12.259
71831W        W72695   8.571  24.536  12.336
71832W        W72696  10.472  25.244  13.725
71833W        W72697   9.461  23.061  11.645
71834W        W72698  10.576  25.468  12.571
71835W        W72699  10.199  23.246  14.029
71836W        W72700  11.017  24.691  12.326
71837W        W72701   9.512  24.008  13.791
71838W        W72702   6.947  23.756  12.085
71839W        W72703   8.441  24.017  13.489
71840W        W72704   9.589  23.521  11.806
71841W        W72705   9.764  23.951  12.058
71842W        W72706   7.756  23.099  13.430
71843W        W72707   7.746  23.065  13.961
71844W        W72708   7.683  22.046  12.626
71845W        W72709   9.396  22.463  12.802
71846W        W72710   9.135  22.491  14.107
71847W        W72711   9.811  22.648  11.577
71848W        W72712  10.895  25.173  14.028
71849W        W72713   9.623  21.980  14.005
71850W        W72714  10.563  24.492  14.298
71851W        W72715  10.146  22.550  13.824
71852W        W72716   9.934  22.414  12.060
71853W        W72717  10.244  23.635  14.396
71854W        W72718   8.015  25.226  12.565
71855W        W72719   9.146  22.700  11.457
71856W        W72720   8.180  22.190  14.062
71857W        W72721  10.314  22.721  11.817
71858W        W72722  10.845  23.221  11.756
71859W        W72723   8.426  25.349  14.379
71860W        W72724   8.133  21.807  11.519
71861W        W72725  10.678  22.459  12.527
71862W        W72726  10.807  24.927  11.038
71863W        W72727   7.607  23.959  12.881
71864W        W72728   9.717  22.508  10.891
71865W        W72729  10.840  24.778  12.806
71866W        W72730  10.641  22.083  13.299
71867W        W72731   9.353  23.335  14.072
71868W        W72732   9.453  24.465  12.000
71869W        W72733   9.837  23.795  14.636
71870W        W72734   9.523  21.976  12.680
71871W        W72735   7.804  22.870  12.948
71872W        W72736   7.540  24.029  13.584
71873W        W72737   9.414  25.085  12.456
71874W        W72738  10.643  22.996  13.205
71875W        W72739   9.296  25.204  13.833
71876W        W72740  10.658  23.911  11.178
71877W        W72741   9.421  23.646  12.291
71878W        W72742  10.815  22.028  13.811
71879W        W72743   9.052  24.123  13.597
71880W        W72744   9.131  22.993  12.838
71881W        W72745  10.337  23.239  11.903
71882W        W72746  10.453  23.005  11.411
71883W        W72747  10.663  24.609  11.947
71884W        W72748  10.024  24.600  12.673
71885W        W72749  10.072  23.650  11.709
71886W        W72750   9.144  23.792  12.708
71887W        W72751  10.088  23.668  12.651
71888W        W72752   7.498  22.612  13.270
71889W        W72753  10.317  23.704  13.859
71890W        W72754  10.761  25.251  13.012
71891W        W72755   8.698  24.935  12.619
71892W        W72756   9.860  25.321  13.774
71893W        W72757   9.735  22.660  13.475
71894W        W72758   8.962  25.501  13.560
71895W        W72759  10.597  22.301  11.928
71896W        W72760  10.193  23.767  13.155
71897W        W72761   7.230  22.985  13.494
71898W        W72762  10.251  22.696  12.347
71899W        W72763  10.375  22.970  13.640
71900W        W72764   9.531  24.589  12.512
71901W        W72765   8.851  25.194  12.207
71902W        W72766   7.804  22.167  11.371
71903W        W72767   9.082  22.068  13.042
71904W        W72768   7.899  25.451  11.206
71905W        W72769   8.807  23.888  11.722
71906W        W72770   9.106  24.274  14.093
71907W        W72771   9.061  22.316  12.012
71908W        W72772  10.305  22.151  12.356
71909W        W72773  10.069  25.524  12.747
71910W        W72774   9.409  25.180  13.040
71911W        W72775   8.785  24.121  13.118
71912W        W72776  10.552  24.902  13.323
71913W        W72777   8.116  22.235  11.805
71914W        W72778   8.684  24.674  13.047
71915W        W72779   8.312  22.368  10.769
71916W        W72780   9.032  23.128  13.359
71917W        W72781   9.824  22.112  13.080
71918W        W72782   7.207  24.017  13.190
71919W        W72783   8.943  23.547  11.018
71920W        W72784   8.287  21.892  10.929
71921W        W72785   9.427  23.140  12.155
71922W        W72786   9.841  22.172  13.593
71923W        W72787   8.636  24.136  13.936
71924W        W72788   9.456  23.901  14.287
71925W        W72789   9.932  23.982  14.104
71926W        W72790   9.189  22.147  14.481
71927W        W72791   8.350  22.569  12.779
71928W        W72792   7.863  22.550  12.530
71929W        W72793   7.667  25.296  12.178
71930W        W72794   9.188  24.791  14.182
71931W        W72795   8.600  24.360  11.631
71932W        W72796   9.634  23.781  12.851
71933W        W72797   9.870  23.361  13.029
71934W        W72798   9.240  23.883  13.199
71935W        W72799   9.809  24.218  10.928
71936W        W72800   9.494  22.311  12.308
71937W        W72801  10.880  22.720  11.750
71938W        W72802   7.557  25.404  13.951
71939W        W72803   7.771  24.448  13.380
71940W        W72804   7.178  25.275  11.647
71941W        W72805   9.247  22.673  13.255
71942W        W72806   8.412  24.831  11.504
71943W        W72807  10.334  25.135  11.241
71944W        W72808   9.610  23.422  11.274
71945W        W72809   9.015  22.921  11.924
71946W        W72810   9.203  22.529  10.957
71947W        W72811   9.596  24.389  14.173
71948W        W72812  10.162  22.259  11.616
71949W        W72813   7.337  21.944  11.301
71950W        W72814   8.699  24.464  13.515
71951W        W72815   8.425  24.310  12.780
71952W        W72816   8.398  24.611  11.028
71953W        W72817   7.516  24.922  11.860
71954W        W72818   8.068  23.475  14.041
71955W        W72819   8.675  22.093  14.157
71956W        W72820   9.342  22.313  13.620
71957W        W72821   8.559  22.014  12.011
71958W        W72822   9.731  22.200  11.309
71959W        W72823   7.542  22.086  13.125
71960W        W72824   7.491  22.954  12.546
71961W        W72825  10.328  22.116  12.878
71962W        W72826   7.589  22.445  11.737
71963W        W72827  10.206  22.402  13.313
71964W        W72828  10.785  23.431  11.039
71965W        W72829   7.928  22.385  13.024
71966W        W72830   9.268  22.873  13.764
71967W        W72831   7.453  22.387  11.065
71968W        W72832   8.035  23.957  13.797
71969W        W72833   9.353  23.408  13.066
71970W        W72834   9.293  25.407  11.282
71971W        W72835   7.119  23.664  10.851
71972W        W72836   8.282  24.748  14.185
71973W        W72837   7.650  23.547  13.741
71974W        W72838   8.837  23.678  13.437
71975W        W72839  10.313  22.045  13.724
71976W        W72840  10.844  23.704  13.786
71977W        W72841  10.957  23.715  11.630
71978W        W72842   9.670  23.906  11.464
71979W        W72843  10.198  25.528  10.906
71980W        W72844   9.392  23.483  14.569
71981W        W72845   7.848  24.574  14.404
71982W        W72846  10.934  22.520  14.415
71983W        W72847  10.368  23.327  12.932
71984W        W72848   8.933  25.342  14.500
71985W        W72849   8.625  21.849  11.374
71986W        W72850  10.143  24.660  11.035
71987W        W72851   8.073  22.696  14.091
71988W        W72852   8.739  24.644  13.984
71989W        W72853  10.629  22.516  13.584
71990W        W72854  10.004  25.548  11.379
71991W        W72855   9.983  24.231  13.038
71992W        W72856   8.338  22.507  13.680
71993W        W72857   8.924  23.446  14.344
71994W        W72858   8.229  24.582  11.947
71995W        W72859  10.234  23.809  12.181
71996W        W72860   7.831  22.632  13.653
71997W        W72861   9.067  24.723  12.308
71998W        W72862  10.897  23.336  12.452
71999W        W72863   9.125  21.992  13.963
72000W        W72864  10.059  24.821  13.165
72001W        W72865  10.356  25.023  12.796
72002W        W72866   9.253  24.901  11.079
72003W        W72867   7.385  24.732  14.216
72004W        W72868   8.203  22.784  13.266
72005W        W72869   8.172  22.162  12.388
72006W        W72870   9.633  22.896  12.976
72007W        W72871   8.919  24.062  11.165
72008W        W72872  10.644  24.019  13.003
72009W        W72873   7.830  24.995  14.101
72010W        W72874  10.449  25.505  11.908
72011W        W72875   8.651  22.431  12.341
72012W        W72876   8.109  23.892  12.780
72013W        W72877   8.466  25.598  13.419
72014W        W72878  10.529  25.545  14.156
72015W        W72879   9.697  23.706  13.355
72016W        W72880   7.819  23.080  10.845
72017W        W72881  10.741  25.106  12.113
72018W        W72882  10.588  22.471  11.421
72019W        W72883   8.464  21.991  13.657
72020W        W72884  10.488  24.649  12.438
72021W        W72885  10.387  23.322  12.402
72022W        W72886   8.695  22.934  12.490
72023W        W72887   8.904  23.314  13.827
72024W        W72888   9.839  24.453  13.730
72025W        W72889   8.709  22.867  13.754
72026W        W72890   8.502  25.401  12.537
72027W        W72891   7.919  25.472  14.312
72028W        W72892   8.060  25.036  10.957
72029W        W72893  10.600  24.152  12.176
72030W        W72894   8.202  23.040  13.728
72031W        W72895  10.945  22.994  11.299
72032W        W72896   8.944  24.312  12.030
72033W        W72897   9.772  23.555  13.877
72034W        W72898   9.587  23.154  13.429
72035W        W72899   8.104  23.524  13.507
72036W        W72900  10.383  25.564  13.184
72037W        W72901  10.069  22.241  14.254
72038W        W72902   7.677  22.340  14.101
72039W        W72903   8.114  23.268  13.059
72040W        W72904   8.708  22.693  10.861
72041W        W72905   7.433  24.934  13.743
72042W        W72906   8.860  23.447  12.974
72043W        W72907   8.778  22.209  11.048
72044W        W72908   8.265  23.728  12.326
72045W        W72909   7.555  25.383  13.449
72046W        W72910  10.512  23.507  11.479
72047W        W72911  10.558  22.365  14.097
72048W        W72912  10.115  24.349  12.186
72049W        W72913   7.581  23.446  14.267
72050W        W72914  10.564  21.956  11.403
72051W        W72915  10.045  24.181  11.694
72052W        W72916   9.203  23.688  11.448
72053W        W72917  10.182  22.347  11.080
72054W        W72918  10.099  22.938  13.210
72055W        W72919   7.710  23.423  12.721
72056W        W72920   8.082  24.308  12.385
72057W        W72921   9.898  22.939  12.038
72058W        W72922   8.875  22.546  12.824
72059W        W72923  10.780  24.443  13.350
72060W        W72924  10.819  22.520  13.061
72061W        W72925   7.396  25.239  12.595
72062W        W72926   7.691  24.402  12.015
72063W        W72927   7.764  22.281  14.618
72064W        W72928   8.703  24.884  14.461
72065W        W72929  10.633  23.769  12.546
72066W        W72930  10.145  23.903  11.248
72067W        W72931   9.488  25.481  13.455
72068W        W72932  10.190  24.195  14.478
72069W        W72933   8.991  21.869  11.747
72070W        W72934   9.650  22.777  12.458
72071W        W72935   7.422  24.439  12.998
72072W        W72936   8.742  22.309  11.591
72073W        W72937   8.526  23.781  14.291
72074W        W72938   9.459  22.659  11.953
72075W        W72939   9.575  24.243  13.346
72076W        W72940   7.937  24.863  13.626
72077W        W72941   8.060  25.036  14.572
72078W        W72942   8.308  22.256  11.292
72079W        W72943   9.955  23.149  11.580
72080W        W72944   9.655  24.875  13.973
72081W        W72945   8.457  23.396  12.668
72082W        W72946   8.062  25.296  13.379
72083W        W72947  10.687  25.412  10.998
72084W        W72948   7.618  23.961  14.100
72085W        W72949   9.390  24.236  12.862
72086W        W72950   8.474  24.114  12.075
72087W        W72951   8.437  24.910  13.449
72088W        W72952   9.055  22.159  12.521
72089W        W72953   7.180  24.186  11.639
72090W        W72954   9.072  23.043  10.930
72091W        W72955   7.760  23.870  12.396
72092W        W72956   8.830  22.350  13.716
72093W        W72957  10.658  22.186  10.963
72094W        W72958  10.601  23.961  14.207
72095W        W72959   9.414  25.250  14.325
72096W        W72960  10.840  24.273  13.846
72097W        W72961  10.451  25.010  14.246
72098W        W72962   8.148  25.589  12.945
72099W        W72963  11.056  23.908  12.251
72100W        W72964   9.562  23.280  12.622
72101W        W72965   9.302  21.841  12.193
72102W        W72966   8.366  25.003  12.222
72103W        W72967   8.727  22.649  13.304
72104W        W72968   8.598  22.115  12.749
72105W        W72969   7.529  25.085  11.327
72106W        W72970   9.309  24.141  12.365
72107W        W72971   8.291  25.164  13.883
72108W        W72972   7.436  23.859  11.989
72109W        W72973   7.418  22.496  12.784
72110W        W72974   8.928  24.342  12.659
72111W        W72975   7.220  22.096  11.804
72112W        W72976  10.065  23.366  13.511
72113W        W72977  10.046  22.850  11.152
72114W        W72978  10.442  24.509  12.960
72115W        W72979   9.147  24.799  12.816
72116W        W72980   8.534  25.264  11.786
72117W        W72981   9.701  21.992  10.805
72118W        W72982   7.730  25.276  12.979
72119W        W72983   9.467  22.877  14.262
72120W        W72984   7.649  22.767  14.406
72121W        W72985   7.145  23.275  11.924
72122W        W72986   9.027  23.208  11.424
72123W        W72987   9.806  23.282  14.347
72124W        W72988   8.425  23.679  13.117
72125W        W72989   9.840  21.931  12.266
72126W        W72990   9.030  25.324  12.685
72127W        W72991  10.105  24.884  13.681
72128W        W72992   9.829  25.072  12.757
72129W        W72993   9.801  24.138  12.540
72130W        W72994   9.211  22.204  11.384
72131W        W72995  10.804  21.991  12.292
72132W        W72996   8.576  23.200  10.802
72133W        W72997  10.681  22.930  12.173
72134W        W72998   9.392  23.891  11.007
72135W        W72999  10.316  24.260  13.909
72136W        W73000   9.863  25.147  11.014
72137W        W73001   8.572  22.594  14.157
72138W        W73002   8.540  23.256  13.417
72139W        W73003  10.573  24.720  13.821
72140W        W73004   9.659  22.494  13.990
72141W        W73005   7.273  23.246  13.911
72142W        W73006   9.299  23.546  13.604
72143W        W73007   7.573  24.339  12.512
72144W        W73008   7.674  23.567  13.214
72145W        W73009  10.016  24.008  13.578
72146W        W73010   9.958  25.175  14.256
72147W        W73011   9.780  23.009  13.870
72148W        W73012  10.206  25.214  12.329
72149W        W73013   8.968  24.901  13.576
72150W        W73014   8.394  25.146  12.979
72151W        W73015  10.271  24.448  13.440
72152W        W73016   9.219  24.404  14.575
72153W        W73017   7.922  24.375  12.884
72154W        W73018  10.307  24.150  12.621
72155W        W73019   9.917  25.322  13.223
72156W        W73020   8.006  24.848  13.119
72157W        W73021   8.966  22.957  14.213
72158W        W73022   9.204  25.025  11.881
72159W        W73023   8.695  24.350  14.416
72160W        W73024   8.733  24.787  11.905
72161W        W73025   8.223  22.851  10.632
72162W        W73026   7.449  25.687  18.070
72163W        W73027   7.810  24.539  17.526
72164W        W73028  10.535  24.036  15.304
72165W        W73029  10.545  25.384  17.328
72166W        W73030   8.304  25.297  14.954
72167W        W73031   8.757  23.336  15.807
72168W        W73032   8.245  23.136  16.272
72169W        W73033   9.293  23.792  15.310
72170W        W73034   8.918  25.203  17.659
72171W        W73035   7.350  22.600  17.545
72172W        W73036   7.947  21.863  17.444
72173W        W73037   9.880  22.419  16.439
72174W        W73038   9.553  22.985  14.744
72175W        W73039  10.031  22.781  17.944
72176W        W73040   7.455  22.227  17.206
72177W        W73041   7.583  25.162  18.134
72178W        W73042   8.812  24.589  14.874
72179W        W73043   7.389  23.017  16.635
72180W        W73044   8.518  23.117  17.939
72181W        W73045  10.585  22.832  16.372
72182W        W73046  10.551  23.900  17.182
72183W        W73047   9.034  23.470  16.233
72184W        W73048   9.524  24.692  16.727
72185W        W73049   8.003  23.970  16.843
72186W        W73050   7.260  23.514  16.540
72187W        W73051   8.543  23.457  17.556
72188W        W73052  10.684  23.399  17.901
72189W        W73053   8.207  24.714  16.461
72190W        W73054   9.383  24.537  17.269
72191W        W73055   8.671  23.125  16.587
72192W        W73056   8.865  23.979  16.364
72193W        W73057   9.620  24.858  18.117
72194W        W73058   9.028  23.944  18.019
72195W        W73059   9.215  23.743  17.580
72196W        W73060   7.318  22.900  17.949
72197W        W73061  10.095  24.693  17.953
72198W        W73062   7.796  22.113  15.761
72199W        W73063   8.280  24.412  16.876
72200W        W73064  10.789  24.246  16.207
72201W        W73065  10.121  22.859  16.614
72202W        W73066  10.398  22.612  14.546
72203W        W73067  10.952  23.311  17.061
72204W        W73068   8.815  25.256  16.817
72205W        W73069  10.673  24.876  15.309
72206W        W73070   7.906  25.426  15.338
72207W        W73071   8.215  25.514  15.735
72208W        W73072   7.993  22.167  17.028
72209W        W73073  10.479  23.384  17.238
72210W        W73074  10.008  23.636  15.944
72211W        W73075   9.934  23.325  14.845
72212W        W73076   9.057  24.480  16.888
72213W        W73077   9.139  22.633  16.058
72214W        W73078   9.664  24.955  17.148
72215W        W73079  10.478  23.669  15.705
72216W        W73080   9.568  22.177  15.516
72217W        W73081   8.158  25.027  15.577
72218W        W73082   7.411  22.455  15.837
72219W        W73083   9.907  23.196  16.281
72220W        W73084   7.518  24.741  16.309
72221W        W73085   8.797  25.110  14.972
72222W        W73086  10.297  23.127  14.524
72223W        W73087   7.385  24.842  16.791
72224W        W73088   8.248  24.753  17.278
72225W        W73089   8.700  23.837  15.902
72226W        W73090   8.461  22.278  16.837
72227W        W73091  10.845  22.063  16.482
72228W        W73092   8.211  24.225  14.230
72229W        W73093   7.676  22.702  14.945
72230W        W73094   7.904  24.857  15.997
72231W        W73095   8.564  24.319  16.037
72232W        W73096  10.311  25.077  17.667
72233W        W73097   9.264  22.867  15.159
72234W        W73098  10.594  25.336  16.127
72235W        W73099  10.244  23.202  17.659
72236W        W73100  10.975  24.748  16.152
72237W        W73101   9.576  24.069  17.390
72238W        W73102   7.128  23.535  15.636
72239W        W73103   8.369  24.020  17.211
72240W        W73104   9.584  23.435  15.557
72241W        W73105   9.606  23.922  15.742
72242W        W73106   7.722  23.019  17.049
72243W        W73107   7.718  22.989  17.566
72244W        W73108   7.733  21.967  16.252
72245W        W73109   9.372  22.489  16.502
72246W        W73110   9.014  22.462  17.705
72247W        W73111   9.683  22.550  15.141
72248W        W73112  10.857  25.205  17.844
72249W        W73113   9.624  21.986  17.678
72250W        W73114  10.616  24.710  17.960
72251W        W73115  10.127  22.566  17.492
72252W        W73116   9.912  22.531  15.686
72253W        W73117  10.335  23.701  18.131
72254W        W73118   7.856  25.099  16.461
72255W        W73119   8.809  22.679  15.020
72256W        W73120   8.116  22.239  17.787
72257W        W73121  10.234  22.877  15.500
72258W        W73122  10.617  23.217  15.520
72259W        W73123   8.366  25.587  18.090
72260W        W73124   8.296  21.913  15.209
72261W        W73125  10.601  22.371  16.108
72262W        W73126  10.732  24.816  14.673
72263W        W73127   7.618  23.874  16.533
72264W        W73128   9.659  22.495  14.560
72265W        W73129  10.854  25.084  16.516
72266W        W73130  10.577  22.035  16.962
72267W        W73131   9.407  23.267  17.706
72268W        W73132   8.958  24.119  15.065
72269W        W73133   9.834  23.777  18.181
72270W        W73134   9.538  22.005  16.481
72271W        W73135   7.867  22.852  16.503
72272W        W73136   7.842  23.984  17.322
72273W        W73137   9.537  25.076  16.360
72274W        W73138  10.552  23.045  16.851
72275W        W73139   9.395  25.298  17.437
72276W        W73140  10.555  23.956  14.752
72277W        W73141   9.165  23.668  15.787
72278W        W73142  10.788  21.944  17.441
72279W        W73143   9.096  24.089  17.212
72280W        W73144   9.170  23.003  16.413
72281W        W73145  10.100  23.389  15.473
72282W        W73146  10.370  23.114  15.060
72283W        W73147  10.361  24.995  15.770
72284W        W73148  10.321  24.363  16.394
72285W        W73149   9.785  23.702  15.154
72286W        W73150   9.388  23.916  16.242
72287W        W73151  10.308  23.839  16.343
72288W        W73152   7.624  22.555  16.849
72289W        W73153  10.327  23.711  17.616
72290W        W73154   8.626  25.015  16.403
72291W        W73155  10.018  25.457  17.472
72292W        W73156   9.689  22.674  17.140
72293W        W73157   8.976  25.518  17.219
72294W        W73158  10.457  22.413  15.596
72295W        W73159  10.311  23.627  16.822
72296W        W73160   7.238  22.798  17.074
72297W        W73161  10.150  22.732  16.096
72298W        W73162  10.531  22.788  17.760
72299W        W73163   9.615  24.560  16.190
72300W        W73164   8.711  25.228  15.928
72301W        W73165   7.884  22.249  15.113
72302W        W73166   9.043  22.125  16.733
72303W        W73167   7.825  25.451  14.820
72304W        W73168   8.790  23.711  15.394
72305W        W73169   9.133  24.316  17.664
72306W        W73170   9.107  22.279  15.701
72307W        W73171  10.123  22.192  16.011
72308W        W73172  10.097  25.624  16.503
72309W        W73173   9.331  25.227  16.837
72310W        W73174   8.720  24.093  16.843
72311W        W73175  10.681  24.929  16.988
72312W        W73176   8.244  22.277  15.578
72313W        W73177   8.641  24.782  16.906
72314W        W73178   8.191  22.577  14.563
72315W        W73179   9.089  23.126  16.911
72316W        W73180   9.964  22.036  16.823
72317W        W73181   7.442  23.852  17.027
72318W        W73182   8.981  23.609  14.902
72319W        W73183   8.313  22.069  14.574
72320W        W73184   9.234  23.106  15.893
72321W        W73185   9.827  22.210  17.278
72322W        W73186   8.731  23.976  17.594
72323W        W73187   9.504  24.042  17.898
72324W        W73188  10.007  24.096  17.790
72325W        W73189   9.342  22.232  18.032
72326W        W73190   8.374  22.657  16.447
72327W        W73191   7.881  22.544  16.055
72328W        W73192   7.758  25.341  15.929
72329W        W73193   9.298  24.841  17.669
72330W        W73194   8.446  24.315  15.126
72331W        W73195   9.830  23.705  16.446
72332W        W73196   9.911  23.315  16.782
72333W        W73197   9.241  23.976  16.735
72334W        W73198   9.726  24.304  14.673
72335W        W73199   9.559  22.318  16.023
72336W        W73200  10.780  22.751  15.357
72337W        W73201   7.321  25.313  17.716
72338W        W73202   7.641  24.385  17.058
72339W        W73203   7.422  25.469  15.519
72340W        W73204   9.178  22.619  16.958
72341W        W73205   8.396  24.830  15.152
72342W        W73206  10.541  25.297  15.026
72343W        W73207   9.424  23.363  15.054
72344W        W73208   8.925  22.781  15.587
72345W        W73209   9.167  22.642  14.633
72346W        W73210   9.671  24.491  17.711
72347W        W73211  10.064  22.212  15.312
72348W        W73212   7.464  21.888  14.947
72349W        W73213   8.709  24.432  17.290
72350W        W73214   8.690  24.489  16.499
72351W        W73215   8.316  24.589  14.683
72352W        W73216   7.628  25.003  15.545
72353W        W73217   8.067  23.330  17.701
72354W        W73218   8.848  22.109  18.101
72355W        W73219   9.325  22.284  17.341
72356W        W73220   8.687  21.959  15.796
72357W        W73221   9.645  22.059  15.018
72358W        W73222   7.582  22.050  16.744
72359W        W73223   7.475  22.876  16.150
72360W        W73224  10.343  22.212  16.521
72361W        W73225   7.775  22.573  15.499
72362W        W73226  10.170  22.482  16.964
72363W        W73227  10.636  23.444  14.733
72364W        W73228   7.969  22.349  16.530
72365W        W73229   9.284  22.823  17.438
72366W        W73230   7.304  22.355  14.891
72367W        W73231   8.196  23.836  17.659
72368W        W73232   9.417  23.437  16.610
72369W        W73233   9.215  25.448  14.925
72370W        W73234   7.207  23.564  14.611
72371W        W73235   8.265  24.745  17.799
72372W        W73236   7.664  23.468  17.366
72373W        W73237   8.779  23.699  17.179
72374W        W73238  10.276  22.025  17.409
72375W        W73239  10.874  23.636  17.481
72376W        W73240  10.787  23.602  15.233
72377W        W73241   9.640  24.181  15.235
72378W        W73242  10.247  25.452  14.584
72379W        W73243   9.385  23.536  18.139
72380W        W73244   7.806  24.704  18.054
72381W        W73245  10.930  22.435  18.079
72382W        W73246  10.372  23.308  16.427
72383W        W73247   8.890  25.469  18.108
72384W        W73248   8.741  21.998  14.952
72385W        W73249  10.512  24.448  14.986
72386W        W73250   8.178  22.776  17.731
72387W        W73251   8.796  24.700  17.749
72388W        W73252  10.577  22.453  17.279
72389W        W73253   9.707  25.963  14.906
72390W        W73254  10.149  24.106  16.790
72391W        W73255   8.345  22.457  17.337
72392W        W73256   8.943  23.445  17.887
72393W        W73257   8.252  24.510  15.606
72394W        W73258  10.072  23.935  15.508
72395W        W73259   7.840  22.545  17.352
72396W        W73260   8.916  24.713  16.076
72397W        W73261  10.791  23.228  16.109
72398W        W73262   9.096  21.944  17.677
72399W        W73263  10.264  24.635  16.871
72400W        W73264  10.359  25.155  16.654
72401W        W73265   9.186  24.926  14.682
72402W        W73266   7.391  24.803  17.757
72403W        W73267   8.125  22.671  16.916
72404W        W73268   8.210  22.143  16.095
72405W        W73269   9.597  22.920  16.687
72406W        W73270   8.568  23.946  14.776
72407W        W73271  10.655  24.041  16.681
72408W        W73272   8.097  25.125  18.136
72409W        W73273  10.491  25.488  15.632
72410W        W73274   8.662  22.440  15.969
72411W        W73275   8.350  24.092  16.462
72412W        W73276   8.443  25.575  17.055
72413W        W73277  10.527  25.595  17.848
72414W        W73278   9.725  23.815  16.939
72415W        W73279   7.557  23.175  14.731
72416W        W73280  10.867  25.073  15.746
72417W        W73281  10.382  22.574  15.089
72418W        W73282   8.610  22.137  17.655
72419W        W73283  10.477  24.834  16.255
72420W        W73284  10.298  23.210  15.927
72421W        W73285   8.734  22.934  16.122
72422W        W73286   9.002  23.267  17.400
72423W        W73287  10.103  24.632  17.422
72424W        W73288   8.667  22.855  17.484
72425W        W73289   8.235  25.276  16.180
72426W        W73290   7.872  25.503  17.863
72427W        W73291   7.893  24.987  15.072
72428W        W73292  10.652  24.562  15.810
72429W        W73293   8.185  23.018  17.291
72430W        W73294  10.753  22.929  14.731
72431W        W73295   8.720  24.231  15.551
72432W        W73296   9.753  23.654  17.677
72433W        W73297   9.554  23.182  17.145
72434W        W73298   8.152  23.538  17.216
72435W        W73299  10.195  25.593  17.005
72436W        W73300  10.076  22.184  17.894
72437W        W73301   7.597  22.130  17.687
72438W        W73302   8.173  23.179  16.787
72439W        W73303   8.608  22.894  14.584
72440W        W73304   7.412  25.034  17.274
72441W        W73305   8.910  23.576  16.709
72442W        W73306   8.728  22.375  14.597
72443W        W73307   8.003  23.813  16.199
72444W        W73308   7.626  25.546  17.360
72445W        W73309  10.290  23.636  15.069
72446W        W73310  10.564  22.285  17.766
72447W        W73311  10.111  24.585  15.977
72448W        W73312   7.490  23.372  17.856
72449W        W73313  10.523  22.066  15.103
72450W        W73314  10.278  24.443  15.477
72451W        W73315   9.104  23.285  15.432
72452W        W73316  10.074  22.282  14.789
72453W        W73317  10.122  22.985  17.147
72454W        W73318   7.736  23.338  16.369
72455W        W73319   8.037  24.364  16.103
72456W        W73320   9.825  23.050  15.782
72457W        W73321   8.870  22.578  16.511
72458W        W73322  11.078  24.624  17.240
72459W        W73323  10.676  22.522  16.779
72460W        W73324   7.454  25.410  16.391
72461W        W73325   7.520  24.554  15.808
72462W        W73326   7.724  22.176  18.170
72463W        W73327   9.101  24.995  18.105
72464W        W73328  10.762  23.738  16.147
72465W        W73329  10.102  24.110  14.996
72466W        W73330   9.658  25.545  17.074
72467W        W73331  10.355  24.259  18.132
72468W        W73332   9.022  21.873  15.369
72469W        W73333   9.609  22.805  16.168
72470W        W73334   7.297  24.242  16.709
72471W        W73335   8.719  22.300  15.379
72472W        W73336   8.544  23.732  18.022
72473W        W73337   9.440  22.701  15.626
72474W        W73338   9.822  24.408  17.050
72475W        W73339   7.823  25.050  17.639
72476W        W73340   8.592  25.063  18.062
72477W        W73341   8.376  22.378  14.999
72478W        W73342   9.779  23.038  15.256
72479W        W73343   9.791  25.003  17.640
72480W        W73344   8.528  23.574  16.310
72481W        W73345   8.056  25.251  17.218
72482W        W73346  10.746  25.313  14.561
72483W        W73347   7.583  23.857  17.740
72484W        W73348   9.677  24.212  16.586
72485W        W73349   8.242  24.017  15.763
72486W        W73350   8.588  25.141  17.272
72487W        W73351   9.101  22.148  16.210
72488W        W73352   7.112  23.710  15.125
72489W        W73353   9.053  23.125  14.729
72490W        W73354   7.466  23.679  16.075
72491W        W73355   8.827  22.322  17.213
72492W        W73356  10.589  22.160  14.599
72493W        W73357  10.714  23.949  17.869
72494W        W73358   9.447  25.322  17.951
72495W        W73359  10.948  24.155  17.429
72496W        W73360  10.438  25.167  18.148
72497W        W73361   8.087  25.571  16.615
72498W        W73362  10.821  24.056  15.734
72499W        W73363   9.539  23.462  16.077
72500W        W73364   9.212  21.789  15.861
72501W        W73365   8.405  24.808  15.997
72502W        W73366   8.647  22.749  16.959
72503W        W73367   8.628  22.127  16.386
72504W        W73368   7.408  25.236  15.051
72505W        W73369   9.080  24.195  15.930
72506W        W73370   8.302  25.255  17.679
72507W        W73371   7.716  24.061  15.814
72508W        W73372   7.470  22.410  16.364
72509W        W73373   9.192  24.381  16.407
72510W        W73374   7.435  22.181  15.387
72511W        W73375   9.981  23.482  17.262
72512W        W73376  10.013  22.806  14.823
72513W        W73377  10.772  24.574  16.609
72514W        W73378   9.077  24.869  16.562
72515W        W73379   8.566  25.298  15.411
72516W        W73380   9.694  21.986  14.520
72517W        W73381   7.663  25.299  16.888
72518W        W73382   9.505  22.877  18.044
72519W        W73383   7.734  22.582  17.870
72520W        W73384   7.352  23.065  15.689
72521W        W73385   8.720  23.192  15.111
72522W        W73386   9.865  23.274  18.015
72523W        W73387   8.413  23.663  16.798
72524W        W73388   9.729  21.846  15.933
72525W        W73389   9.074  25.352  16.359
72526W        W73390  10.176  25.072  17.147
72527W        W73391   9.985  24.769  16.474
72528W        W73392   9.898  24.116  16.135
72529W        W73393   9.180  22.311  15.080
72530W        W73394  10.883  22.009  15.854
72531W        W73395   8.534  23.405  14.663
72532W        W73396  10.622  22.818  15.855
72533W        W73397   9.387  23.937  14.827
72534W        W73398  10.445  24.265  17.564
72535W        W73399  10.206  24.711  14.639
72536W        W73400   8.587  22.574  17.959
72537W        W73401   8.595  23.244  17.081
72538W        W73402  10.629  24.746  17.455
72539W        W73403   9.642  22.506  17.692
72540W        W73404   7.243  23.124  17.473
72541W        W73405   9.276  23.603  17.091
72542W        W73406   7.461  24.240  16.221
72543W        W73407   7.767  23.495  16.856
72544W        W73408  10.068  24.011  17.287
72545W        W73409   9.973  25.347  17.970
72546W        W73410   9.792  22.984  17.550
72547W        W73411  10.090  25.193  16.204
72548W        W73412   9.067  24.946  17.191
72549W        W73413   8.296  25.138  16.777
72550W        W73414  10.651  24.386  17.076
72551W        W73415   9.278  24.460  18.135
72552W        W73416   7.819  24.381  16.574
72553W        W73417  10.356  24.128  15.912
72554W        W73418   9.859  25.214  16.736
72555W        W73419   7.901  24.812  16.896
72556W        W73420   9.009  22.946  17.874
72557W        W73421   9.051  25.164  15.496
72558W        W73422   8.811  24.634  18.286
72559W        W73423   8.692  24.793  15.576
72560W        W73424   8.055  23.100  14.415
72561W        W73425   7.360  25.638  21.698
72562W        W73426   7.841  24.472  21.239
72563W        W73427  10.698  24.042  18.981
72564W        W73428  10.754  25.351  21.012
72565W        W73429   8.322  25.340  18.570
72566W        W73430   8.733  23.374  19.347
72567W        W73431   8.300  23.074  19.708
72568W        W73432   9.055  23.932  19.361
72569W        W73433   8.688  25.190  21.092
72570W        W73434   7.312  22.736  21.234
72571W        W73435   7.967  22.041  21.000
72572W        W73436   9.883  22.348  19.850
72573W        W73437   9.634  23.194  18.470
72574W        W73438  10.087  22.778  21.486
72575W        W73439   7.485  22.374  20.776
72576W        W73440   7.460  25.134  21.758
72577W        W73441   9.054  24.314  18.618
72578W        W73442   7.464  23.025  20.256
72579W        W73443   8.498  23.140  21.386
72580W        W73444  10.602  22.865  20.054
72581W        W73445  10.596  24.143  20.727
72582W        W73446   9.249  23.125  19.961
72583W        W73447   9.567  24.735  20.253
72584W        W73448   7.942  24.009  20.609
72585W        W73449   7.131  23.464  20.198
72586W        W73450   8.564  23.576  21.084
72587W        W73451  10.626  23.463  21.459
72588W        W73452   8.178  24.611  19.960
72589W        W73453   9.295  24.601  20.944
72590W        W73454   8.798  23.130  20.205
72591W        W73455   8.930  23.942  19.854
72592W        W73456   9.597  24.764  21.749
72593W        W73457   9.004  23.914  21.620
72594W        W73458   9.110  23.730  21.155
72595W        W73459   6.879  22.938  21.536
72596W        W73460  10.115  24.767  21.343
72597W        W73461   7.753  22.155  19.349
72598W        W73462   8.287  24.300  20.357
72599W        W73463  10.700  24.421  19.895
72600W        W73464  10.298  22.412  20.147
72601W        W73465  10.416  22.562  18.200
72602W        W73466  10.932  23.401  20.712
72603W        W73467   8.781  25.148  20.279
72604W        W73468  10.756  24.899  18.876
72605W        W73469   7.879  25.657  18.881
72606W        W73470   8.212  25.540  19.469
72607W        W73471   8.113  22.258  20.551
72608W        W73472  10.493  23.357  20.941
72609W        W73473  10.070  23.634  19.539
72610W        W73474  10.092  23.419  18.485
72611W        W73475   9.134  24.515  20.445
72612W        W73476   9.222  22.703  19.664
72613W        W73477   9.581  24.955  20.727
72614W        W73478  10.556  23.700  19.335
72615W        W73479   9.400  22.600  19.077
72616W        W73480   8.076  25.218  19.035
72617W        W73481   7.417  22.525  19.439
72618W        W73482  10.127  23.104  20.004
72619W        W73483   7.728  24.841  20.029
72620W        W73484   8.815  25.143  18.525
72621W        W73485  10.357  23.102  18.170
72622W        W73486   7.517  24.857  20.491
72623W        W73487   8.186  24.418  20.853
72624W        W73488   8.568  23.865  19.487
72625W        W73489   8.614  22.423  20.474
72626W        W73490  10.739  22.026  20.093
72627W        W73491   8.613  24.260  18.010
72628W        W73492   7.607  22.672  18.356
72629W        W73493   7.903  24.839  19.542
72630W        W73494   8.866  24.374  19.592
72631W        W73495  10.310  25.225  21.197
72632W        W73496   9.344  23.076  18.869
72633W        W73497  10.592  25.354  19.885
72634W        W73498  10.154  23.309  21.324
72635W        W73499  10.994  24.753  19.627
72636W        W73500   9.616  24.031  21.049
72637W        W73501   7.226  23.667  19.256
72638W        W73502   8.478  23.983  20.694
72639W        W73503   9.719  23.381  19.082
72640W        W73504   9.573  23.778  19.371
72641W        W73505   7.891  23.142  20.558
72642W        W73506   7.769  23.069  21.225
72643W        W73507   7.704  21.987  19.827
72644W        W73508   9.434  22.457  20.068
72645W        W73509   9.181  22.448  21.424
72646W        W73510   9.458  22.692  18.552
72647W        W73511  10.881  25.157  21.477
72648W        W73512   9.594  22.063  21.408
72649W        W73513  10.511  24.507  21.642
72650W        W73514  10.123  22.556  21.019
72651W        W73515   9.820  22.606  19.391
72652W        W73516  10.210  23.606  21.785
72653W        W73517   8.009  25.238  19.835
72654W        W73518   8.960  22.719  18.773
72655W        W73519   8.209  22.226  21.438
72656W        W73520  10.305  22.827  19.177
72657W        W73521  10.709  23.208  19.163
72658W        W73522   8.370  25.294  21.527
72659W        W73523   8.258  22.018  18.788
72660W        W73524  10.658  22.418  19.803
72661W        W73525  10.848  24.938  18.372
72662W        W73526   7.467  23.878  20.143
72663W        W73527   9.759  22.453  18.212
72664W        W73528  10.824  24.904  20.113
72665W        W73529  10.717  22.027  20.627
72666W        W73530   9.124  24.457  19.112
72667W        W73531   9.767  23.743  22.021
72668W        W73532   9.380  21.951  20.017
72669W        W73533   7.921  22.943  20.034
72670W        W73534   7.676  24.013  21.070
72671W        W73535   9.498  25.100  19.870
72672W        W73536  10.350  22.738  20.552
72673W        W73537   9.225  25.178  21.087
72674W        W73538  10.659  23.952  18.450
72675W        W73539   9.133  23.507  19.654
72676W        W73540  10.771  22.009  21.156
72677W        W73541   9.122  24.128  20.793
72678W        W73542   9.417  22.882  20.367
72679W        W73543  10.219  23.343  19.135
72680W        W73544  10.417  23.104  18.728
72681W        W73545  10.312  25.005  19.106
72682W        W73546  10.177  24.479  19.957
72683W        W73547  10.020  23.832  19.064
72684W        W73548   9.451  23.871  19.860
72685W        W73549  10.411  23.557  20.054
72686W        W73550   7.776  22.647  20.433
72687W        W73551  10.398  23.826  21.082
72688W        W73552  10.750  25.355  20.379
72689W        W73553   8.644  24.837  19.787
72690W        W73554   9.847  25.302  21.029
72691W        W73555   9.697  22.702  20.764
72692W        W73556   8.970  25.453  20.707
72693W        W73557  10.523  22.374  19.302
72694W        W73558  10.430  23.698  20.560
72695W        W73559   7.492  22.894  20.775
72696W        W73560  10.230  22.690  19.699
72697W        W73561  10.481  22.889  21.127
72698W        W73562   9.663  24.603  19.766
72699W        W73563   8.859  25.219  19.462
72700W        W73564   7.830  22.291  18.651
72701W        W73565   8.978  22.068  20.326
72702W        W73566   7.865  25.511  18.391
72703W        W73567   8.807  23.743  18.959
72704W        W73568   9.206  24.248  21.295
72705W        W73569   8.977  22.419  19.315
72706W        W73570  10.314  22.052  19.739
72707W        W73571  10.086  25.481  20.004
72708W        W73572   9.287  25.181  20.355
72709W        W73573   8.807  24.117  20.315
72710W        W73574  10.628  24.964  20.699
72711W        W73575   8.224  22.343  19.209
72712W        W73576   8.649  24.642  20.249
72713W        W73577   8.122  22.581  18.225
72714W        W73578   9.145  23.265  20.566
72715W        W73579   9.799  22.185  20.332
72716W        W73580   7.418  23.971  20.633
72717W        W73581   9.193  23.537  18.622
72718W        W73582   8.221  22.080  18.280
72719W        W73583   9.017  22.945  19.245
72720W        W73584   9.797  22.198  20.858
72721W        W73585   8.729  24.094  21.124
72722W        W73586   9.522  23.948  21.580
72723W        W73587   9.982  23.828  21.376
72724W        W73588   9.211  22.097  21.812
72725W        W73589   8.454  22.770  20.105
72726W        W73590   7.942  22.621  19.591
72727W        W73591   7.733  25.329  19.407
72728W        W73592   9.181  24.750  21.431
72729W        W73593   8.522  24.313  18.580
72730W        W73594   9.934  23.751  20.015
72731W        W73595  10.030  23.395  20.416
72732W        W73596   9.305  23.984  20.333
72733W        W73597   9.806  24.324  18.214
72734W        W73598   9.457  22.266  19.564
72735W        W73599  10.829  22.707  19.039
72736W        W73600   7.498  25.237  21.255
72737W        W73601   7.654  24.436  20.771
72738W        W73602   7.405  25.564  19.083
72739W        W73603   9.276  22.426  20.558
72740W        W73604   8.771  24.704  18.796
72741W        W73605  10.459  25.255  18.661
72742W        W73606   9.691  23.684  18.672
72743W        W73607   8.549  22.758  19.180
72744W        W73608   9.042  22.587  18.242
72745W        W73609   9.731  24.386  21.424
72746W        W73610  10.080  22.356  18.999
72747W        W73611   7.382  22.013  18.531
72748W        W73612   8.692  24.431  20.699
72749W        W73613   8.474  24.190  19.891
72750W        W73614   8.386  24.833  18.485
72751W        W73615   7.655  24.905  19.085
72752W        W73616   8.113  23.490  21.367
72753W        W73617   8.688  22.106  21.699
72754W        W73618   9.326  22.208  21.009
72755W        W73619   8.631  22.061  19.441
72756W        W73620   9.649  22.221  18.675
72757W        W73621   7.676  22.162  20.316
72758W        W73622   7.459  22.939  19.750
72759W        W73623  10.265  21.908  20.239
72760W        W73624   7.789  22.606  19.073
72761W        W73625  10.242  22.235  20.623
72762W        W73626  10.684  23.418  18.419
72763W        W73627   8.075  22.437  20.074
72764W        W73628   9.239  22.755  21.010
72765W        W73629   7.179  22.486  18.547
72766W        W73630   8.173  23.915  21.079
72767W        W73631   9.529  23.472  20.254
72768W        W73632   9.287  25.344  18.462
72769W        W73633   7.084  23.635  18.235
72770W        W73634   8.322  24.345  21.336
72771W        W73635   7.802  23.522  20.939
72772W        W73636   8.878  23.683  20.674
72773W        W73637  10.246  22.056  21.115
72774W        W73638  10.901  23.766  21.108
72775W        W73639  10.928  23.586  18.872
72776W        W73640   9.307  23.953  18.920
72777W        W73641  10.268  25.613  18.316
72778W        W73642   9.336  23.495  21.712
72779W        W73643   7.842  24.493  21.740
72780W        W73644  10.932  22.485  21.737
72781W        W73645  10.529  23.207  20.433
72782W        W73646   8.880  25.352  21.570
72783W        W73647   8.709  21.893  18.548
72784W        W73648  10.352  24.744  18.425
72785W        W73649   8.204  22.732  21.334
72786W        W73650   8.790  24.642  21.126
72787W        W73651  10.616  22.446  20.900
72788W        W73652  10.066  25.573  18.794
72789W        W73653  10.209  24.103  20.309
72790W        W73654   8.357  22.404  20.961
72791W        W73655   8.872  23.439  21.514
72792W        W73656   8.277  24.734  19.010
72793W        W73657  10.336  24.183  19.328
72794W        W73658   7.897  22.626  20.945
72795W        W73659   9.195  24.780  19.535
72796W        W73660  10.919  23.233  19.808
72797W        W73661   9.044  21.955  21.349
72798W        W73662  10.017  24.573  20.448
72799W        W73663  10.342  25.041  20.265
72800W        W73664   9.233  24.804  18.560
72801W        W73665   7.446  24.714  21.457
72802W        W73666   8.272  22.790  20.593
72803W        W73667   8.163  22.155  19.671
72804W        W73668   9.899  22.700  20.285
72805W        W73669   8.817  23.890  18.468
72806W        W73670  10.699  24.027  20.223
72807W        W73671   7.889  24.975  21.480
72808W        W73672  10.449  25.550  19.171
72809W        W73673   8.545  22.528  19.654
72810W        W73674   7.984  24.021  20.049
72811W        W73675   8.474  25.385  20.601
72812W        W73676  10.584  25.565  21.481
72813W        W73677   9.792  23.856  20.487
72814W        W73678   7.371  23.199  18.354
72815W        W73679  10.742  25.157  19.377
72816W        W73680  10.433  22.601  18.714
72817W        W73681   8.568  21.986  21.150
72818W        W73682  10.477  24.868  19.751
72819W        W73683  10.441  23.278  19.618
72820W        W73684   8.803  22.989  19.713
72821W        W73685   8.948  23.234  21.040
72822W        W73686   9.851  24.559  20.951
72823W        W73687   8.625  22.833  21.005
72824W        W73688   8.523  25.347  19.846
72825W        W73689   7.863  25.480  21.570
72826W        W73690   7.916  24.979  18.599
72827W        W73691  10.617  24.630  19.317
72828W        W73692   8.201  23.138  20.974
72829W        W73693  10.772  22.885  18.400
72830W        W73694   8.650  24.258  19.113
72831W        W73695   9.583  23.526  21.248
72832W        W73696   9.626  23.224  20.721
72833W        W73697   8.228  23.553  20.670
72834W        W73698  10.230  25.485  20.548
72835W        W73699  10.058  22.240  21.594
72836W        W73700   7.608  22.287  21.272
72837W        W73701   8.292  23.259  20.230
72838W        W73702   8.640  22.891  18.394
72839W        W73703   7.348  24.819  20.967
72840W        W73704   9.030  23.580  20.181
72841W        W73705   8.600  22.387  18.442
72842W        W73706   8.106  23.569  19.832
72843W        W73707   7.498  25.297  20.735
72844W        W73708  10.427  23.646  18.801
72845W        W73709  10.521  22.415  21.398
72846W        W73710  10.106  24.643  19.470
72847W        W73711   7.588  23.604  21.397
72848W        W73712  10.531  22.114  18.805
72849W        W73713  10.436  24.471  18.864
72850W        W73714   9.210  23.472  19.150
72851W        W73715  10.134  22.235  18.476
72852W        W73716  10.092  23.066  20.833
72853W        W73717   7.592  23.406  19.929
72854W        W73718   8.336  24.508  19.484
72855W        W73719   9.978  23.094  19.492
72856W        W73720   8.960  22.646  20.119
72857W        W73721  10.906  24.537  20.810
72858W        W73722  10.760  22.479  20.388
72859W        W73723   7.427  25.218  19.810
72860W        W73724   7.859  24.436  19.245
72861W        W73725   7.776  22.191  21.755
72862W        W73726   8.707  24.881  21.555
72863W        W73727  10.834  23.778  19.778
72864W        W73728  10.133  23.986  18.543
72865W        W73729   9.496  25.473  20.715
72866W        W73730  10.113  24.143  21.769
72867W        W73731   8.916  21.895  19.027
72868W        W73732   9.688  22.854  19.842
72869W        W73733   7.273  24.335  19.968
72870W        W73734   8.657  22.313  18.936
72871W        W73735   8.486  23.876  21.521
72872W        W73736   9.485  23.046  19.388
72873W        W73737   9.582  24.317  20.606
72874W        W73738   7.853  24.897  20.953
72875W        W73739   8.265  24.800  21.772
72876W        W73740   8.246  22.586  18.751
72877W        W73741   9.834  22.892  18.950
72878W        W73742   9.624  24.897  21.247
72879W        W73743   8.634  23.480  19.853
72880W        W73744   7.995  25.221  20.594
72881W        W73745  10.838  25.447  18.365
72882W        W73746   7.443  24.185  21.492
72883W        W73747   9.734  24.234  20.124
72884W        W73748   8.090  24.052  19.539
72885W        W73749   8.429  24.884  20.710
72886W        W73750   8.992  22.243  19.810
72887W        W73751   7.400  24.423  18.986
72888W        W73752   9.141  23.077  18.375
72889W        W73753   7.631  23.853  19.667
72890W        W73754   8.867  22.380  20.925
72891W        W73755  10.594  22.090  18.278
72892W        W73756  10.533  23.960  21.554
72893W        W73757   9.378  25.227  21.600
72894W        W73758  10.772  24.273  21.224
72895W        W73759  10.421  25.037  21.669
72896W        W73760   8.178  25.546  20.219
72897W        W73761  10.877  24.198  19.467
72898W        W73762   9.647  23.395  19.746
72899W        W73763   9.136  21.868  19.492
72900W        W73764   8.347  25.054  19.441
72901W        W73765   8.928  22.809  20.601
72902W        W73766   8.543  22.159  20.037
72903W        W73767   7.507  25.247  18.686
72904W        W73768   9.405  24.261  19.496
72905W        W73769   8.308  24.841  21.216
72906W        W73770   7.653  23.969  19.163
72907W        W73771   7.575  22.484  19.941
72908W        W73772   9.239  24.347  19.972
72909W        W73773   7.397  22.278  18.979
72910W        W73774   9.971  23.590  20.900
72911W        W73775  10.021  22.829  18.467
72912W        W73776  10.538  24.539  20.374
72913W        W73777   9.093  24.831  20.034
72914W        W73778   8.589  25.164  18.991
72915W        W73779   9.728  21.934  18.203
72916W        W73780   7.683  25.336  20.228
72917W        W73781   9.437  22.913  21.607
72918W        W73782   7.742  22.687  21.569
72919W        W73783   7.410  23.135  19.268
72920W        W73784   8.842  23.219  18.839
72921W        W73785   9.799  23.274  21.694
72922W        W73786   8.413  23.775  20.225
72923W        W73787   9.915  22.066  19.411
72924W        W73788   9.062  25.376  19.918
72925W        W73789  10.111  24.994  20.736
72926W        W73790   9.990  24.966  19.913
72927W        W73791   9.893  24.129  19.636
72928W        W73792   9.099  22.250  18.637
72929W        W73793  10.801  21.983  19.533
72930W        W73794   8.746  23.395  18.357
72931W        W73795  10.687  22.843  19.531
72932W        W73796   9.385  23.992  18.395
72933W        W73797  10.229  24.276  21.270
72934W        W73798   9.994  25.152  18.439
72935W        W73799   8.660  22.498  21.391
72936W        W73800   8.607  23.222  20.661
72937W        W73801  10.619  24.803  21.210
72938W        W73802   9.666  22.538  21.257
72939W        W73803   7.327  23.274  21.061
72940W        W73804   9.398  23.683  20.738
72941W        W73805   7.754  24.380  19.758
72942W        W73806   7.873  23.591  20.311
72943W        W73807  10.074  24.119  20.807
72944W        W73808   9.905  25.209  21.541
72945W        W73809   9.733  23.036  21.197
72946W        W73810  10.222  25.265  19.543
72947W        W73811   8.956  24.924  20.708
72948W        W73812   8.295  25.040  20.211
72949W        W73813  10.352  24.560  20.860
72950W        W73814   9.203  24.381  21.803
72951W        W73815   7.681  24.362  20.275
72952W        W73816  10.369  24.007  19.809
72953W        W73817   9.809  25.218  20.345
72954W        W73818   8.003  24.712  20.469
72955W        W73819   8.959  22.915  21.434
72956W        W73820   9.092  25.046  19.018
72957W        W73821   8.764  24.366  21.566
72958W        W73822   8.735  24.757  19.287
72959W        W73823   7.842  23.039  18.072
72960W        W73824   7.444  25.584  25.336
72961W        W73825   7.935  24.493  24.877
72962W        W73826  10.467  24.052  22.595
72963W        W73827  10.792  25.471  24.703
72964W        W73828   8.166  25.295  21.994
72965W        W73829   8.608  23.558  23.347
72966W        W73830   7.984  23.472  23.749
72967W        W73831   9.176  23.761  22.538
72968W        W73832   9.082  25.134  24.927
72969W        W73833   7.315  22.658  24.968
72970W        W73834   7.962  21.963  24.799
72971W        W73835   9.880  22.294  23.652
72972W        W73836   9.445  22.910  22.140
72973W        W73837  10.025  22.805  25.235
72974W        W73838   7.454  22.303  24.571
72975W        W73839   7.699  25.131  25.361
72976W        W73840   8.694  24.602  22.018
72977W        W73841   7.305  22.948  23.985
72978W        W73842   8.562  23.170  25.142
72979W        W73843  10.691  22.827  23.829
72980W        W73844  10.535  24.133  24.579
72981W        W73845   9.069  23.439  23.505
72982W        W73846   9.510  24.641  23.812
72983W        W73847   7.879  24.078  24.212
72984W        W73848   7.097  23.661  24.018
72985W        W73849   8.513  23.618  24.864
72986W        W73850  10.601  23.374  25.129
72987W        W73851   8.151  24.955  23.748
72988W        W73852   9.307  24.674  24.748
72989W        W73853   8.965  23.147  23.894
72990W        W73854   8.718  24.090  23.657
72991W        W73855   9.658  24.789  25.576
72992W        W73856   9.061  23.934  25.472
72993W        W73857   8.987  23.842  24.868
72994W        W73858   6.901  22.917  25.317
72995W        W73859  10.100  24.837  25.076
72996W        W73860   7.710  22.190  23.099
72997W        W73861   8.404  24.842  24.226
72998W        W73862  10.755  24.485  23.543
72999W        W73863  10.276  22.524  23.887
73000W        W73864  10.397  22.582  21.859
73001W        W73865  10.849  23.460  24.442
73002W        W73866   8.901  25.509  24.162
73003W        W73867  10.744  24.852  22.532
73004W        W73868   7.612  25.509  22.574
73005W        W73869   7.990  25.414  22.943
73006W        W73870   7.964  22.255  24.383
73007W        W73871  10.418  23.226  24.601
73008W        W73872   9.809  23.538  23.087
73009W        W73873   9.874  23.238  22.208
73010W        W73874   9.217  24.597  24.235
73011W        W73875   9.200  22.825  23.546
73012W        W73876   9.611  24.918  24.255
73013W        W73877  10.293  23.650  22.869
73014W        W73878   9.349  22.281  22.828
73015W        W73879   7.880  25.073  22.536
73016W        W73880   7.209  22.330  22.987
73017W        W73881  10.227  23.014  23.688
73018W        W73882   7.641  24.930  23.771
73019W        W73883   8.636  25.112  21.998
73020W        W73884  10.268  23.099  21.849
73021W        W73885   7.415  24.931  24.246
73022W        W73886   8.374  24.760  24.734
73023W        W73887   8.541  24.054  23.137
73024W        W73888   8.447  22.456  24.162
73025W        W73889  10.877  22.038  23.763
73026W        W73890   7.950  24.014  21.525
73027W        W73891   7.654  22.559  22.090
73028W        W73892   7.772  24.960  23.033
73029W        W73893   8.372  24.479  23.366
73030W        W73894  10.351  25.257  24.863
73031W        W73895   9.287  22.738  22.609
73032W        W73896  10.604  25.461  23.599
73033W        W73897  10.110  23.265  25.011
73034W        W73898  11.027  24.923  23.357
73035W        W73899   9.601  24.214  24.733
73036W        W73900   7.135  23.468  23.201
73037W        W73901   8.255  24.365  24.412
73038W        W73902   9.533  23.160  22.792
73039W        W73903   9.459  23.966  22.957
73040W        W73904   7.711  23.077  24.447
73041W        W73905   7.793  23.118  24.981
73042W        W73906   7.671  22.021  23.606
73043W        W73907   9.352  22.522  23.952
73044W        W73908   9.182  22.511  25.194
73045W        W73909   9.592  22.435  22.269
73046W        W73910  10.826  25.130  25.095
73047W        W73911   9.656  22.153  25.040
73048W        W73912  10.574  24.647  25.226
73049W        W73913  10.147  22.570  24.803
73050W        W73914   9.813  22.362  23.107
73051W        W73915  10.224  23.673  25.356
73052W        W73916   7.865  25.265  23.428
73053W        W73917   8.870  22.766  22.322
73054W        W73918   8.138  22.293  25.153
73055W        W73919  10.226  22.764  22.854
73056W        W73920  10.538  23.188  22.857
73057W        W73921   8.533  25.493  25.452
73058W        W73922   8.434  22.090  22.619
73059W        W73923  10.607  22.386  23.530
73060W        W73924  10.801  24.832  21.978
73061W        W73925   7.511  23.966  23.876
73062W        W73926   9.591  22.445  21.760
73063W        W73927  10.891  25.066  23.845
73064W        W73928  10.692  22.003  24.443
73065W        W73929   9.218  23.512  25.166
73066W        W73930   9.103  24.362  22.320
73067W        W73931   9.804  23.834  25.616
73068W        W73932   9.457  22.005  23.831
73069W        W73933   7.821  22.981  23.904
73070W        W73934   7.760  24.023  24.708
73071W        W73935   9.336  25.464  23.456
73072W        W73936  10.312  22.801  24.324
73073W        W73937   9.480  25.440  24.787
73074W        W73938  10.494  23.924  22.081
73075W        W73939   9.245  23.512  23.005
73076W        W73940  10.858  21.982  24.919
73077W        W73941   9.131  24.188  24.529
73078W        W73942   9.475  23.047  23.951
73079W        W73943  10.035  23.244  22.716
73080W        W73944  10.380  23.169  22.351
73081W        W73945  10.373  25.109  22.805
73082W        W73946  10.150  24.068  23.980
73083W        W73947   9.689  23.618  22.584
73084W        W73948   9.490  23.731  23.443
73085W        W73949  10.298  23.587  23.779
73086W        W73950   7.637  22.625  24.226
73087W        W73951  10.375  23.701  24.814
73088W        W73952  10.834  25.512  24.078
73089W        W73953   8.630  24.885  23.595
73090W        W73954   9.465  22.777  24.428
73091W        W73955   9.000  25.583  24.663
73092W        W73956  10.528  22.385  23.021
73093W        W73957  10.381  23.699  24.296
73094W        W73958   7.242  22.818  24.482
73095W        W73959  10.172  22.610  23.366
73096W        W73960  10.488  22.886  24.988
73097W        W73961   9.293  24.233  23.537
73098W        W73962   8.749  25.159  23.164
73099W        W73963   8.027  22.224  22.286
73100W        W73964   9.026  22.141  24.104
73101W        W73965   7.697  25.458  22.076
73102W        W73966   8.779  23.664  22.857
73103W        W73967   9.131  24.303  25.061
73104W        W73968   9.008  22.504  23.178
73105W        W73969  10.208  22.085  23.306
73106W        W73970  10.114  25.566  23.740
73107W        W73971   9.327  25.265  23.947
73108W        W73972   8.740  24.378  24.236
73109W        W73973  10.709  25.066  24.362
73110W        W73974   8.220  22.365  23.023
73111W        W73975   8.891  24.979  24.050
73112W        W73976   8.163  22.531  21.853
73113W        W73977   9.065  23.099  24.377
73114W        W73978   9.894  22.095  24.113
73115W        W73979   7.378  24.002  24.358
73116W        W73980   8.909  23.589  22.031
73117W        W73981   8.240  21.956  21.898
73118W        W73982   9.053  23.028  23.057
73119W        W73983   9.782  22.332  24.554
73120W        W73984   8.691  24.333  24.760
73121W        W73985   9.502  23.978  25.214
73122W        W73986   9.938  23.890  24.970
73123W        W73987   9.195  22.166  25.568
73124W        W73988   8.318  22.825  23.780
73125W        W73989   7.888  22.582  23.411
73126W        W73990   7.459  25.358  23.029
73127W        W73991   9.244  24.779  25.283
73128W        W73992   8.591  24.406  22.490
73129W        W73993   9.846  23.370  23.634
73130W        W73994   9.974  23.143  24.121
73131W        W73995   9.140  24.090  24.017
73132W        W73996   9.667  24.274  21.966
73133W        W73997   9.424  22.365  23.447
73134W        W73998  10.711  22.705  22.662
73135W        W73999   7.685  25.412  24.923
73136W        W74000   7.627  24.471  24.462
73137W        W74001   7.090  25.303  22.633
73138W        W74002   8.938  22.586  24.369
73139W        W74003   8.291  24.841  22.294
73140W        W74004  10.675  25.389  22.491
73141W        W74005   9.386  23.420  22.211
73142W        W74006   8.591  22.753  23.004
73143W        W74007   9.080  22.595  21.893
73144W        W74008   9.676  24.497  25.145
73145W        W74009   9.982  22.349  22.626
73146W        W74010   7.359  22.129  22.084
73147W        W74011   8.846  24.790  24.541
73148W        W74012   8.397  24.471  23.869
73149W        W74013   8.318  24.279  21.843
73150W        W74014   7.319  24.884  22.816
73151W        W74015   8.009  23.633  25.005
73152W        W74016   8.720  22.156  25.316
73153W        W74017   9.291  22.347  24.687
73154W        W74018   8.664  22.087  23.099
73155W        W74019   9.581  21.973  22.467
73156W        W74020   7.561  22.125  24.098
73157W        W74021   7.487  22.937  23.484
73158W        W74022  10.411  22.030  23.963
73159W        W74023   7.547  22.308  22.570
73160W        W74024  10.269  22.300  24.372
73161W        W74025  10.660  23.406  21.976
73162W        W74026   7.982  22.459  23.900
73163W        W74027   9.114  22.822  24.807
73164W        W74028   7.118  22.587  22.172
73165W        W74029   8.257  24.071  24.831
73166W        W74030   9.361  23.575  23.934
73167W        W74031   9.068  25.389  22.045
73168W        W74032   7.230  23.667  21.772
73169W        W74033   8.375  24.473  25.166
73170W        W74034   7.654  23.527  24.662
73171W        W74035   8.655  23.921  24.464
73172W        W74036  10.246  22.075  24.834
73173W        W74037  10.874  23.785  24.870
73174W        W74038  10.657  23.579  22.488
73175W        W74039   9.561  24.101  22.453
73176W        W74040  10.224  25.491  21.835
73177W        W74041   9.372  23.544  25.635
73178W        W74042   7.902  24.540  25.401
73179W        W74043  11.002  22.473  25.476
73180W        W74044  10.505  23.234  24.090
73181W        W74045   8.937  25.181  25.415
73182W        W74046   8.705  21.891  22.198
73183W        W74047  10.468  24.458  22.184
73184W        W74048   8.213  22.795  25.020
73185W        W74049   8.804  24.725  25.055
73186W        W74050  10.645  22.509  24.646
73187W        W74051  10.273  25.671  22.312
73188W        W74052   9.882  23.639  24.087
73189W        W74053   8.328  22.431  24.680
73190W        W74054   8.848  23.457  25.512
73191W        W74055   8.114  24.637  22.819
73192W        W74056   9.962  24.025  22.815
73193W        W74057   7.806  22.632  24.746
73194W        W74058   8.883  24.430  23.291
73195W        W74059  10.688  23.300  23.600
73196W        W74060   9.130  22.017  25.053
73197W        W74061  10.021  24.791  23.960
73198W        W74062  10.379  25.186  23.971
73199W        W74063   9.104  24.890  21.916
73200W        W74064   7.468  24.680  25.105
73201W        W74065   8.119  22.784  24.359
73202W        W74066   8.161  22.148  23.504
73203W        W74067   9.838  22.632  24.110
73204W        W74068   8.770  24.093  22.034
73205W        W74069  10.632  24.196  24.061
73206W        W74070   8.108  24.927  25.139
73207W        W74071  10.486  25.640  22.930
73208W        W74072   8.547  22.478  23.449
73209W        W74073   7.943  24.228  23.724
73210W        W74074   8.588  25.815  24.471
73211W        W74075  10.597  25.612  25.184
73212W        W74076   9.524  23.911  24.319
73213W        W74077   7.376  23.136  21.567
73214W        W74078  10.827  25.259  23.016
73215W        W74079  10.293  22.676  22.348
73216W        W74080   8.475  21.983  24.899
73217W        W74081  10.503  24.950  23.518
73218W        W74082  10.272  23.334  23.287
73219W        W74083   8.716  22.993  23.465
73220W        W74084   8.928  23.313  24.808
73221W        W74085   9.825  24.686  24.653
73222W        W74086   8.618  22.878  24.701
73223W        W74087   8.386  25.354  23.471
73224W        W74088   8.103  25.451  25.199
73225W        W74089   7.827  24.919  22.037
73226W        W74090  10.653  24.750  23.066
73227W        W74091   8.216  23.218  24.703
73228W        W74092  10.744  22.890  22.094
73229W        W74093   8.964  24.169  22.815
73230W        W74094   9.492  23.690  24.772
73231W        W74095   9.533  23.334  24.373
73232W        W74096   8.144  23.706  24.480
73233W        W74097  10.369  25.507  24.366
73234W        W74098  10.115  22.278  25.309
73235W        W74099   7.616  22.235  25.054
73236W        W74100   8.142  23.270  24.197
73237W        W74101   8.595  22.833  21.809
73238W        W74102   7.666  24.947  24.701
73239W        W74103   8.830  23.675  23.962
73240W        W74104   8.590  22.380  22.123
73241W        W74105   8.257  23.873  23.545
73242W        W74106   7.708  25.535  24.442
73243W        W74107  10.159  23.639  22.361
73244W        W74108  10.597  22.383  25.141
73245W        W74109  10.250  24.370  23.573
73246W        W74110   7.458  23.566  25.139
73247W        W74111  10.480  22.227  22.498
73248W        W74112  10.353  24.539  22.701
73249W        W74113   9.057  23.226  22.559
73250W        W74114  10.079  22.259  22.124
73251W        W74115   9.909  22.988  24.612
73252W        W74116   7.452  23.422  23.726
73253W        W74117   7.879  24.644  23.426
73254W        W74118   9.907  23.009  23.160
73255W        W74119   8.831  22.635  23.860
73256W        W74120  10.831  24.532  24.392
73257W        W74121  10.733  22.423  24.138
73258W        W74122   7.356  25.299  23.522
73259W        W74123   7.617  24.478  23.004
73260W        W74124   7.781  22.199  25.546
73261W        W74125   9.007  24.792  25.754
73262W        W74126  10.607  23.978  23.602
73263W        W74127  10.054  24.135  22.291
73264W        W74128   9.394  25.678  24.299
73265W        W74129  10.061  24.209  25.356
73266W        W74130   8.950  21.903  22.679
73267W        W74131   9.730  22.786  23.592
73268W        W74132   7.436  24.484  23.940
73269W        W74133   8.839  22.411  22.704
73270W        W74134   8.634  24.022  25.183
73271W        W74135   9.473  22.737  23.095
73272W        W74136   9.720  24.391  24.231
73273W        W74137   8.122  25.219  24.710
73274W        W74138   8.526  24.871  25.482
73275W        W74139   8.374  22.597  22.541
73276W        W74140   9.813  22.823  22.522
73277W        W74141   9.616  25.003  25.011
73278W        W74142   8.485  23.327  23.814
73279W        W74143   8.203  25.523  24.309
73280W        W74144  10.739  25.347  21.963
73281W        W74145   7.609  24.153  25.175
73282W        W74146   9.653  24.037  23.838
73283W        W74147   7.987  24.178  23.202
73284W        W74148   8.613  25.253  24.515
73285W        W74149   8.965  22.213  23.600
73286W        W74150   7.197  24.357  22.746
73287W        W74151   9.035  23.111  21.909
73288W        W74152   7.721  23.803  23.450
73289W        W74153   8.808  22.384  24.839
73290W        W74154  10.585  22.122  21.993
73291W        W74155  10.523  24.117  25.101
73292W        W74156   9.455  25.291  25.411
73293W        W74157  10.999  24.296  24.824
73294W        W74158  10.403  25.132  25.379
73295W        W74159   8.036  25.535  23.825
73296W        W74160  10.491  24.188  23.117
73297W        W74161   9.476  23.198  23.335
73298W        W74162   9.166  21.967  23.201
73299W        W74163   8.249  24.952  23.214
73300W        W74164   8.587  22.953  24.194
73301W        W74165   8.568  22.057  23.880
73302W        W74166   7.395  25.086  22.292
73303W        W74167   9.018  23.899  23.266
73304W        W74168   8.554  25.164  25.034
73305W        W74169   7.425  23.971  23.060
73306W        W74170   7.476  22.490  23.738
73307W        W74171   8.951  24.531  23.796
73308W        W74172   7.046  22.197  22.523
73309W        W74173   9.958  23.512  24.583
73310W        W74174   9.918  22.757  21.995
73311W        W74175  10.545  24.698  23.983
73312W        W74176   9.156  24.946  23.562
73313W        W74177   8.366  25.110  22.735
73314W        W74178   9.701  21.961  21.931
73315W        W74179   7.545  25.382  23.983
73316W        W74180   9.554  23.023  25.385
73317W        W74181   7.772  22.675  25.279
73318W        W74182   7.550  22.698  23.014
73319W        W74183   8.624  23.196  22.220
73320W        W74184   9.721  23.501  25.226
73321W        W74185   8.365  23.973  24.044
73322W        W74186   9.681  21.916  23.347
73323W        W74187   8.871  25.359  23.663
73324W        W74188  10.169  25.012  24.427
73325W        W74189   9.757  25.185  23.646
73326W        W74190   9.778  24.160  23.334
73327W        W74191   9.105  22.251  22.299
73328W        W74192  10.887  21.999  23.240
73329W        W74193   8.445  23.439  21.799
73330W        W74194  10.592  22.877  23.290
73331W        W74195   9.286  23.927  22.052
73332W        W74196  10.144  24.358  24.859
73333W        W74197  10.381  25.062  22.206
73334W        W74198   8.669  22.668  25.238
73335W        W74199   8.614  23.417  24.388
73336W        W74200  10.503  24.748  24.730
73337W        W74201   9.620  22.674  24.934
73338W        W74202   7.308  23.170  24.830
73339W        W74203   9.098  23.632  24.407
73340W        W74204   7.492  24.286  23.464
73341W        W74205   7.696  23.575  24.164
73342W        W74206  10.016  24.020  24.476
73343W        W74207   9.953  25.362  25.201
73344W        W74208   9.488  23.176  24.871
73345W        W74209  10.224  25.341  23.277
73346W        W74210   9.195  25.159  24.433
73347W        W74211   8.478  25.280  23.971
73348W        W74212  10.234  24.486  24.344
73349W        W74213   9.354  24.351  25.545
73350W        W74214   7.933  24.605  24.071
73351W        W74215  10.171  23.837  23.344
73352W        W74216   9.884  25.321  24.124
73353W        W74217   7.924  25.100  24.217
73354W        W74218   9.053  23.029  25.276
73355W        W74219   8.784  24.896  22.452
73356W        W74220   8.820  24.412  25.466
73357W        W74221   8.617  24.692  22.935
73358W        W74222   8.084  23.066  21.697
73359W        W74223   7.447  25.429  28.908
73360W        W74224   7.869  24.477  28.504
73361W        W74225  10.328  23.760  26.330
73362W        W74226  10.825  25.194  28.152
73363W        W74227   8.659  25.204  25.868
73364W        W74228   8.619  23.260  26.755
73365W        W74229   8.138  22.977  26.839
73366W        W74230   9.127  23.970  26.365
73367W        W74231   8.866  25.211  28.280
73368W        W74232   7.561  22.809  28.584
73369W        W74233   8.060  22.138  28.263
73370W        W74234   9.892  22.370  27.232
73371W        W74235   9.537  22.953  25.933
73372W        W74236  10.162  22.744  28.757
73373W        W74237   7.573  22.348  28.166
73374W        W74238   7.695  24.971   0.006
73375W        W74239   8.977  24.255  25.937
73376W        W74240   7.498  23.038  27.574
73377W        W74241   8.367  23.169  28.743
73378W        W74242  10.616  22.837  27.338
73379W        W74243  10.758  24.005  28.119
73380W        W74244   9.057  23.229  27.074
73381W        W74245   9.604  24.817  27.657
73382W        W74246   7.811  24.004  27.848
73383W        W74247   7.158  23.480  27.569
73384W        W74248   8.297  23.572  28.431
73385W        W74249  10.777  23.375  28.724
73386W        W74250   8.273  24.710  27.243
73387W        W74251   9.368  24.673  28.347
73388W        W74252   8.878  23.010  27.526
73389W        W74253   8.898  23.957  27.244
73390W        W74254   9.674  24.866   0.161
73391W        W74255   8.731  24.091  28.884
73392W        W74256   8.977  23.830  28.518
73393W        W74257   7.235  22.966  28.988
73394W        W74258  10.123  24.675  28.915
73395W        W74259   7.694  22.015  26.704
73396W        W74260   8.385  24.567  27.726
73397W        W74261  10.744  24.432  27.038
73398W        W74262  10.132  22.766  27.527
73399W        W74263  10.447  22.678  25.543
73400W        W74264  11.066  23.389  27.903
73401W        W74265   8.904  25.274  27.689
73402W        W74266  10.832  24.979  26.280
73403W        W74267   7.900  25.710  26.084
73404W        W74268   8.190  25.458  26.616
73405W        W74269   8.214  22.267  27.783
73406W        W74270  10.719  23.217  28.234
73407W        W74271   9.867  23.651  27.023
73408W        W74272   9.838  23.322  25.695
73409W        W74273   9.238  24.477  27.859
73410W        W74274   8.868  22.755  27.012
73411W        W74275   9.759  24.956  28.133
73412W        W74276  10.333  23.647  26.838
73413W        W74277   9.487  22.174  26.423
73414W        W74278   7.942  25.218  26.234
73415W        W74279   7.392  22.509  26.751
73416W        W74280   9.842  23.310  27.394
73417W        W74281   7.655  24.803  27.345
73418W        W74282   8.965  24.972  26.241
73419W        W74283  10.294  23.166  25.487
73420W        W74284   7.516  24.904  27.839
73421W        W74285   8.320  24.574  28.239
73422W        W74286   8.516  23.899  26.891
73423W        W74287   8.787  22.325  27.832
73424W        W74288  10.851  22.058  27.415
73425W        W74289   8.121  24.058  25.330
73426W        W74290   7.675  22.636  25.806
73427W        W74291   7.878  24.768  26.891
73428W        W74292   8.747  24.426  27.019
73429W        W74293  10.343  25.008  28.593
73430W        W74294   9.347  22.653  26.317
73431W        W74295  10.574  25.409  27.207
73432W        W74296  10.313  23.200  28.548
73433W        W74297  11.045  24.818  26.799
73434W        W74298   9.381  24.156  28.329
73435W        W74299   6.897  23.467  26.757
73436W        W74300   8.318  24.113  27.943
73437W        W74301   9.506  23.115  26.438
73438W        W74302   9.477  23.753  26.680
73439W        W74303   7.921  23.118  27.910
73440W        W74304   7.710  23.178  28.957
73441W        W74305   7.676  22.085  27.195
73442W        W74306   9.638  22.610  27.609
73443W        W74307   9.300  22.547  28.715
73444W        W74308   9.545  22.374  25.920
73445W        W74309  10.873  25.033  28.688
73446W        W74310   9.655  22.096  28.639
73447W        W74311  10.641  24.566  28.819
73448W        W74312  10.382  22.747  28.299
73449W        W74313   9.823  22.484  26.723
73450W        W74314  10.354  23.639  28.919
73451W        W74315   8.005  25.169  27.182
73452W        W74316   8.887  22.763  26.116
73453W        W74317   8.304  22.372  28.670
73454W        W74318  10.296  22.721  26.475
73455W        W74319  10.354  23.244  26.509
73456W        W74320   8.441  25.324  28.865
73457W        W74321   8.330  21.903  26.142
73458W        W74322  10.704  22.449  27.029
73459W        W74323  10.814  24.930  25.620
73460W        W74324   7.475  23.914  27.445
73461W        W74325   9.645  22.519  25.442
73462W        W74326  10.781  24.903  27.262
73463W        W74327  10.854  22.063  27.939
73464W        W74328   9.132  23.392  28.743
73465W        W74329   9.110  24.495  26.414
73466W        W74330   9.886  23.837   0.049
73467W        W74331   9.592  22.080  27.527
73468W        W74332   7.945  22.919  27.329
73469W        W74333   7.547  24.172  28.239
73470W        W74334   9.435  25.279  26.973
73471W        W74335  10.619  22.881  27.857
73472W        W74336   9.408  25.233  28.402
73473W        W74337  10.262  24.009  25.809
73474W        W74338   8.981  23.676  26.824
73475W        W74339  10.934  22.024  28.438
73476W        W74340   8.917  24.154  28.104
73477W        W74341   9.385  23.063  27.448
73478W        W74342   9.962  23.146  26.167
73479W        W74343  10.415  23.004  25.985
73480W        W74344  10.620  24.599  26.564
73481W        W74345   9.992  24.598  27.301
73482W        W74346   9.891  23.485  26.532
73483W        W74347   9.356  23.678  27.203
73484W        W74348  10.287  23.680  27.355
73485W        W74349   7.817  22.631  27.748
73486W        W74350  10.476  23.661  28.400
73487W        W74351  10.889  25.279  27.602
73488W        W74352   8.736  24.935  27.136
73489W        W74353   9.972  25.333  28.443
73490W        W74354   9.983  22.671  28.003
73491W        W74355   9.139  25.577  28.040
73492W        W74356  10.632  22.335  26.533
73493W        W74357  10.562  23.576  27.879
73494W        W74358   7.476  22.882  28.085
73495W        W74359  10.225  22.682  27.012
73496W        W74360  10.764  22.861  28.605
73497W        W74361   9.545  24.642  27.072
73498W        W74362   8.819  25.227  26.706
73499W        W74363   8.074  22.337  25.990
73500W        W74364   9.088  22.044  27.514
73501W        W74365   8.137  25.368  25.754
73502W        W74366   8.669  23.706  26.410
73503W        W74367   8.973  24.392  28.549
73504W        W74368   8.962  22.440  26.590
73505W        W74369  10.253  22.192  26.890
73506W        W74370  10.091  25.509  27.338
73507W        W74371   9.434  25.320  27.640
73508W        W74372   8.774  24.250  27.638
73509W        W74373  10.659  24.849  27.788
73510W        W74374   8.130  22.221  26.495
73511W        W74375   8.846  24.769  27.630
73512W        W74376   8.225  22.609  25.546
73513W        W74377   9.047  23.268  27.982
73514W        W74378  10.007  22.238  27.745
73515W        W74379   7.314  23.844  27.934
73516W        W74380   8.977  23.707  25.951
73517W        W74381   8.298  22.074  25.605
73518W        W74382   9.019  22.988  26.568
73519W        W74383  10.051  22.290  28.339
73520W        W74384   8.520  24.068  28.421
73521W        W74385   9.271  24.074  28.864
73522W        W74386  10.032  23.920  28.564
73523W        W74387   9.291  22.192   0.097
73524W        W74388   8.591  22.538  27.416
73525W        W74389   7.885  22.503  26.863
73526W        W74390   7.728  25.278  26.757
73527W        W74391   9.083  24.959  28.684
73528W        W74392   8.266  24.298  26.264
73529W        W74393   9.770  23.852  27.470
73530W        W74394  10.038  23.561  27.786
73531W        W74395   9.251  23.990  27.641
73532W        W74396   9.826  24.314  25.820
73533W        W74397   9.389  22.294  27.079
73534W        W74398  10.789  22.833  26.358
73535W        W74399   7.582  25.110  28.504
73536W        W74400   7.869  24.500  27.982
73537W        W74401   7.500  25.500  26.341
73538W        W74402   9.289  22.829  27.914
73539W        W74403   8.637  24.616  26.090
73540W        W74404  10.484  25.222  25.953
73541W        W74405   9.545  23.488  26.102
73542W        W74406   8.553  22.782  26.526
73543W        W74407   9.170  22.692  25.681
73544W        W74408   9.767  24.376  28.588
73545W        W74409  10.149  22.230  26.363
73546W        W74410   7.425  21.957  25.867
73547W        W74411   8.842  24.681  28.148
73548W        W74412   8.391  24.186  27.298
73549W        W74413   8.344  24.423  25.689
73550W        W74414   7.589  24.872  26.458
73551W        W74415   7.856  23.616  28.712
73552W        W74416   8.824  22.380  28.847
73553W        W74417   9.300  22.321  27.887
73554W        W74418   8.585  22.080  26.689
73555W        W74419   9.825  21.949  26.070
73556W        W74420   7.690  22.130  27.711
73557W        W74421   7.597  22.960  26.932
73558W        W74422  10.392  22.325  27.407
73559W        W74423   8.051  22.714  26.403
73560W        W74424  10.444  22.387  27.940
73561W        W74425  10.746  23.318  25.674
73562W        W74426   8.066  22.422  27.333
73563W        W74427   9.146  22.942  28.400
73564W        W74428   7.231  22.410  25.983
73565W        W74429   8.016  24.005  28.361
73566W        W74430   9.482  23.505  27.719
73567W        W74431   9.176  25.300  25.866
73568W        W74432   6.997  23.833  25.705
73569W        W74433   8.357  24.445  28.733
73570W        W74434   7.694  23.628  28.223
73571W        W74435   8.684  23.698  28.088
73572W        W74436  10.435  21.943  28.253
73573W        W74437  11.026  23.653  28.360
73574W        W74438  10.703  23.768  25.940
73575W        W74439   9.580  24.220  26.394
73576W        W74440  10.309  25.573  25.608
73577W        W74441   9.501  23.508   0.086
73578W        W74442   7.919  24.392   0.030
73579W        W74443  10.981  22.410  28.796
73580W        W74444  10.367  23.224  27.548
73581W        W74445   8.955  25.390  28.952
73582W        W74446   8.755  21.962  25.802
73583W        W74447  10.172  24.679  25.570
73584W        W74448   8.043  22.793  28.744
73585W        W74449   8.589  24.883  28.571
73586W        W74450  10.847  22.500  28.237
73587W        W74451  10.074  25.548  26.074
73588W        W74452  10.092  24.205  27.655
73589W        W74453   8.438  22.485  28.176
73590W        W74454   8.635  23.591  28.830
73591W        W74455   8.109  24.760  26.423
73592W        W74456   9.961  23.974  26.646
73593W        W74457   7.961  22.681  28.246
73594W        W74458   9.137  24.834  26.821
73595W        W74459  10.697  23.357  27.117
73596W        W74460   9.152  22.069  28.577
73597W        W74461  10.094  24.715  27.790
73598W        W74462  10.301  25.023  27.429
73599W        W74463   9.407  24.561  26.006
73600W        W74464   7.445  24.563  28.784
73601W        W74465   8.309  22.818  27.735
73602W        W74466   8.153  22.062  26.977
73603W        W74467   9.746  23.091  27.856
73604W        W74468   8.596  23.966  25.695
73605W        W74469  10.598  24.033  27.617
73606W        W74470   8.082  24.906  28.663
73607W        W74471  10.409  25.542  26.496
73608W        W74472   8.405  22.515  26.933
73609W        W74473   8.014  23.823  27.422
73610W        W74474   8.578  25.556  27.996
73611W        W74475  10.577  25.440  28.730
73612W        W74476   9.701  23.912  27.987
73613W        W74477   7.397  23.044  25.331
73614W        W74478  10.682  25.176  26.755
73615W        W74479  10.506  22.511  26.050
73616W        W74480   8.653  22.079  28.439
73617W        W74481  10.365  24.780  26.980
73618W        W74482  10.205  23.198  27.052
73619W        W74483   8.460  23.002  27.229
73620W        W74484   8.752  23.290  28.407
73621W        W74485  10.130  24.625  28.323
73622W        W74486   8.340  23.041  28.216
73623W        W74487   8.485  25.429  27.049
73624W        W74488   7.942  25.391  28.732
73625W        W74489   8.230  24.888  25.922
73626W        W74490  10.441  24.139  26.716
73627W        W74491   7.907  23.185  28.432
73628W        W74492  10.747  23.332  26.200
73629W        W74493   8.703  24.215  26.532
73630W        W74494   9.529  23.721  28.577
73631W        W74495   9.477  23.310  28.262
73632W        W74496   8.146  23.610  27.942
73633W        W74497  10.415  25.418  27.740
73634W        W74498  10.158  22.039  28.796
73635W        W74499   7.769  22.328  28.650
73636W        W74500   8.177  23.345  27.496
73637W        W74501   8.689  22.980  25.653
73638W        W74502   7.413  24.672  28.279
73639W        W74503   8.990  23.543  27.564
73640W        W74504   8.696  22.463  25.729
73641W        W74505   8.177  23.500  26.990
73642W        W74506   7.621  25.393  28.066
73643W        W74507  10.270  23.494  25.895
73644W        W74508  10.512  22.344  28.592
73645W        W74509   9.990  24.463  26.787
73646W        W74510   7.409  23.630  28.980
73647W        W74511  10.565  22.010  26.101
73648W        W74512  10.161  24.275  26.278
73649W        W74513   9.121  23.452  26.385
73650W        W74514  10.077  22.335  25.829
73651W        W74515  10.228  23.157  28.038
73652W        W74516   7.734  23.401  27.232
73653W        W74517   8.282  24.435  26.795
73654W        W74518   9.923  22.986  26.684
73655W        W74519   9.130  22.565  27.451
73656W        W74520  10.976  24.460  27.999
73657W        W74521  10.879  22.498  27.661
73658W        W74522   7.387  25.216  27.149
73659W        W74523   7.763  24.361  26.612
73660W        W74524   7.870  22.086   0.107
73661W        W74525   9.128  24.942   0.210
73662W        W74526  10.684  23.920  27.112
73663W        W74527   9.875  23.866  26.133
73664W        W74528   9.663  25.518  28.070
73665W        W74529  10.272  24.177  28.943
73666W        W74530   8.849  21.877  26.297
73667W        W74531   9.768  22.859  27.162
73668W        W74532   7.479  24.410  27.641
73669W        W74533   8.572  22.345  26.231
73670W        W74534   8.222  23.957  28.855
73671W        W74535   9.383  22.760  26.839
73672W        W74536   9.734  24.432  28.035
73673W        W74537   7.944  24.968  28.171
73674W        W74538   8.386  24.844   0.064
73675W        W74539   8.380  22.779  26.016
73676W        W74540   9.857  22.645  26.225
73677W        W74541   9.737  24.897  28.644
73678W        W74542   8.635  23.491  27.210
73679W        W74543   8.107  25.375  27.882
73680W        W74544  10.811  25.449  25.627
73681W        W74545   7.595  24.063  28.732
73682W        W74546   9.615  24.331  27.525
73683W        W74547   8.010  24.023  26.953
73684W        W74548   8.484  25.013  27.975
73685W        W74549   8.865  22.244  27.090
73686W        W74550   6.770  23.944  26.197
73687W        W74551   9.096  23.198  25.912
73688W        W74552   7.519  23.809  26.944
73689W        W74553   8.994  22.458  28.290
73690W        W74554  10.598  22.200  25.638
73691W        W74555  10.772  23.908  28.746
73692W        W74556   9.465  25.275  28.921
73693W        W74557  10.975  24.320  28.498
73694W        W74558  10.515  25.004   0.067
73695W        W74559   8.134  25.592  27.422
73696W        W74560  10.994  24.141  26.705
73697W        W74561   9.548  23.267  26.929
73698W        W74562   9.120  21.949  26.747
73699W        W74563   8.327  25.004  26.820
73700W        W74564   8.773  22.835  28.007
73701W        W74565   8.566  22.011  27.454
73702W        W74566   7.594  25.364  25.827
73703W        W74567   9.170  24.178  26.842
73704W        W74568   8.305  25.285  28.367
73705W        W74569   7.204  23.783  26.509
73706W        W74570   7.535  22.574  27.276
73707W        W74571   9.151  24.430  27.332
73708W        W74572   7.653  22.409  26.307
73709W        W74573   9.950  23.514  28.276
73710W        W74574   9.986  22.825  25.743
73711W        W74575  10.467  24.511  27.453
73712W        W74576   9.224  24.960  27.337
73713W        W74577   8.471  25.117  26.333
73714W        W74578   9.716  22.028  25.563
73715W        W74579   7.688  25.310  27.556
73716W        W74580   9.505  23.033  28.803
73717W        W74581   7.697  22.627   0.067
73718W        W74582   7.297  23.229  26.547
73719W        W74583   8.673  23.213  26.222
73720W        W74584   9.889  23.388  28.761
73721W        W74585   8.515  23.781  27.603
73722W        W74586   9.769  21.991  26.872
73723W        W74587   8.982  25.397  27.184
73724W        W74588  10.296  25.066  28.094
73725W        W74589   9.803  25.085  27.262
73726W        W74590   9.645  24.125  27.041
73727W        W74591   9.064  22.291  26.073
73728W        W74592  10.969  22.037  26.912
73729W        W74593   8.376  23.600  25.370
73730W        W74594  10.613  22.929  26.827
73731W        W74595   9.417  23.990  25.923
73732W        W74596  10.449  24.231  28.462
73733W        W74597   9.992  25.168  25.697
73734W        W74598   8.649  22.774  28.526
73735W        W74599   8.559  23.286  27.817
73736W        W74600  10.658  24.718  28.315
73737W        W74601   9.565  22.532  28.279
73738W        W74602   7.429  23.306  28.555
73739W        W74603   9.220  23.732  28.089
73740W        W74604   7.627  24.326  27.119
73741W        W74605   7.667  23.518  27.722
73742W        W74606  10.222  23.950  28.073
73743W        W74607  10.019  25.208  28.953
73744W        W74608   9.860  22.985  28.395
73745W        W74609  10.176  25.263  26.895
73746W        W74610   9.228  24.992  27.971
73747W        W74611   8.436  25.163  27.490
73748W        W74612  10.459  24.401  27.966
73749W        W74613   9.359  24.576  28.870
73750W        W74614   7.965  24.368  27.496
73751W        W74615  10.163  24.124  27.146
73752W        W74616   9.937  25.228  27.743
73753W        W74617   8.022  24.913  27.668
73754W        W74618   8.971  22.917  28.882
73755W        W74619   9.324  25.237  26.474
73756W        W74620   8.823  24.601  28.978
73757W        W74621   8.678  24.723  26.599
73758W        W74622   8.113  23.115  25.405
73759W        W74623   7.313   0.139   3.385
73760W        W74624   7.774  28.039   3.035
73761W        W74625  10.424  27.652   0.991
73762W        W74626  10.755  28.813   2.698
73763W        W74627   8.680  28.675   0.331
73764W        W74628   8.544  26.884   1.077
73765W        W74629   8.151  26.613   1.359
73766W        W74630   9.057  27.633   0.871
73767W        W74631   8.878  28.682   3.212
73768W        W74632   7.424  26.399   3.104
73769W        W74633   7.965  25.614   2.807
73770W        W74634   9.892  25.987   1.669
73771W        W74635   9.657  26.708   0.473
73772W        W74636  10.047  26.337   3.282
73773W        W74637   7.454  25.958   2.602
73774W        W74638   7.596  28.727   3.474
73775W        W74639   9.249  28.046   0.595
73776W        W74640   7.509  26.776   2.085
73777W        W74641   8.219  26.763   3.294
73778W        W74642  10.712  26.462   1.784
73779W        W74643  10.606  27.591   2.568
73780W        W74644   8.928  26.992   1.634
73781W        W74645   9.532  28.282   1.987
73782W        W74646   7.857  27.716   2.270
73783W        W74647   7.169  27.160   2.010
73784W        W74648   8.463  27.226   3.210
73785W        W74649  10.587  26.955   3.196
73786W        W74650   8.214  28.350   1.691
73787W        W74651   9.194  28.169   2.784
73788W        W74652   8.761  26.718   2.035
73789W        W74653   8.684  27.446   1.690
73790W        W74654   9.727  28.275   3.501
73791W        W74655   8.747  27.537   3.505
73792W        W74656   8.946  27.306   3.026
73793W        W74657   7.208  26.712   3.515
73794W        W74658  10.103  28.288   3.130
73795W        W74659   7.772  25.821   1.022
73796W        W74660   8.263  28.088   2.185
73797W        W74661  10.889  27.863   1.684
73798W        W74662  10.340  26.122   1.874
73799W        W74663  10.575  26.291   0.245
73800W        W74664  10.866  27.159   2.414
73801W        W74665   8.869  28.751   2.196
73802W        W74666  10.475  28.185   0.969
73803W        W74667   7.934   0.112   0.638
73804W        W74668   8.176  28.951   1.061
73805W        W74669   7.985  25.899   2.379
73806W        W74670  10.439  26.853   2.609
73807W        W74671   9.920  26.996   1.319
73808W        W74672  10.049  27.035   0.297
73809W        W74673   9.137  28.080   2.262
73810W        W74674   9.122  26.481   1.655
73811W        W74675   9.570  28.393   2.490
73812W        W74676  10.390  27.133   1.164
73813W        W74677   9.373  25.966   1.044
73814W        W74678   8.034  28.598   0.715
73815W        W74679   7.431  26.095   1.312
73816W        W74680  10.131  26.611   1.905
73817W        W74681   7.685  28.320   1.639
73818W        W74682   9.043  28.563   0.706
73819W        W74683  10.336  26.704   0.026
73820W        W74684   7.435  28.501   2.358
73821W        W74685   8.247  28.123   2.854
73822W        W74686   8.475  27.381   1.188
73823W        W74687   8.522  25.881   2.397
73824W        W74688  10.899  25.496   1.702
73825W        W74689   7.915  27.389   0.141
73826W        W74690   7.852  26.518   0.421
73827W        W74691   7.771  28.332   1.123
73828W        W74692   8.754  27.782   1.306
73829W        W74693  10.300  28.771   2.936
73830W        W74694   9.319  26.411   0.755
73831W        W74695  10.483  28.944   1.559
73832W        W74696  10.119  26.803   3.039
73833W        W74697  10.879  28.283   1.356
73834W        W74698   9.412  27.681   2.741
73835W        W74699   7.386  26.984   1.079
73836W        W74700   8.367  27.734   2.540
73837W        W74701   9.534  26.863   0.968
73838W        W74702   9.478  27.336   1.167
73839W        W74703   7.889  26.804   2.485
73840W        W74704   7.779  26.745   3.003
73841W        W74705   7.678  25.624   1.478
73842W        W74706   9.438  26.033   2.081
73843W        W74707   9.203  26.106   3.223
73844W        W74708   9.769  26.029   0.606
73845W        W74709  10.803  28.628   3.191
73846W        W74710   9.586  25.647   3.058
73847W        W74711  10.544  28.105   3.331
73848W        W74712  10.132  26.245   2.744
73849W        W74713   9.882  26.019   1.148
73850W        W74714  10.137  27.221   3.378
73851W        W74715   7.918  28.755   1.472
73852W        W74716   8.814  26.552   0.735
73853W        W74717   8.211  25.916   3.340
73854W        W74718  10.326  26.563   1.021
73855W        W74719  10.746  26.839   0.940
73856W        W74720   8.489  28.976   3.417
73857W        W74721   8.550  25.530   0.771
73858W        W74722  10.773  25.979   1.603
73859W        W74723  10.850  28.313   0.311
73860W        W74724   7.704  27.443   1.841
73861W        W74725   9.768  26.028   0.076
73862W        W74726  10.822  28.473   1.875
73863W        W74727  10.717  25.643   2.380
73864W        W74728   9.191  26.849   3.114
73865W        W74729   9.588  28.194   0.973
73866W        W74730   9.716  27.435   3.640
73867W        W74731   9.494  25.600   1.810
73868W        W74732   7.809  26.479   1.783
73869W        W74733   7.554  27.681   2.688
73870W        W74734   9.550  28.745   1.523
73871W        W74735  10.400  26.411   2.305
73872W        W74736   9.273  28.727   2.809
73873W        W74737  10.531  27.624   0.293
73874W        W74738   8.962  27.238   1.182
73875W        W74739  10.805  25.663   2.880
73876W        W74740   8.900  27.728   2.654
73877W        W74741   9.222  26.523   2.156
73878W        W74742  10.039  26.922   0.806
73879W        W74743  10.450  26.730   0.533
73880W        W74744  10.027  28.475   0.836
73881W        W74745  10.024  27.955   1.722
73882W        W74746   9.677  27.222   0.604
73883W        W74747   9.198  27.440   1.598
73884W        W74748  10.249  27.124   1.780
73885W        W74749   7.636  26.294   2.242
73886W        W74750  10.328  27.297   2.893
73887W        W74751  10.744  28.889   2.170
73888W        W74752   8.689  28.293   1.447
73889W        W74753   9.797  28.834   2.749
73890W        W74754   9.547  26.318   2.505
73891W        W74755   8.983   0.116   2.574
73892W        W74756  10.699  25.944   1.077
73893W        W74757  10.317  27.246   2.293
73894W        W74758   7.434  26.617   2.623
73895W        W74759  10.346  26.176   1.364
73896W        W74760  10.539  26.490   2.965
73897W        W74761   9.566  28.223   1.481
73898W        W74762   8.759  28.738   1.152
73899W        W74763   7.791  26.014   0.550
73900W        W74764   9.031  25.683   2.084
73901W        W74765   8.055  28.797   0.231
73902W        W74766   8.161  27.178   0.667
73903W        W74767   9.053  27.805   3.148
73904W        W74768   8.960  26.218   1.234
73905W        W74769  10.422  25.656   1.415
73906W        W74770   9.991  28.992   1.744
73907W        W74771   9.348  28.762   2.007
73908W        W74772   8.717  27.764   2.165
73909W        W74773  10.546  28.456   2.365
73910W        W74774   8.273  25.888   1.018
73911W        W74775   8.716  28.283   1.995
73912W        W74776   8.382  26.246   0.063
73913W        W74777   8.939  26.807   2.523
73914W        W74778   9.906  25.702   2.108
73915W        W74779   7.327  27.627   2.172
73916W        W74780   8.982  27.213   0.202
73917W        W74781   8.367  25.689   0.261
73918W        W74782   9.051  26.731   1.165
73919W        W74783   9.813  25.864   2.588
73920W        W74784   8.547  27.704   3.036
73921W        W74785   9.371  27.424   3.276
73922W        W74786   9.850  27.490   3.029
73923W        W74787   9.201  25.761   3.618
73924W        W74788   8.296  26.584   1.865
73925W        W74789   7.940  26.127   1.416
73926W        W74790   7.672  28.823   1.014
73927W        W74791   9.214  28.278   3.298
73928W        W74792   8.083  27.680   0.521
73929W        W74793   9.703  27.320   1.658
73930W        W74794   9.844  27.014   2.087
73931W        W74795   9.195  27.583   2.107
73932W        W74796   9.725  27.941   0.370
73933W        W74797   9.400  26.036   1.555
73934W        W74798  11.161  26.531   0.865
73935W        W74799   7.540  28.872   2.988
73936W        W74800   7.802  28.156   2.527
73937W        W74801   7.199  28.912   0.844
73938W        W74802   9.007  26.105   2.374
73939W        W74803   8.768  28.169   0.459
73940W        W74804  10.473  28.612   0.585
73941W        W74805   9.180  27.142   0.706
73942W        W74806   8.483  26.354   1.057
73943W        W74807   9.378  26.321   0.205
73944W        W74808   9.571  27.907   3.177
73945W        W74809  10.258  26.107   0.805
73946W        W74810   7.362  25.759   0.316
73947W        W74811   8.678  28.166   2.514
73948W        W74812   8.475  27.906   1.740
73949W        W74813   8.436  27.861   0.194
73950W        W74814   7.317  28.407   0.860
73951W        W74815   7.899  27.178   3.287
73952W        W74816   8.741  25.914   3.422
73953W        W74817   9.306  25.905   2.722
73954W        W74818   8.685  25.702   1.263
73955W        W74819   9.589  25.578   0.787
73956W        W74820   7.563  25.655   2.221
73957W        W74821   7.643  26.578   1.305
73958W        W74822  10.452  25.624   1.936
73959W        W74823   7.985  26.319   0.939
73960W        W74824  10.289  25.910   2.346
73961W        W74825  10.621  27.093   0.221
73962W        W74826   8.131  26.079   1.908
73963W        W74827   9.143  26.420   2.812
73964W        W74828   7.388  26.273   0.365
73965W        W74829   8.046  27.566   2.929
73966W        W74830   9.297  27.076   1.998
73967W        W74831   9.279  28.917   0.401
73968W        W74832   7.447  27.516   0.354
73969W        W74833   8.334  28.050   3.364
73970W        W74834   7.664  27.200   2.814
73971W        W74835   8.587  27.280   2.672
73972W        W74836  10.258  25.655   2.786
73973W        W74837  10.846  27.344   2.948
73974W        W74838  10.965  27.371   0.455
73975W        W74839   9.574  27.696   0.813
73976W        W74840  10.280  28.987   0.209
73977W        W74841   9.329  26.871   3.640
73978W        W74842   7.843  27.943   3.549
73979W        W74843  10.928  26.047   3.253
73980W        W74844  10.578  26.850   2.089
73981W        W74845   8.981   0.035   3.588
73982W        W74846   8.862  25.688   0.385
73983W        W74847  10.347  28.116   0.424
73984W        W74848   7.930  26.322   3.236
73985W        W74849   8.735  28.206   3.042
73986W        W74850  10.644  26.100   2.643
73987W        W74851  10.003  28.983   0.672
73988W        W74852   9.968  27.546   2.033
73989W        W74853   8.272  26.035   2.827
73990W        W74854   8.846  27.010   3.472
73991W        W74855   8.153  28.108   0.812
73992W        W74856   9.973  27.405   0.987
73993W        W74857   7.816  26.283   2.732
73994W        W74858   9.216  28.497   1.196
73995W        W74859  10.888  26.935   1.435
73996W        W74860   9.070  25.639   3.095
73997W        W74861  10.007  28.230   2.161
73998W        W74862  10.320  28.676   1.977
73999W        W74863   9.547  28.481   0.545
74000W        W74864   7.445  28.244   3.396
74001W        W74865   8.163  26.384   2.329
74002W        W74866   8.196  25.682   1.484
74003W        W74867   9.918  26.211   2.163
74004W        W74868   8.863  27.674   0.406
74005W        W74869  10.475  27.588   1.900
74006W        W74870   7.980  28.414   3.348
74007W        W74871  10.299   0.132   1.097
74008W        W74872   8.457  26.120   1.511
74009W        W74873   8.113  27.496   1.530
74010W        W74874   8.480   0.005   2.446
74011W        W74875  10.583   0.085   3.214
74012W        W74876   9.593  27.368   2.360
74013W        W74877   7.657  27.007   0.375
74014W        W74878  10.573  28.679   1.118
74015W        W74879  10.711  26.338   0.742
74016W        W74880   8.521  25.608   3.066
74017W        W74881  10.420  28.426   1.541
74018W        W74882  10.407  26.734   1.486
74019W        W74883   8.654  26.587   1.492
74020W        W74884   8.670  26.803   2.981
74021W        W74885   9.841  28.013   2.755
74022W        W74886   8.233  26.549   2.823
74023W        W74887   8.429  28.840   1.541
74024W        W74888   8.010  28.922   3.219
74025W        W74889   8.277  28.333   0.307
74026W        W74890  10.456  27.927   1.432
74027W        W74891   8.166  27.041   2.863
74028W        W74892  10.993  26.842   0.489
74029W        W74893   8.539  27.767   0.812
74030W        W74894   9.472  27.177   2.845
74031W        W74895   9.473  26.864   2.438
74032W        W74896   8.103  27.309   2.459
74033W        W74897  10.265  28.925   2.430
74034W        W74898  10.036  25.771   3.275
74035W        W74899   7.624  25.917   3.087
74036W        W74900   8.071  27.024   2.040
74037W        W74901   8.631  26.879   0.372
74038W        W74902   7.412  28.375   2.867
74039W        W74903   8.714  27.226   2.161
74040W        W74904   8.868  26.230   0.320
74041W        W74905   8.048  27.096   1.170
74042W        W74906   7.487   0.002   2.487
74043W        W74907  10.427  27.240   0.663
74044W        W74908  10.446  26.007   3.110
74045W        W74909  10.040  28.207   1.272
74046W        W74910   7.362  27.203   3.460
74047W        W74911  10.646  25.825   0.572
74048W        W74912  10.026  27.945   0.827
74049W        W74913   8.683  27.269   0.722
74050W        W74914  10.198  25.923   0.321
74051W        W74915   9.961  26.638   2.440
74052W        W74916   7.816  26.971   1.607
74053W        W74917   8.246  27.971   1.301
74054W        W74918   9.950  26.487   1.410
74055W        W74919   8.633  26.214   2.015
74056W        W74920  10.850  28.052   2.480
74057W        W74921  10.796  26.092   2.134
74058W        W74922   7.409  28.713   1.442
74059W        W74923   7.676  27.890   0.814
74060W        W74924   7.761  25.916   3.584
74061W        W74925   8.992  28.532   3.702
74062W        W74926  10.688  27.440   1.446
74063W        W74927  10.063  27.558   0.494
74064W        W74928   9.471   0.045   2.415
74065W        W74929  10.048  27.824   3.398
74066W        W74930   9.061  25.576   0.865
74067W        W74931   9.620  26.465   1.808
74068W        W74932   7.525  28.079   2.068
74069W        W74933   8.783  26.009   0.797
74070W        W74934   8.181  27.575   3.450
74071W        W74935   9.466  26.436   1.256
74072W        W74936   9.633  27.878   2.296
74073W        W74937   7.907  28.553   2.844
74074W        W74938   8.492  28.488   3.578
74075W        W74939   8.322  26.141   0.568
74076W        W74940   9.841  26.453   0.886
74077W        W74941   9.622  28.411   3.007
74078W        W74942   8.376  27.033   1.591
74079W        W74943   7.965  28.880   2.354
74080W        W74944  10.795  28.833   0.224
74081W        W74945   7.613  27.596   3.235
74082W        W74946   9.532  27.800   1.778
74083W        W74947   8.046  27.597   1.022
74084W        W74948   8.292  28.508   2.514
74085W        W74949   8.913  25.943   1.669
74086W        W74950   7.195  27.947   0.630
74087W        W74951   9.138  26.738   0.377
74088W        W74952   7.619  27.371   1.328
74089W        W74953   8.798  26.022   2.877
74090W        W74954  10.624  25.811   0.060
74091W        W74955  10.513  27.566   3.321
74092W        W74956   9.389  28.770   3.348
74093W        W74957  10.838  27.879   2.969
74094W        W74958  10.363  28.619   3.437
74095W        W74959   8.057   0.027   1.877
74096W        W74960  10.890  27.820   1.154
74097W        W74961   9.427  26.903   1.499
74098W        W74962   9.180  25.596   1.373
74099W        W74963   8.263  28.473   1.199
74100W        W74964   8.632  26.393   2.551
74101W        W74965   8.507  25.688   1.901
74102W        W74966   7.569  28.723   0.516
74103W        W74967   9.260  27.870   1.276
74104W        W74968   8.384  28.598   3.056
74105W        W74969   7.673  27.330   0.797
74106W        W74970   7.614  25.996   1.815
74107W        W74971   9.006  27.911   1.746
74108W        W74972   7.307  25.910   0.819
74109W        W74973   9.932  27.094   2.643
74110W        W74974  10.074  26.412   0.401
74111W        W74975  10.480  28.103   1.962
74112W        W74976   9.128  28.411   1.698
74113W        W74977   8.529  28.471   0.777
74114W        W74978   9.792  25.558   0.280
74115W        W74979   7.571  28.821   1.942
74116W        W74980   9.509  26.503   3.337
74117W        W74981   7.494  26.326   3.632
74118W        W74982   7.797  26.804   0.839
74119W        W74983   8.281  26.665   0.683
74120W        W74984   9.688  27.000   3.290
74121W        W74985   8.273  27.522   2.024
74122W        W74986   9.679  25.580   1.309
74123W        W74987   8.936  28.889   1.669
74124W        W74988  10.088  28.441   2.615
74125W        W74989   9.936  28.472   1.721
74126W        W74990   9.761  27.770   1.295
74127W        W74991   9.269  25.937   0.543
74128W        W74992  11.003  25.550   1.212
74129W        W74993   8.451  27.356   0.266
74130W        W74994  10.797  26.435   1.264
74131W        W74995   9.350  27.536   0.382
74132W        W74996  10.298  27.830   2.942
74133W        W74997  10.011  28.552   0.332
74134W        W74998   8.501  26.332   3.211
74135W        W74999   8.410  26.855   2.418
74136W        W75000  10.549  28.307   2.854
74137W        W75001   9.670  26.158   2.986
74138W        W75002   7.280  26.887   3.025
74139W        W75003   9.103  27.283   2.510
74140W        W75004   7.729  27.872   1.346
74141W        W75005   7.629  27.229   2.299
74142W        W75006  10.032  27.589   2.549
74143W        W75007   9.904  28.779   3.260
74144W        W75008   9.649  26.672   2.875
74145W        W75009  10.051  28.729   1.291
74146W        W75010   8.769  28.642   2.705
74147W        W75011   8.382  28.677   2.044
74148W        W75012  10.330  28.002   2.465
74149W        W75013   9.316  27.836   3.621
74150W        W75014   7.957  27.910   1.805
74151W        W75015  10.163  27.506   1.462
74152W        W75016   9.839  28.722   2.190
74153W        W75017   7.902  28.444   2.096
74154W        W75018   8.943  26.506   3.421
74155W        W75019   9.602  28.793   0.988
74156W        W75020   8.817  28.055   3.549
74157W        W75021   8.895  28.143   0.973
74158W        W75022   8.148  26.924   0.201
74159W        W75023   7.365  28.996   7.036
74160W        W75024   7.790  28.135   6.652
74161W        W75025  10.323  27.751   4.721
74162W        W75026  10.777  28.795   6.423
74163W        W75027   8.582  28.905   3.912
74164W        W75028   8.545  26.932   4.809
74165W        W75029   8.138  26.653   5.071
74166W        W75030   8.973  27.390   4.333
74167W        W75031   8.902  28.712   6.712
74168W        W75032   7.323  26.517   6.714
74169W        W75033   7.957  25.670   6.632
74170W        W75034   9.830  25.945   5.472
74171W        W75035   9.446  26.625   4.112
74172W        W75036  10.048  26.366   7.019
74173W        W75037   7.419  26.130   6.349
74174W        W75038   7.659  28.560   6.968
74175W        W75039   8.911  27.746   3.971
74176W        W75040   7.455  26.751   5.713
74177W        W75041   8.173  26.994   7.087
74178W        W75042  10.669  26.474   5.425
74179W        W75043  10.620  27.608   6.355
74180W        W75044   8.925  27.013   5.320
74181W        W75045   9.529  28.276   5.638
74182W        W75046   7.839  27.684   5.898
74183W        W75047   7.237  27.169   5.490
74184W        W75048   8.335  27.297   6.551
74185W        W75049  10.554  27.044   7.006
74186W        W75050   8.104  28.396   5.232
74187W        W75051   9.304  28.127   6.419
74188W        W75052   8.607  26.701   5.719
74189W        W75053   8.834  27.512   5.287
74190W        W75054   9.616  28.367   7.201
74191W        W75055   8.957  27.465   7.134
74192W        W75056   8.829  27.264   6.686
74193W        W75057   7.198  26.708   7.216
74194W        W75058  10.058  28.240   6.900
74195W        W75059   7.781  25.867   4.727
74196W        W75060   8.332  28.156   5.703
74197W        W75061  10.839  27.965   5.437
74198W        W75062  10.307  26.137   5.596
74199W        W75063  10.525  26.342   3.494
74200W        W75064  10.834  27.111   6.201
74201W        W75065   8.699  28.873   5.921
74202W        W75066  10.544  28.260   4.149
74203W        W75067   7.650   0.040   4.305
74204W        W75068   8.013  28.882   4.658
74205W        W75069   7.932  26.054   6.283
74206W        W75070  10.473  26.701   6.342
74207W        W75071   9.745  27.159   4.960
74208W        W75072   9.798  26.965   3.834
74209W        W75073   9.130  28.116   5.895
74210W        W75074   9.069  26.321   5.156
74211W        W75075   9.545  28.486   6.153
74212W        W75076  10.094  27.292   4.614
74213W        W75077   8.975  26.000   4.746
74214W        W75078   7.836  28.514   4.308
74215W        W75079   7.386  26.116   4.946
74216W        W75080   9.884  26.838   5.344
74217W        W75081   7.589  28.317   5.278
74218W        W75082   8.873  28.603   4.208
74219W        W75083  10.210  26.751   3.582
74220W        W75084   7.470  28.502   6.001
74221W        W75085   8.286  28.145   6.468
74222W        W75086   8.465  27.449   4.874
74223W        W75087   8.339  26.015   5.955
74224W        W75088  10.719  25.818   5.530
74225W        W75089   7.731  27.445   3.736
74226W        W75090   7.639  26.466   4.118
74227W        W75091   7.819  28.365   4.805
74228W        W75092   8.696  27.898   4.903
74229W        W75093  10.291  28.686   6.669
74230W        W75094   9.047  26.378   4.366
74231W        W75095  10.516  28.935   5.272
74232W        W75096  10.142  26.837   6.774
74233W        W75097  10.987  28.294   5.023
74234W        W75098   9.504  27.643   6.468
74235W        W75099   7.164  27.270   4.520
74236W        W75100   8.337  27.746   6.054
74237W        W75101   9.416  26.905   4.617
74238W        W75102   9.422  27.427   4.620
74239W        W75103   7.792  26.860   6.100
74240W        W75104   7.661  26.832   6.998
74241W        W75105   7.688  25.718   5.228
74242W        W75106   9.329  26.124   5.569
74243W        W75107   9.201  26.121   6.918
74244W        W75108   9.642  26.034   4.020
74245W        W75109  10.764  28.630   6.916
74246W        W75110   9.510  25.682   6.849
74247W        W75111  10.534  28.095   7.064
74248W        W75112  10.126  26.342   6.509
74249W        W75113   9.885  26.116   4.854
74250W        W75114  10.258  27.312   7.359
74251W        W75115   7.773  28.797   5.110
74252W        W75116   8.551  26.556   4.210
74253W        W75117   8.224  26.029   6.914
74254W        W75118  10.242  26.420   4.617
74255W        W75119  10.425  26.904   4.520
74256W        W75120   8.340  28.848   7.068
74257W        W75121   8.171  25.752   4.406
74258W        W75122  10.570  26.073   5.089
74259W        W75123  10.762  28.405   3.697
74260W        W75124   7.552  27.584   5.407
74261W        W75125   9.646  26.025   3.491
74262W        W75126  10.868  28.426   5.661
74263W        W75127  10.700  25.773   6.131
74264W        W75128   9.269  26.966   6.782
74265W        W75129   9.059  27.867   4.493
74266W        W75130   9.752  27.413   7.417
74267W        W75131   9.428  25.627   5.432
74268W        W75132   7.876  26.557   5.513
74269W        W75133   7.531  27.919   6.241
74270W        W75134   9.622  28.670   5.326
74271W        W75135  10.544  26.779   5.836
74272W        W75136   9.367  28.838   6.559
74273W        W75137  10.600  27.867   3.790
74274W        W75138   8.968  27.259   4.839
74275W        W75139  10.861  25.778   6.647
74276W        W75140   9.030  27.732   6.229
74277W        W75141   9.139  26.619   5.555
74278W        W75142   9.872  26.887   4.357
74279W        W75143  10.187  26.533   4.101
74280W        W75144  10.431  28.660   4.461
74281W        W75145   9.899  27.889   5.437
74282W        W75146   9.866  27.388   4.152
74283W        W75147   9.328  27.321   5.227
74284W        W75148  10.152  27.463   5.117
74285W        W75149   7.680  26.348   5.942
74286W        W75150  10.436  27.177   6.532
74287W        W75151  10.801  28.863   5.894
74288W        W75152   8.608  28.346   5.201
74289W        W75153   9.865  28.889   6.434
74290W        W75154   9.672  26.320   6.223
74291W        W75155   8.961   0.079   6.313
74292W        W75156  10.577  26.019   4.545
74293W        W75157  10.358  27.239   6.022
74294W        W75158   7.324  26.603   6.198
74295W        W75159  10.188  26.433   5.164
74296W        W75160  10.527  26.524   6.829
74297W        W75161   9.503  28.141   5.149
74298W        W75162   8.777  28.705   4.865
74299W        W75163   7.731  25.939   4.115
74300W        W75164   9.012  25.583   5.786
74301W        W75165   8.078  28.785   3.719
74302W        W75166   8.447  27.217   4.390
74303W        W75167   9.098  27.784   6.751
74304W        W75168   8.646  26.427   4.706
74305W        W75169  10.249  25.724   5.263
74306W        W75170  10.025  28.973   5.416
74307W        W75171   9.244  28.707   5.781
74308W        W75172   8.751  27.748   5.761
74309W        W75173  10.587  28.434   6.099
74310W        W75174   8.218  26.152   4.756
74311W        W75175   8.779  28.419   5.696
74312W        W75176   8.036  26.342   3.735
74313W        W75177   9.008  26.943   5.940
74314W        W75178   9.843  25.634   5.963
74315W        W75179   7.334  27.574   5.906
74316W        W75180   8.721  27.148   3.950
74317W        W75181   8.196  25.870   3.883
74318W        W75182   9.006  26.738   4.875
74319W        W75183   9.844  25.828   6.433
74320W        W75184   8.598  27.734   6.535
74321W        W75185   9.461  27.451   6.978
74322W        W75186  10.082  27.349   6.867
74323W        W75187   9.219  25.776   7.290
74324W        W75188   8.314  26.298   5.498
74325W        W75189   7.865  26.212   5.130
74326W        W75190   7.475  28.728   4.674
74327W        W75191   9.208  28.345   6.887
74328W        W75192   7.946  27.805   4.056
74329W        W75193   9.788  27.367   5.474
74330W        W75194   9.930  26.988   5.818
74331W        W75195   9.154  27.428   5.815
74332W        W75196   9.822  27.879   3.873
74333W        W75197   9.426  25.975   5.050
74334W        W75198  10.707  26.492   4.377
74335W        W75199   7.504  28.851   6.559
74336W        W75200   7.960  28.137   6.079
74337W        W75201   7.132  28.854   4.287
74338W        W75202   9.185  26.428   6.025
74339W        W75203   8.561  28.125   4.009
74340W        W75204  10.420  28.714   3.950
74341W        W75205   9.400  27.130   4.153
74342W        W75206   8.180  26.663   4.555
74343W        W75207   9.268  26.282   3.754
74344W        W75208   9.592  27.958   6.883
74345W        W75209  10.134  26.023   4.260
74346W        W75210   7.341  25.598   3.993
74347W        W75211   8.674  28.125   6.123
74348W        W75212   8.434  27.822   5.333
74349W        W75213   8.095  28.280   3.857
74350W        W75214   7.318  28.375   4.339
74351W        W75215   7.923  27.390   6.859
74352W        W75216   8.755  25.964   7.132
74353W        W75217   9.310  25.939   6.430
74354W        W75218   8.521  25.725   4.806
74355W        W75219   9.450  25.968   4.519
74356W        W75220   7.529  25.862   5.926
74357W        W75221   7.522  26.615   5.113
74358W        W75222  10.320  25.617   5.769
74359W        W75223   7.744  26.377   4.640
74360W        W75224  10.230  26.016   6.103
74361W        W75225  10.584  27.167   3.660
74362W        W75226   7.924  25.989   5.634
74363W        W75227   9.249  26.460   6.539
74364W        W75228   7.234  26.103   4.009
74365W        W75229   7.996  27.705   6.426
74366W        W75230   9.440  27.025   5.648
74367W        W75231   9.018   0.113   4.169
74368W        W75232   7.345  27.811   3.652
74369W        W75233   8.179  27.858   6.883
74370W        W75234   7.649  27.368   6.274
74371W        W75235   8.698  27.341   6.180
74372W        W75236  10.341  25.708   6.505
74373W        W75237  10.903  27.353   6.708
74374W        W75238  10.515  27.415   4.333
74375W        W75239   9.409  27.647   4.125
74376W        W75240  10.258   0.091   3.620
74377W        W75241   9.286  27.059   7.296
74378W        W75242   7.804  28.092   7.181
74379W        W75243  10.895  26.167   6.990
74380W        W75244  10.303  27.147   5.505
74381W        W75245   8.850  28.915   7.186
74382W        W75246   8.671  25.688   3.912
74383W        W75247  10.215  28.213   3.726
74384W        W75248   8.040  26.511   6.922
74385W        W75249   8.794  28.212   6.612
74386W        W75250  10.639  26.205   6.425
74387W        W75251  10.060   0.069   4.090
74388W        W75252  10.023  27.630   5.867
74389W        W75253   8.281  26.380   6.483
74390W        W75254   8.708  27.004   7.140
74391W        W75255   8.177  28.109   4.407
74392W        W75256   9.831  27.744   4.533
74393W        W75257   7.768  26.500   6.462
74394W        W75258   9.055  28.252   4.883
74395W        W75259  10.728  26.973   5.247
74396W        W75260   8.994  25.658   6.779
74397W        W75261   9.944  28.154   5.887
74398W        W75262  10.363  28.673   5.692
74399W        W75263   9.379  28.853   3.871
74400W        W75264   7.343  28.112   6.940
74401W        W75265   8.166  26.497   5.975
74402W        W75266   8.192  25.836   5.216
74403W        W75267   9.634  26.547   5.739
74404W        W75268   8.415  27.587   3.926
74405W        W75269  10.530  27.669   5.791
74406W        W75270   8.154  28.382   6.928
74407W        W75271  10.392   0.091   4.758
74408W        W75272   8.603  26.115   5.119
74409W        W75273   8.014  27.524   5.124
74410W        W75274   8.308  28.999   6.252
74411W        W75275  10.515   0.084   6.883
74412W        W75276   9.633  27.331   6.054
74413W        W75277   7.477  26.981   3.922
74414W        W75278  10.721  28.702   4.871
74415W        W75279  10.557  26.171   3.996
74416W        W75280   8.419  25.852   6.459
74417W        W75281  10.553  28.415   5.268
74418W        W75282  10.256  26.944   5.005
74419W        W75283   8.633  26.611   5.216
74420W        W75284   8.902  26.813   6.424
74421W        W75285   9.849  28.016   6.403
74422W        W75286   8.484  26.800   6.719
74423W        W75287   8.322  28.860   5.110
74424W        W75288   8.004  28.930   6.695
74425W        W75289   7.599  28.187   3.936
74426W        W75290  10.512  28.230   4.782
74427W        W75291   7.991  26.935   6.584
74428W        W75292  10.647  26.677   3.872
74429W        W75293   8.550  27.732   4.417
74430W        W75294   9.680  27.185   6.579
74431W        W75295   9.497  26.835   6.164
74432W        W75296   8.119  27.281   6.091
74433W        W75297  10.347  28.898   6.164
74434W        W75298   9.999  25.784   6.948
74435W        W75299   7.692  26.104   6.792
74436W        W75300   8.151  26.946   5.704
74437W        W75301   8.502  26.642   3.695
74438W        W75302   7.349  28.353   6.473
74439W        W75303   8.633  27.227   5.692
74440W        W75304   8.745  26.207   3.856
74441W        W75305   8.053  27.116   4.803
74442W        W75306   7.402   0.019   6.087
74443W        W75307  10.261  27.049   4.044
74444W        W75308  10.423  26.037   6.886
74445W        W75309   9.988  28.102   4.939
74446W        W75310   7.426  27.269   6.937
74447W        W75311  10.617  25.666   4.115
74448W        W75312  10.237  27.834   4.201
74449W        W75313   8.908  26.891   4.400
74450W        W75314  10.128  26.051   3.722
74451W        W75315  10.111  26.517   5.993
74452W        W75316   7.816  27.047   5.278
74453W        W75317   8.180  27.990   4.918
74454W        W75318   9.841  26.666   4.840
74455W        W75319   8.814  26.226   5.619
74456W        W75320  10.896  28.040   6.237
74457W        W75321  10.752  26.226   5.883
74458W        W75322   7.259  28.684   5.140
74459W        W75323   7.671  28.011   4.464
74460W        W75324   7.817  25.868   7.236
74461W        W75325   9.095  28.498   7.391
74462W        W75326  10.634  27.500   5.321
74463W        W75327  10.216  27.517   3.791
74464W        W75328   9.446   0.074   6.116
74465W        W75329  10.045  27.768   7.159
74466W        W75330   8.826  25.580   4.415
74467W        W75331   9.656  26.382   5.245
74468W        W75332   7.517  28.044   5.721
74469W        W75333   8.605  26.045   4.347
74470W        W75334   8.446  27.446   7.029
74471W        W75335   9.397  26.412   4.771
74472W        W75336   9.546  27.841   5.993
74473W        W75337   7.894  28.550   6.377
74474W        W75338   8.668  28.425   7.085
74475W        W75339   8.121  26.253   4.247
74476W        W75340   9.773  26.373   4.405
74477W        W75341   9.668  28.440   6.654
74478W        W75342   8.368  27.104   5.258
74479W        W75343   7.896  28.862   5.963
74480W        W75344  10.766  28.921   3.651
74481W        W75345   7.536  27.696   6.700
74482W        W75346   9.397  27.762   5.495
74483W        W75347   8.032  27.618   4.590
74484W        W75348   8.327  28.513   6.079
74485W        W75349   8.983  25.812   5.259
74486W        W75350   7.256  27.893   4.173
74487W        W75351   8.963  26.681   3.927
74488W        W75352   7.568  27.356   4.879
74489W        W75353   8.760  26.237   6.655
74490W        W75354  10.603  25.841   3.596
74491W        W75355  10.546  27.562   7.009
74492W        W75356   9.359  28.823   7.086
74493W        W75357  10.888  27.876   6.738
74494W        W75358  10.330  28.563   7.187
74495W        W75359   7.999   0.050   5.498
74496W        W75360  10.808  27.807   4.946
74497W        W75361   9.409  26.815   5.155
74498W        W75362   9.252  25.512   4.924
74499W        W75363   8.317  28.481   4.757
74500W        W75364   8.674  26.406   6.142
74501W        W75365   8.577  25.774   5.561
74502W        W75366   7.498  28.691   3.962
74503W        W75367   9.183  27.746   4.981
74504W        W75368   8.426  28.625   6.579
74505W        W75369   7.586  27.510   4.321
74506W        W75370   7.476  26.207   5.467
74507W        W75371   8.959  28.013   5.373
74508W        W75372   7.351  25.877   4.465
74509W        W75373  10.020  26.944   6.300
74510W        W75374   9.798  26.456   3.759
74511W        W75375  10.417  28.154   5.692
74512W        W75376   9.142  28.487   5.328
74513W        W75377   8.346  28.556   4.219
74514W        W75378   9.670  25.507   3.559
74515W        W75379   7.511  28.830   5.585
74516W        W75380   9.497  26.560   7.088
74517W        W75381   7.644  26.373   7.255
74518W        W75382   7.460  26.829   4.625
74519W        W75383   8.088  26.759   4.033
74520W        W75384   9.757  27.004   7.084
74521W        W75385   8.181  27.461   5.603
74522W        W75386   9.788  25.611   5.042
74523W        W75387   8.777  28.839   5.372
74524W        W75388  10.087  28.454   6.266
74525W        W75389  10.042  28.379   5.403
74526W        W75390   9.685  27.663   5.030
74527W        W75391   9.101  25.921   4.116
74528W        W75392  10.874  25.611   5.074
74529W        W75393   8.266  27.118   3.683
74530W        W75394  10.640  26.561   4.910
74531W        W75395   9.169  27.349   3.750
74532W        W75396  10.270  27.829   6.678
74533W        W75397   9.940  28.669   3.763
74534W        W75398   8.522  26.430   7.086
74535W        W75399   8.429  26.883   6.199
74536W        W75400  10.556  28.259   6.578
74537W        W75401   9.666  26.189   6.724
74538W        W75402   7.475  26.960   6.525
74539W        W75403   9.202  27.241   6.328
74540W        W75404   7.664  27.881   4.980
74541W        W75405   7.698  27.219   5.753
74542W        W75406  10.039  27.496   6.360
74543W        W75407   9.883  28.795   6.977
74544W        W75408   9.697  26.680   6.620
74545W        W75409  10.199  28.638   4.970
74546W        W75410   9.006  28.536   6.223
74547W        W75411   8.337  28.681   5.597
74548W        W75412  10.328  27.981   6.179
74549W        W75413   9.152  27.994   7.256
74550W        W75414   7.938  27.942   5.436
74551W        W75415  10.373  27.932   5.221
74552W        W75416   9.853  28.674   5.803
74553W        W75417   7.878  28.441   5.682
74554W        W75418   8.990  26.591   6.987
74555W        W75419   8.994   0.154   4.702
74556W        W75420   8.689  27.905   7.029
74557W        W75421   8.681  28.234   4.510
74558W        W75422   7.753  26.754   3.536
74559W        W75423   7.574   0.165  10.666
74560W        W75424   7.854  28.021  10.275
74561W        W75425  10.533  27.676   8.012
74562W        W75426  10.728  28.737  10.012
74563W        W75427   8.518  28.703   7.518
74564W        W75428   8.602  26.946   8.402
74565W        W75429   8.201  26.730   8.832
74566W        W75430   9.071  27.509   7.967
74567W        W75431   8.890  28.689  10.457
74568W        W75432   7.568  26.425  10.305
74569W        W75433   7.936  25.616  10.169
74570W        W75434   9.929  25.963   9.062
74571W        W75435   9.439  26.699   7.654
74572W        W75436  10.018  26.388  10.628
74573W        W75437   7.542  26.041   9.961
74574W        W75438   7.665  28.645  10.702
74575W        W75439   9.164  27.997   7.797
74576W        W75440   7.374  26.764   9.377
74577W        W75441   8.556  26.840  10.470
74578W        W75442  10.626  26.649   9.015
74579W        W75443  10.573  27.543   9.921
74580W        W75444   8.911  27.096   8.866
74581W        W75445   9.622  28.295   9.229
74582W        W75446   7.877  27.688   9.535
74583W        W75447   7.257  27.145   9.044
74584W        W75448   8.477  27.220  10.122
74585W        W75449  10.634  26.994  10.506
74586W        W75450   8.150  28.396   8.926
74587W        W75451   9.321  28.068  10.028
74588W        W75452   8.607  26.727   9.249
74589W        W75453   8.730  27.578   8.879
74590W        W75454   9.695  28.339  10.783
74591W        W75455   9.095  27.557  10.850
74592W        W75456   8.983  27.308  10.228
74593W        W75457   7.296  26.666  10.757
74594W        W75458  10.087  28.273  10.444
74595W        W75459   7.807  25.851   8.502
74596W        W75460   8.246  28.125   9.485
74597W        W75461  10.864  27.981   8.910
74598W        W75462  10.357  26.254   9.324
74599W        W75463  10.512  26.365   7.325
74600W        W75464  10.974  27.032   9.601
74601W        W75465   8.905  28.728   9.529
74602W        W75466  10.388  28.131   7.852
74603W        W75467   7.745  28.995   7.862
74604W        W75468   8.117  28.838   8.301
74605W        W75469   7.986  25.893   9.729
74606W        W75470  10.646  26.981   9.988
74607W        W75471   9.854  27.138   8.527
74608W        W75472   9.897  26.969   7.647
74609W        W75473   9.211  28.191   9.526
74610W        W75474   9.123  26.315   8.746
74611W        W75475   9.628  28.363   9.757
74612W        W75476  10.330  27.266   8.350
74613W        W75477   9.115  25.947   8.367
74614W        W75478   7.886  28.502   7.947
74615W        W75479   7.468  26.226   8.539
74616W        W75480   9.921  26.866   8.958
74617W        W75481   7.632  28.325   8.911
74618W        W75482   8.909  28.690   7.842
74619W        W75483  10.202  26.789   7.274
74620W        W75484   7.441  28.534   9.649
74621W        W75485   8.290  28.087  10.012
74622W        W75486   8.426  27.544   8.445
74623W        W75487   8.446  26.072   9.552
74624W        W75488  10.788  25.767   9.186
74625W        W75489   8.018  27.627   7.324
74626W        W75490   7.638  26.450   7.790
74627W        W75491   7.871  28.354   8.451
74628W        W75492   8.690  28.000   8.554
74629W        W75493  10.279  28.719  10.279
74630W        W75494   9.085  26.418   7.900
74631W        W75495  10.453  28.947   8.806
74632W        W75496  10.258  26.725  10.261
74633W        W75497  10.981  28.297   8.525
74634W        W75498   9.531  27.603  10.054
74635W        W75499   7.259  27.264   8.095
74636W        W75500   8.390  27.666   9.700
74637W        W75501   9.546  26.846   8.160
74638W        W75502   9.398  27.308   8.322
74639W        W75503   7.812  26.807   9.690
74640W        W75504   7.779  26.833  10.546
74641W        W75505   7.713  25.737   8.998
74642W        W75506   9.406  26.109   9.191
74643W        W75507   9.104  26.074  10.533
74644W        W75508   9.686  25.999   7.702
74645W        W75509  10.758  28.566  10.526
74646W        W75510   9.522  25.715  10.501
74647W        W75511  10.526  28.098  10.688
74648W        W75512  10.065  26.224  10.151
74649W        W75513  10.032  26.062   8.509
74650W        W75514  10.142  27.371  10.868
74651W        W75515   7.830  28.782   8.741
74652W        W75516   8.621  26.669   7.950
74653W        W75517   8.225  25.875  10.621
74654W        W75518  10.280  26.413   8.223
74655W        W75519  10.588  26.835   8.127
74656W        W75520   8.502  28.984  10.676
74657W        W75521   8.333  25.699   7.892
74658W        W75522  10.639  26.145   8.884
74659W        W75523  10.710  28.351   7.488
74660W        W75524   7.552  27.583   9.039
74661W        W75525   9.642  26.077   7.206
74662W        W75526  10.828  28.403   9.221
74663W        W75527  10.711  25.773   9.720
74664W        W75528   9.328  26.899  10.303
74665W        W75529   9.452  28.200   8.234
74666W        W75530   9.636  27.609  10.882
74667W        W75531   9.520  25.625   9.020
74668W        W75532   7.840  26.615   9.176
74669W        W75533   7.595  27.679   9.980
74670W        W75534   9.555  28.644   8.798
74671W        W75535  10.585  26.689   9.542
74672W        W75536   9.354  28.905  10.196
74673W        W75537  10.482  27.800   7.472
74674W        W75538   8.902  27.361   8.427
74675W        W75539  10.839  25.848  10.225
74676W        W75540   9.197  27.691   9.686
74677W        W75541   9.115  26.695   9.086
74678W        W75542  10.064  26.865   8.125
74679W        W75543  10.296  26.599   7.744
74680W        W75544  10.239  28.484   8.191
74681W        W75545   9.866  27.894   9.014
74682W        W75546   9.871  27.327   8.051
74683W        W75547   9.242  27.532   8.798
74684W        W75548  10.141  27.502   8.779
74685W        W75549   7.639  26.343   9.556
74686W        W75550  10.284  27.272  10.274
74687W        W75551  10.776  28.841   9.497
74688W        W75552   8.684  28.422   8.880
74689W        W75553   9.799  28.834   9.912
74690W        W75554   9.660  26.281   9.833
74691W        W75555   8.954   0.120   9.921
74692W        W75556  10.566  26.012   8.371
74693W        W75557  10.516  27.241   9.501
74694W        W75558   7.320  26.588   9.865
74695W        W75559  10.163  26.402   8.874
74696W        W75560  10.727  26.527  10.272
74697W        W75561   9.464  28.093   8.763
74698W        W75562   8.762  28.734   8.361
74699W        W75563   7.890  25.990   7.735
74700W        W75564   9.130  25.694   9.376
74701W        W75565   8.021  28.542   7.408
74702W        W75566   8.588  27.292   8.002
74703W        W75567   9.090  27.785  10.387
74704W        W75568   8.835  26.397   8.331
74705W        W75569  10.328  25.735   8.791
74706W        W75570   9.954  28.947   9.015
74707W        W75571   9.417  28.738   9.484
74708W        W75572   8.792  27.739   9.370
74709W        W75573  10.545  28.405   9.650
74710W        W75574   8.286  25.977   8.339
74711W        W75575   8.737  28.264   9.362
74712W        W75576   8.134  26.296   7.397
74713W        W75577   8.995  26.922   9.532
74714W        W75578   9.798  25.639   9.482
74715W        W75579   7.364  27.575   9.541
74716W        W75580   8.894  27.215   7.587
74717W        W75581   8.322  25.814   7.382
74718W        W75582   9.116  26.788   8.494
74719W        W75583   9.773  25.808  10.049
74720W        W75584   8.641  27.704  10.146
74721W        W75585   9.409  27.371  10.493
74722W        W75586   9.889  27.541  10.430
74723W        W75587   9.208  25.792  10.957
74724W        W75588   8.383  26.304   9.072
74725W        W75589   7.941  26.284   8.763
74726W        W75590   7.548  28.731   8.292
74727W        W75591   9.200  28.286  10.481
74728W        W75592   8.269  27.671   7.791
74729W        W75593   9.698  27.397   9.034
74730W        W75594  10.016  27.147   9.369
74731W        W75595   9.162  27.344   9.281
74732W        W75596   9.636  27.942   7.513
74733W        W75597   9.543  26.025   8.692
74734W        W75598  11.005  26.108   8.027
74735W        W75599   7.540  28.852  10.241
74736W        W75600   7.794  28.141   9.773
74737W        W75601   7.213  28.923   7.918
74738W        W75602   9.309  26.505   9.524
74739W        W75603   8.722  28.228   7.645
74740W        W75604  10.379  28.685   7.732
74741W        W75605   9.446  27.197   7.793
74742W        W75606   8.335  26.490   8.394
74743W        W75607   9.202  26.274   7.417
74744W        W75608   9.579  27.938  10.482
74745W        W75609  10.114  25.971   8.005
74746W        W75610   7.486  25.653   7.667
74747W        W75611   8.811  28.040   9.814
74748W        W75612   8.461  27.983   9.034
74749W        W75613   8.330  28.091   7.331
74750W        W75614   7.342  28.424   7.939
74751W        W75615   8.164  27.205  10.529
74752W        W75616   8.714  25.826  10.801
74753W        W75617   9.254  25.868  10.081
74754W        W75618   8.684  25.657   8.462
74755W        W75619   9.621  25.893   8.201
74756W        W75620   7.553  25.850   9.477
74757W        W75621   7.460  26.667   8.826
74758W        W75622  10.312  25.703   9.336
74759W        W75623   7.883  26.296   8.223
74760W        W75624  10.090  26.012   9.683
74761W        W75625  10.632  26.942   7.508
74762W        W75626   7.970  26.100   9.259
74763W        W75627   9.197  26.422  10.059
74764W        W75628   7.289  26.130   7.564
74765W        W75629   8.111  27.595  10.146
74766W        W75630   9.515  26.953   9.297
74767W        W75631   9.318  28.952   7.661
74768W        W75632   7.466  27.688   7.234
74769W        W75633   8.333  27.899  10.510
74770W        W75634   7.745  27.224  10.199
74771W        W75635   8.812  27.359   9.754
74772W        W75636  10.311  25.753  10.082
74773W        W75637  10.913  27.361  10.253
74774W        W75638  10.783  27.420   7.632
74775W        W75639   9.555  27.723   8.006
74776W        W75640  10.219   0.035   7.319
74777W        W75641   9.422  27.157  10.997
74778W        W75642   7.884  27.900  10.802
74779W        W75643  10.920  26.166  10.639
74780W        W75644  10.394  27.108   9.002
74781W        W75645   8.966  28.943  10.933
74782W        W75646   8.783  25.712   7.608
74783W        W75647  10.095  28.183   7.441
74784W        W75648   8.100  26.402  10.453
74785W        W75649   8.716  28.217  10.294
74786W        W75650  10.540  26.224   9.902
74787W        W75651  10.011   0.069   7.791
74788W        W75652  10.188  27.644   9.347
74789W        W75653   8.274  26.020  10.129
74790W        W75654   9.012  27.067  10.682
74791W        W75655   8.211  28.071   8.122
74792W        W75656  10.105  27.740   8.271
74793W        W75657   7.952  26.379   9.958
74794W        W75658   9.109  28.419   8.597
74795W        W75659  10.752  27.023   8.611
74796W        W75660   9.050  25.559  10.506
74797W        W75661  10.153  28.193   9.358
74798W        W75662  10.379  28.675   9.230
74799W        W75663   9.474  28.423   7.740
74800W        W75664   7.483  28.146  10.589
74801W        W75665   8.210  26.520   9.528
74802W        W75666   8.216  25.841   8.845
74803W        W75667   9.831  26.433   9.342
74804W        W75668   8.748  27.715   7.544
74805W        W75669  10.659  27.536   9.088
74806W        W75670   8.075  28.351  10.604
74807W        W75671  10.347   0.029   8.207
74808W        W75672   8.654  26.097   8.703
74809W        W75673   8.005  27.515   8.771
74810W        W75674   8.488   0.017   9.673
74811W        W75675  10.541   0.028  10.603
74812W        W75676   9.624  27.416   9.553
74813W        W75677   7.633  27.225   7.408
74814W        W75678  10.665  28.688   8.409
74815W        W75679  10.547  26.127   7.792
74816W        W75680   8.591  25.661  10.310
74817W        W75681  10.531  28.411   8.804
74818W        W75682  10.284  26.815   8.588
74819W        W75683   8.702  26.610   8.774
74820W        W75684   8.874  26.840  10.043
74821W        W75685   9.862  28.000  10.067
74822W        W75686   8.465  26.501  10.060
74823W        W75687   8.400  28.831   8.777
74824W        W75688   8.024   0.033  10.402
74825W        W75689   7.967  28.076   7.672
74826W        W75690  10.505  28.084   8.387
74827W        W75691   8.105  26.854  10.131
74828W        W75692  10.848  26.548   7.750
74829W        W75693   8.682  27.823   8.064
74830W        W75694   9.758  27.152  10.124
74831W        W75695   9.690  26.803   9.747
74832W        W75696   8.070  27.250   9.759
74833W        W75697  10.299  28.903   9.724
74834W        W75698  10.011  25.863  10.546
74835W        W75699   7.741  25.971  10.467
74836W        W75700   8.166  27.011   9.290
74837W        W75701   8.410  26.729   7.490
74838W        W75702   7.438  28.328  10.114
74839W        W75703   8.650  27.235   9.293
74840W        W75704   8.687  26.248   7.564
74841W        W75705   8.089  27.108   8.432
74842W        W75706   7.461   0.045   9.767
74843W        W75707  10.341  27.212   7.846
74844W        W75708  10.452  26.116  10.452
74845W        W75709   9.928  28.160   8.504
74846W        W75710   7.397  27.186  10.719
74847W        W75711  10.472  25.611   7.792
74848W        W75712   9.883  28.140   7.950
74849W        W75713   9.037  26.974   8.025
74850W        W75714  10.126  26.011   7.434
74851W        W75715  10.137  26.528   9.752
74852W        W75716   7.794  27.063   8.895
74853W        W75717   8.167  27.967   8.616
74854W        W75718   9.844  26.570   8.492
74855W        W75719   8.885  26.240   9.199
74856W        W75720  10.838  28.006   9.822
74857W        W75721  10.847  26.209   9.471
74858W        W75722   7.314  28.698   8.758
74859W        W75723   7.669  28.040   8.095
74860W        W75724   7.823  25.906  10.986
74861W        W75725   9.020  28.440  10.938
74862W        W75726  10.622  27.617   8.578
74863W        W75727  10.059  27.694   7.735
74864W        W75728   9.440   0.175   9.750
74865W        W75729  10.054  27.884  10.782
74866W        W75730   8.989  25.507   8.077
74867W        W75731   9.561  26.514   8.908
74868W        W75732   7.512  28.047   9.351
74869W        W75733   8.726  25.996   8.037
74870W        W75734   8.651  27.453  10.591
74871W        W75735   9.398  26.372   8.313
74872W        W75736   9.774  27.905   9.568
74873W        W75737   7.929  28.526  10.102
74874W        W75738   8.539  28.474  10.785
74875W        W75739   8.298  26.256   7.900
74876W        W75740   9.811  26.418   7.992
74877W        W75741   9.639  28.461  10.266
74878W        W75742   8.403  27.189   8.840
74879W        W75743   7.958  28.877   9.670
74880W        W75744  10.706  28.867   7.377
74881W        W75745   7.582  27.621  10.497
74882W        W75746   9.400  27.804   9.219
74883W        W75747   7.960  27.631   8.246
74884W        W75748   8.530  28.493   9.801
74885W        W75749   9.067  25.826   8.871
74886W        W75750   7.466  28.052   7.597
74887W        W75751   8.933  26.710   7.503
74888W        W75752   7.599  27.353   8.499
74889W        W75753   8.781  26.071  10.027
74890W        W75754  10.603  25.852   7.342
74891W        W75755  10.590  27.514  10.641
74892W        W75756   9.374  28.739  10.684
74893W        W75757  10.805  27.869  10.320
74894W        W75758  10.333  28.574  10.797
74895W        W75759   8.048  28.989   9.160
74896W        W75760  10.969  27.843   8.265
74897W        W75761   9.430  27.031   8.797
74898W        W75762   9.305  25.497   8.550
74899W        W75763   8.383  28.411   8.470
74900W        W75764   8.791  26.464   9.664
74901W        W75765   8.643  25.785   9.151
74902W        W75766   7.513  28.673   7.492
74903W        W75767   9.147  27.822   8.378
74904W        W75768   8.396  28.635  10.294
74905W        W75769   7.733  27.621   7.767
74906W        W75770   7.491  26.209   9.075
74907W        W75771   8.999  28.013   8.971
74908W        W75772   7.487  26.008   8.061
74909W        W75773  10.165  27.029   9.836
74910W        W75774   9.857  26.461   7.482
74911W        W75775  10.616  27.955   9.370
74912W        W75776   9.157  28.492   9.108
74913W        W75777   8.428  28.514   7.980
74914W        W75778   9.698  25.597   7.355
74915W        W75779   7.541  28.848   9.216
74916W        W75780   9.475  26.649  10.766
74917W        W75781   7.727  26.379  10.811
74918W        W75782   7.482  26.687   8.251
74919W        W75783   8.088  26.726   7.969
74920W        W75784   9.784  27.050  10.630
74921W        W75785   8.256  27.541   9.215
74922W        W75786   9.841  25.591   8.605
74923W        W75787   8.842  28.890   9.038
74924W        W75788  10.106  28.424   9.900
74925W        W75789  10.023  28.432   8.928
74926W        W75790   9.684  27.668   8.554
74927W        W75791   9.201  25.919   7.830
74928W        W75792  10.862  25.684   8.687
74929W        W75793   8.382  27.253   7.502
74930W        W75794  10.680  26.501   8.523
74931W        W75795   9.277  27.573   7.505
74932W        W75796  10.298  27.809  10.294
74933W        W75797   9.901  28.657   7.506
74934W        W75798   8.593  26.238  10.504
74935W        W75799   8.482  26.921   9.709
74936W        W75800  10.527  28.269  10.162
74937W        W75801   9.579  26.196  10.348
74938W        W75802   7.357  26.879  10.285
74939W        W75803   9.303  27.164   9.854
74940W        W75804   7.650  27.873   8.606
74941W        W75805   7.688  27.205   9.378
74942W        W75806  10.031  27.532   9.879
74943W        W75807   9.889  28.808  10.614
74944W        W75808   9.763  26.648  10.238
74945W        W75809  10.016  28.787   8.536
74946W        W75810   9.061  28.509   9.979
74947W        W75811   8.417  28.658   9.294
74948W        W75812  10.304  27.959   9.789
74949W        W75813   9.303  28.019  10.917
74950W        W75814   7.939  27.942   9.081
74951W        W75815  10.354  27.950   8.908
74952W        W75816   9.925  28.651   9.445
74953W        W75817   7.872  28.464   9.354
74954W        W75818   9.001  26.573  10.532
74955W        W75819   9.294  28.691   8.191
74956W        W75820   8.794  27.998  10.758
74957W        W75821   8.903  28.277   8.152
74958W        W75822   7.893  26.773   7.469
74959W        W75823   7.404   0.184  14.200
74960W        W75824   7.814  28.031  13.883
74961W        W75825  10.551  27.657  11.743
74962W        W75826  10.690  28.869  13.676
74963W        W75827   8.496  28.877  11.174
74964W        W75828   8.638  26.862  11.923
74965W        W75829   8.160  26.756  12.424
74966W        W75830   9.114  27.526  11.735
74967W        W75831   8.879  28.695  14.079
74968W        W75832   7.404  26.330  13.843
74969W        W75833   8.022  25.592  13.808
74970W        W75834   9.878  25.997  12.625
74971W        W75835   9.520  26.737  11.299
74972W        W75836  10.044  26.410  14.243
74973W        W75837   7.486  25.896  13.563
74974W        W75838   7.608  28.745  14.365
74975W        W75839   9.169  28.201  11.397
74976W        W75840   7.371  26.664  12.933
74977W        W75841   8.473  26.799  14.103
74978W        W75842  10.708  26.510  12.671
74979W        W75843  10.601  27.584  13.427
74980W        W75844   9.004  26.969  12.592
74981W        W75845   9.579  28.234  12.871
74982W        W75846   7.912  27.641  13.132
74983W        W75847   7.273  27.146  12.759
74984W        W75848   8.457  27.201  13.785
74985W        W75849  10.640  27.045  14.145
74986W        W75850   8.209  28.367  12.552
74987W        W75851   9.374  28.070  13.685
74988W        W75852   8.673  26.681  12.881
74989W        W75853   8.867  27.524  12.597
74990W        W75854   9.620  28.351  14.416
74991W        W75855   9.011  27.513  14.460
74992W        W75856   8.957  27.326  13.944
74993W        W75857   7.277  26.626  14.264
74994W        W75858  10.040  28.260  14.146
74995W        W75859   7.769  25.781  12.039
74996W        W75860   8.290  28.070  13.109
74997W        W75861  10.888  27.985  12.552
74998W        W75862  10.242  26.445  12.918
74999W        W75863  10.507  26.429  10.865
75000W        W75864  10.967  27.071  13.356
75001W        W75865   8.853  28.762  13.193
75002W        W75866  10.526  28.139  11.547
75003W        W75867   8.020  28.998  11.460
75004W        W75868   8.129  28.844  11.951
75005W        W75869   7.980  25.843  13.366
75006W        W75870  10.548  26.923  13.624
75007W        W75871   9.930  27.130  12.252
75008W        W75872   9.922  27.037  11.201
75009W        W75873   9.196  28.110  13.183
75010W        W75874   9.084  26.292  12.375
75011W        W75875   9.614  28.375  13.376
75012W        W75876  10.391  27.226  12.002
75013W        W75877   9.058  25.938  12.001
75014W        W75878   7.898  28.493  11.605
75015W        W75879   7.438  26.126  12.172
75016W        W75880   9.949  26.734  12.590
75017W        W75881   7.676  28.306  12.542
75018W        W75882   8.935  28.724  11.410
75019W        W75883  10.218  26.847  10.794
75020W        W75884   7.480  28.497  13.207
75021W        W75885   8.270  28.080  13.644
75022W        W75886   8.559  27.570  12.172
75023W        W75887   8.414  26.045  13.149
75024W        W75888  10.851  25.747  12.891
75025W        W75889   8.268  27.538  10.917
75026W        W75890   7.766  26.382  11.333
75027W        W75891   7.921  28.345  12.094
75028W        W75892   8.789  28.054  12.207
75029W        W75893  10.202  28.820  13.867
75030W        W75894   9.180  26.470  11.563
75031W        W75895  10.548  28.903  12.601
75032W        W75896  10.157  26.947  14.030
75033W        W75897  11.054  28.283  12.168
75034W        W75898   9.563  27.592  13.722
75035W        W75899   7.197  27.276  11.830
75036W        W75900   8.402  27.643  13.361
75037W        W75901   9.534  26.807  11.810
75038W        W75902   9.452  27.262  12.022
75039W        W75903   7.679  26.727  13.401
75040W        W75904   7.741  26.697  13.973
75041W        W75905   7.715  25.673  12.568
75042W        W75906   9.357  26.061  12.817
75043W        W75907   9.205  26.104  14.085
75044W        W75908   9.647  25.995  11.350
75045W        W75909  10.787  28.622  14.157
75046W        W75910   9.544  25.665  14.010
75047W        W75911  10.505  28.080  14.317
75048W        W75912  10.162  26.210  13.785
75049W        W75913   9.899  26.079  12.088
75050W        W75914  10.252  27.286  14.449
75051W        W75915   7.894  28.753  12.397
75052W        W75916   8.701  26.613  11.458
75053W        W75917   8.202  25.880  14.210
75054W        W75918  10.292  26.415  11.847
75055W        W75919  10.606  26.823  11.755
75056W        W75920   8.512  28.931  14.355
75057W        W75921   8.185  25.612  11.620
75058W        W75922  10.717  26.028  12.470
75059W        W75923  10.769  28.328  11.107
75060W        W75924   7.613  27.551  12.658
75061W        W75925   9.608  26.137  10.852
75062W        W75926  10.902  28.418  12.886
75063W        W75927  10.825  25.748  13.404
75064W        W75928   9.280  26.954  14.082
75065W        W75929   9.228  28.089  11.905
75066W        W75930   9.753  27.452  14.606
75067W        W75931   9.517  25.558  12.695
75068W        W75932   7.859  26.571  12.814
75069W        W75933   7.614  27.668  13.559
75070W        W75934   9.615  28.630  12.527
75071W        W75935  10.635  26.719  13.146
75072W        W75936   9.362  28.922  13.786
75073W        W75937  10.394  27.709  11.220
75074W        W75938   8.948  27.226  12.145
75075W        W75939  10.859  25.869  13.921
75076W        W75940   9.116  27.684  13.486
75077W        W75941   9.190  26.549  12.800
75078W        W75942  10.064  26.876  11.727
75079W        W75943  10.351  26.738  11.302
75080W        W75944  10.227  28.448  11.821
75081W        W75945   9.897  27.865  12.687
75082W        W75946   9.936  27.370  11.798
75083W        W75947   9.349  27.329  12.534
75084W        W75948  10.260  27.400  12.569
75085W        W75949   7.594  26.260  13.193
75086W        W75950  10.386  27.364  13.842
75087W        W75951  10.757  28.863  13.107
75088W        W75952   8.718  28.443  12.530
75089W        W75953   9.795  28.867  13.516
75090W        W75954   9.774  26.273  13.427
75091W        W75955   8.963   0.157  13.570
75092W        W75956  10.601  26.003  11.925
75093W        W75957  10.435  27.194  13.157
75094W        W75958   7.190  26.518  13.395
75095W        W75959  10.258  26.310  12.407
75096W        W75960  10.509  26.558  13.998
75097W        W75961   9.522  28.074  12.383
75098W        W75962   8.814  28.748  12.108
75099W        W75963   7.762  25.901  11.513
75100W        W75964   9.176  25.657  13.086
75101W        W75965   8.019  28.988  10.932
75102W        W75966   8.637  27.334  11.705
75103W        W75967   9.104  27.805  14.022
75104W        W75968   8.796  26.359  11.903
75105W        W75969  10.277  25.795  12.311
75106W        W75970  10.037  28.946  12.687
75107W        W75971   9.356  28.795  13.238
75108W        W75972   8.817  27.745  13.057
75109W        W75973  10.640  28.450  13.378
75110W        W75974   8.239  25.966  11.993
75111W        W75975   8.745  28.288  13.008
75112W        W75976   8.221  26.259  10.967
75113W        W75977   9.056  26.854  13.209
75114W        W75978   9.735  25.823  13.103
75115W        W75979   7.390  27.537  13.118
75116W        W75980   8.977  27.308  11.275
75117W        W75981   8.310  25.772  11.133
75118W        W75982   9.107  26.723  12.097
75119W        W75983   9.882  25.798  13.597
75120W        W75984   8.637  27.712  13.805
75121W        W75985   9.436  27.430  14.193
75122W        W75986   9.937  27.461  14.077
75123W        W75987   9.245  25.772  14.514
75124W        W75988   8.332  26.346  12.699
75125W        W75989   7.922  26.241  12.376
75126W        W75990   7.602  28.740  11.943
75127W        W75991   9.213  28.308  14.097
75128W        W75992   8.360  27.695  11.416
75129W        W75993   9.801  27.352  12.774
75130W        W75994   9.996  26.917  13.056
75131W        W75995   9.185  27.350  13.061
75132W        W75996   9.744  28.038  11.210
75133W        W75997   9.456  25.929  12.329
75134W        W75998  10.899  26.370  11.675
75135W        W75999   7.577  28.855  13.832
75136W        W76000   7.813  28.108  13.373
75137W        W76001   7.294  28.943  11.571
75138W        W76002   9.297  26.361  13.261
75139W        W76003   8.666  28.298  11.277
75140W        W76004  10.428  28.666  11.394
75141W        W76005   9.514  27.234  11.504
75142W        W76006   8.303  26.467  12.022
75143W        W76007   9.139  26.313  11.027
75144W        W76008   9.648  27.912  14.129
75145W        W76009  10.138  25.974  11.628
75146W        W76010   7.413  25.616  11.272
75147W        W76011   8.758  28.072  13.462
75148W        W76012   8.541  27.954  12.656
75149W        W76013   8.333  28.042  11.006
75150W        W76014   7.366  28.424  11.584
75151W        W76015   8.040  27.122  14.076
75152W        W76016   8.701  25.794  14.424
75153W        W76017   9.343  25.952  13.585
75154W        W76018   8.647  25.650  12.119
75155W        W76019   9.528  25.803  11.824
75156W        W76020   7.581  25.754  13.078
75157W        W76021   7.505  26.584  12.420
75158W        W76022  10.361  25.942  12.813
75159W        W76023   7.834  26.283  11.858
75160W        W76024  10.235  26.062  13.294
75161W        W76025  10.611  27.107  11.014
75162W        W76026   7.959  26.061  12.888
75163W        W76027   9.322  26.523  13.756
75164W        W76028   7.374  26.117  11.146
75165W        W76029   8.100  27.585  13.797
75166W        W76030   9.491  26.954  12.894
75167W        W76031   9.359   0.045  11.434
75168W        W76032   7.336  27.797  10.940
75169W        W76033   8.295  27.961  14.142
75170W        W76034   7.715  27.166  13.679
75171W        W76035   8.793  27.307  13.433
75172W        W76036  10.393  25.758  13.699
75173W        W76037  10.893  27.369  13.802
75174W        W76038  10.827  27.415  11.378
75175W        W76039   9.586  27.735  11.782
75176W        W76040  10.244   0.020  11.022
75177W        W76041   9.338  27.130  14.615
75178W        W76042   7.842  27.987  14.410
75179W        W76043  10.938  26.105  14.373
75180W        W76044  10.409  26.926  12.716
75181W        W76045   8.980  28.918  14.586
75182W        W76046   8.796  25.621  11.276
75183W        W76047  10.244  28.201  11.134
75184W        W76048   8.138  26.376  14.047
75185W        W76049   8.722  28.212  13.953
75186W        W76050  10.640  26.221  13.611
75187W        W76051   9.990   0.015  11.478
75188W        W76052  10.180  27.651  13.055
75189W        W76053   8.315  26.018  13.710
75190W        W76054   8.865  27.023  14.380
75191W        W76055   8.245  28.106  11.724
75192W        W76056  10.207  27.673  12.127
75193W        W76057   7.871  26.288  13.626
75194W        W76058   9.175  28.442  12.299
75195W        W76059  10.804  26.970  12.349
75196W        W76060   9.044  25.614  14.063
75197W        W76061  10.025  28.152  13.116
75198W        W76062  10.344  28.589  12.979
75199W        W76063   9.434  28.602  11.183
75200W        W76064   7.479  28.272  14.190
75201W        W76065   8.167  26.496  13.227
75202W        W76066   8.217  25.829  12.495
75203W        W76067   9.710  26.466  12.962
75204W        W76068   8.849  27.812  11.239
75205W        W76069  10.652  27.603  12.865
75206W        W76070   7.992  28.427  14.176
75207W        W76071  10.354  28.990  11.879
75208W        W76072   8.608  26.116  12.322
75209W        W76073   8.073  27.485  12.409
75210W        W76074   8.464   0.044  13.366
75211W        W76075  10.548   0.070  14.168
75212W        W76076   9.680  27.310  13.276
75213W        W76077   7.685  26.830  11.063
75214W        W76078  10.670  28.620  12.057
75215W        W76079  10.499  26.237  11.361
75216W        W76080   8.551  25.615  13.936
75217W        W76081  10.553  28.393  12.511
75218W        W76082  10.323  26.789  12.227
75219W        W76083   8.673  26.623  12.376
75220W        W76084   8.886  26.862  13.723
75221W        W76085   9.888  28.066  13.680
75222W        W76086   8.541  26.474  13.718
75223W        W76087   8.406  28.833  12.415
75224W        W76088   8.036  28.949  14.106
75225W        W76089   8.130  28.511  11.127
75226W        W76090  10.548  28.094  12.073
75227W        W76091   8.135  26.787  13.674
75228W        W76092  10.854  26.613  11.212
75229W        W76093   8.722  27.860  11.744
75230W        W76094   9.685  27.104  13.832
75231W        W76095   9.597  26.792  13.382
75232W        W76096   8.132  27.211  13.367
75233W        W76097  10.286  28.971  13.340
75234W        W76098  10.041  25.775  14.103
75235W        W76099   7.696  25.924  14.043
75236W        W76100   8.217  26.964  12.906
75237W        W76101   8.653  26.557  10.920
75238W        W76102   7.435  28.359  13.688
75239W        W76103   8.705  27.184  12.958
75240W        W76104   8.685  26.138  11.222
75241W        W76105   8.232  27.155  12.047
75242W        W76106   7.507   0.010  13.332
75243W        W76107  10.333  27.247  11.467
75244W        W76108  10.462  26.075  14.182
75245W        W76109  10.016  28.136  12.191
75246W        W76110   7.500  27.096  14.189
75247W        W76111  10.604  25.727  11.431
75248W        W76112  10.083  27.895  11.664
75249W        W76113   9.072  26.988  11.658
75250W        W76114  10.087  26.013  11.066
75251W        W76115  10.208  26.578  13.423
75252W        W76116   7.746  27.044  12.548
75253W        W76117   8.248  27.966  12.233
75254W        W76118   9.873  26.588  12.111
75255W        W76119   8.818  26.171  12.817
75256W        W76120  10.910  28.021  13.365
75257W        W76121  10.723  26.205  13.101
75258W        W76122   7.374  28.711  12.394
75259W        W76123   7.698  28.033  11.753
75260W        W76124   7.790  25.911  14.576
75261W        W76125   8.975  28.408  14.549
75262W        W76126  10.713  27.499  12.350
75263W        W76127   9.898  27.548  11.317
75264W        W76128   9.463   0.267  13.377
75265W        W76129  10.099  27.791  14.433
75266W        W76130   9.000  25.498  11.738
75267W        W76131   9.581  26.390  12.477
75268W        W76132   7.555  28.007  12.941
75269W        W76133   8.644  25.900  11.677
75270W        W76134   8.554  27.463  14.237
75271W        W76135   9.433  26.314  11.980
75272W        W76136   9.643  27.840  13.270
75273W        W76137   7.945  28.526  13.654
75274W        W76138   8.469  28.408  14.413
75275W        W76139   8.223  26.150  11.498
75276W        W76140   9.815  26.406  11.622
75277W        W76141   9.653  28.496  13.886
75278W        W76142   8.519  27.136  12.479
75279W        W76143   7.994  28.846  13.234
75280W        W76144  10.751  28.842  11.036
75281W        W76145   7.645  27.575  14.065
75282W        W76146   9.415  27.741  12.818
75283W        W76147   8.055  27.635  11.893
75284W        W76148   8.427  28.506  13.398
75285W        W76149   8.983  25.793  12.509
75286W        W76150   7.267  27.930  11.458
75287W        W76151   9.046  26.816  11.133
75288W        W76152   7.600  27.377  12.159
75289W        W76153   8.836  26.011  13.714
75290W        W76154  10.573  25.913  10.933
75291W        W76155  10.655  27.569  14.252
75292W        W76156   9.358  28.767  14.285
75293W        W76157  10.768  27.884  13.842
75294W        W76158  10.344  28.574  14.401
75295W        W76159   8.092   0.041  12.774
75296W        W76160  10.973  27.794  12.029
75297W        W76161   9.498  26.874  12.372
75298W        W76162   9.266  25.488  12.184
75299W        W76163   8.424  28.427  12.088
75300W        W76164   8.788  26.391  13.289
75301W        W76165   8.681  25.645  12.942
75302W        W76166   7.641  28.700  11.220
75303W        W76167   9.185  27.699  12.227
75304W        W76168   8.394  28.613  13.913
75305W        W76169   7.594  27.542  11.637
75306W        W76170   7.495  26.146  12.695
75307W        W76171   9.057  28.054  12.653
75308W        W76172   7.314  25.760  11.758
75309W        W76173  10.076  27.075  13.528
75310W        W76174   9.931  26.502  11.115
75311W        W76175  10.528  28.090  12.993
75312W        W76176   9.172  28.543  12.820
75313W        W76177   8.395  28.587  11.589
75314W        W76178   9.703  25.640  10.968
75315W        W76179   7.617  28.827  12.834
75316W        W76180   9.511  26.534  14.255
75317W        W76181   7.702  26.346  14.345
75318W        W76182   7.491  26.708  11.900
75319W        W76183   8.211  26.646  11.322
75320W        W76184   9.762  26.993  14.347
75321W        W76185   8.340  27.521  12.854
75322W        W76186   9.811  25.568  12.268
75323W        W76187   8.849  28.918  12.677
75324W        W76188  10.131  28.488  13.479
75325W        W76189  10.042  28.361  12.647
75326W        W76190   9.721  27.606  12.285
75327W        W76191   9.137  25.956  11.472
75328W        W76192  10.896  25.626  12.182
75329W        W76193   8.583  27.082  10.969
75330W        W76194  10.705  26.475  12.156
75331W        W76195   9.357  27.685  11.307
75332W        W76196  10.264  27.841  13.945
75333W        W76197   9.946  28.617  11.140
75334W        W76198   8.604  26.206  14.156
75335W        W76199   8.530  26.865  13.345
75336W        W76200  10.470  28.348  13.866
75337W        W76201   9.681  26.156  13.915
75338W        W76202   7.304  26.844  13.768
75339W        W76203   9.270  27.174  13.560
75340W        W76204   7.732  27.875  12.251
75341W        W76205   7.716  27.125  13.060
75342W        W76206  10.045  27.594  13.541
75343W        W76207   9.880  28.793  14.261
75344W        W76208   9.841  26.623  13.807
75345W        W76209  10.185  28.691  12.274
75346W        W76210   9.082  28.494  13.602
75347W        W76211   8.418  28.681  12.916
75348W        W76212  10.367  28.022  13.477
75349W        W76213   9.269  27.975  14.485
75350W        W76214   8.005  27.917  12.700
75351W        W76215  10.377  27.911  12.539
75352W        W76216   9.828  28.665  13.035
75353W        W76217   7.933  28.415  12.972
75354W        W76218   8.958  26.566  14.141
75355W        W76219   9.261  28.641  11.813
75356W        W76220   8.759  27.955  14.396
75357W        W76221   8.820  28.362  11.769
75358W        W76222   8.186  26.760  10.825
75359W        W76223   7.453   0.013  18.014
75360W        W76224   7.807  28.200  17.631
75361W        W76225  10.461  27.700  15.349
75362W        W76226  10.712  28.792  17.304
75363W        W76227   8.555  28.748  14.840
75364W        W76228   8.643  27.007  15.726
75365W        W76229   8.202  26.723  16.080
75366W        W76230   9.138  27.777  15.370
75367W        W76231   8.833  28.822  17.417
75368W        W76232   7.517  26.452  17.657
75369W        W76233   8.120  25.706  17.476
75370W        W76234   9.920  26.082  16.300
75371W        W76235   9.547  26.805  14.976
75372W        W76236  10.036  26.482  17.950
75373W        W76237   7.521  26.051  17.234
75374W        W76238   7.665  28.545  18.041
75375W        W76239   9.221  28.140  14.991
75376W        W76240   7.494  26.738  16.676
75377W        W76241   8.216  26.872  18.018
75378W        W76242  10.724  26.540  16.320
75379W        W76243  10.658  27.691  17.275
75380W        W76244   8.990  27.072  16.292
75381W        W76245   9.523  28.338  16.550
75382W        W76246   7.958  27.645  16.924
75383W        W76247   7.325  27.209  16.557
75384W        W76248   8.441  27.088  17.611
75385W        W76249  10.687  27.040  17.862
75386W        W76250   8.220  28.371  16.273
75387W        W76251   9.362  28.153  17.455
75388W        W76252   8.682  26.760  16.618
75389W        W76253   8.795  27.576  16.290
75390W        W76254   9.531  28.276  17.957
75391W        W76255   8.950  27.454  18.172
75392W        W76256   8.939  27.300  17.682
75393W        W76257   7.247  26.716  18.223
75394W        W76258  10.049  28.268  17.915
75395W        W76259   7.795  25.806  15.699
75396W        W76260   8.389  28.128  16.881
75397W        W76261  10.854  27.915  16.255
75398W        W76262  10.241  26.534  16.534
75399W        W76263  10.535  26.319  14.670
75400W        W76264  10.996  27.121  17.084
75401W        W76265   8.866  28.842  16.869
75402W        W76266  10.568  28.194  15.107
75403W        W76267   8.107  28.894  15.114
75404W        W76268   8.130  28.794  15.646
75405W        W76269   8.033  25.911  17.023
75406W        W76270  10.604  26.858  17.325
75407W        W76271   9.845  27.148  15.824
75408W        W76272   9.985  27.030  14.827
75409W        W76273   9.247  28.079  16.927
75410W        W76274   9.109  26.358  16.105
75411W        W76275   9.629  28.399  17.070
75412W        W76276  10.288  27.304  15.637
75413W        W76277   9.074  26.033  15.704
75414W        W76278   7.830  28.496  15.337
75415W        W76279   7.489  26.195  15.871
75416W        W76280   9.995  26.882  16.247
75417W        W76281   7.702  28.310  16.333
75418W        W76282   8.974  28.701  15.141
75419W        W76283  10.343  26.771  14.493
75420W        W76284   7.567  28.486  17.014
75421W        W76285   8.326  28.169  17.456
75422W        W76286   8.518  27.518  15.849
75423W        W76287   8.499  25.958  16.724
75424W        W76288  10.924  25.672  16.350
75425W        W76289   8.074  27.537  14.372
75426W        W76290   7.804  26.344  14.884
75427W        W76291   7.928  28.333  15.845
75428W        W76292   8.787  27.997  15.968
75429W        W76293  10.263  28.642  17.597
75430W        W76294   9.226  26.460  15.227
75431W        W76295  10.561  28.902  16.190
75432W        W76296  10.233  26.876  17.692
75433W        W76297  11.027  28.271  15.893
75434W        W76298   9.489  27.660  17.431
75435W        W76299   7.106  27.275  15.707
75436W        W76300   8.466  27.690  17.121
75437W        W76301   9.543  26.890  15.489
75438W        W76302   9.479  27.446  15.617
75439W        W76303   7.933  26.755  17.031
75440W        W76304   7.705  26.839  17.991
75441W        W76305   7.797  25.763  16.220
75442W        W76306   9.382  26.115  16.512
75443W        W76307   9.267  26.142  17.828
75444W        W76308   9.419  26.357  14.757
75445W        W76309  10.766  28.633  17.810
75446W        W76310   9.616  25.721  17.692
75447W        W76311  10.587  28.119  17.999
75448W        W76312  10.175  26.369  17.469
75449W        W76313   9.900  26.118  15.763
75450W        W76314  10.256  27.343  18.308
75451W        W76315   7.902  28.751  16.138
75452W        W76316   8.694  26.550  15.126
75453W        W76317   8.349  26.044  17.804
75454W        W76318  10.278  26.428  15.528
75455W        W76319  10.632  26.825  15.402
75456W        W76320   8.397  28.873  18.089
75457W        W76321   8.348  25.729  15.247
75458W        W76322  10.735  26.072  16.101
75459W        W76323  10.769  28.351  14.659
75460W        W76324   7.670  27.581  16.482
75461W        W76325   9.654  26.071  14.402
75462W        W76326  10.863  28.387  16.498
75463W        W76327  10.707  25.859  17.080
75464W        W76328   9.315  26.941  17.693
75465W        W76329   9.470  28.146  15.569
75466W        W76330   9.759  27.490  18.283
75467W        W76331   9.536  25.600  16.527
75468W        W76332   7.973  26.596  16.519
75469W        W76333   7.539  27.848  17.339
75470W        W76334   9.572  28.656  16.102
75471W        W76335  10.650  26.793  16.804
75472W        W76336   9.379  28.945  17.375
75473W        W76337  10.565  27.776  14.759
75474W        W76338   9.017  27.357  15.855
75475W        W76339  10.841  26.041  17.641
75476W        W76340   8.996  27.690  17.271
75477W        W76341   9.209  26.659  16.505
75478W        W76342  10.079  26.881  15.410
75479W        W76343  10.320  26.668  15.012
75480W        W76344  10.301  28.522  15.417
75481W        W76345  10.098  27.889  16.288
75482W        W76346   9.861  27.311  15.279
75483W        W76347   9.295  27.485  16.331
75484W        W76348  10.187  27.375  16.156
75485W        W76349   7.731  26.312  16.864
75486W        W76350  10.434  27.312  17.504
75487W        W76351  10.757  28.840  16.704
75488W        W76352   8.746  28.454  16.231
75489W        W76353   9.847  28.905  17.174
75490W        W76354   9.767  26.386  17.136
75491W        W76355   8.993   0.241  17.183
75492W        W76356  10.579  26.011  15.624
75493W        W76357  10.509  27.278  16.987
75494W        W76358   7.427  26.592  17.171
75495W        W76359  10.297  26.351  16.044
75496W        W76360  10.731  26.551  17.747
75497W        W76361   9.624  28.111  16.080
75498W        W76362   8.820  28.723  15.750
75499W        W76363   7.880  25.883  15.100
75500W        W76364   9.029  25.739  16.725
75501W        W76365   8.088  28.759  14.593
75502W        W76366   8.780  27.403  15.378
75503W        W76367   9.094  27.819  17.771
75504W        W76368   8.892  26.505  15.624
75505W        W76369  10.302  25.795  16.039
75506W        W76370  10.039  28.935  16.308
75507W        W76371   9.404  28.837  16.856
75508W        W76372   8.831  27.808  16.786
75509W        W76373  10.596  28.422  16.965
75510W        W76374   8.252  26.027  15.656
75511W        W76375   8.850  28.341  16.730
75512W        W76376   8.199  26.251  14.560
75513W        W76377   9.020  26.849  16.998
75514W        W76378   9.803  25.968  16.795
75515W        W76379   7.423  27.560  16.939
75516W        W76380   8.904  27.224  14.889
75517W        W76381   8.254  25.748  14.715
75518W        W76382   9.166  26.854  15.855
75519W        W76383   9.903  25.923  17.301
75520W        W76384   8.589  27.679  17.613
75521W        W76385   9.408  27.416  17.904
75522W        W76386  10.063  27.408  17.833
75523W        W76387   9.297  25.772  18.171
75524W        W76388   8.420  26.358  16.385
75525W        W76389   7.978  26.246  16.049
75526W        W76390   7.597  28.738  15.732
75527W        W76391   9.188  28.582  17.699
75528W        W76392   8.343  27.706  15.135
75529W        W76393   9.779  27.328  16.488
75530W        W76394  10.131  27.043  16.726
75531W        W76395   9.291  27.581  16.849
75532W        W76396   9.726  27.972  14.753
75533W        W76397   9.464  25.988  16.025
75534W        W76398  11.088  26.488  15.365
75535W        W76399   7.578  28.746  17.560
75536W        W76400   7.935  28.108  17.138
75537W        W76401   7.272  28.927  15.377
75538W        W76402   9.289  26.395  16.940
75539W        W76403   8.700  28.252  14.972
75540W        W76404  10.406  28.655  14.935
75541W        W76405   9.357  27.251  15.159
75542W        W76406   8.380  26.527  15.614
75543W        W76407   8.986  26.229  14.529
75544W        W76408   9.736  27.818  17.859
75545W        W76409  10.173  26.165  15.069
75546W        W76410   7.398  25.757  14.888
75547W        W76411   8.789  28.150  17.227
75548W        W76412   8.557  28.013  16.417
75549W        W76413   8.327  27.958  14.670
75550W        W76414   7.320  28.389  15.418
75551W        W76415   7.984  27.280  17.787
75552W        W76416   8.814  25.978  18.051
75553W        W76417   9.375  25.982  17.304
75554W        W76418   8.670  25.720  15.769
75555W        W76419   9.475  26.022  15.376
75556W        W76420   7.624  25.798  16.755
75557W        W76421   7.590  26.627  16.155
75558W        W76422  10.418  26.044  16.498
75559W        W76423   7.826  26.285  15.481
75560W        W76424  10.264  26.117  16.985
75561W        W76425  10.727  27.133  14.640
75562W        W76426   8.029  26.077  16.536
75563W        W76427   9.293  26.491  17.448
75564W        W76428   7.302  26.286  14.753
75565W        W76429   8.066  27.694  17.433
75566W        W76430   9.359  27.101  16.700
75567W        W76431   9.371   0.038  15.113
75568W        W76432   7.313  27.835  14.383
75569W        W76433   8.198  27.900  17.878
75570W        W76434   7.711  27.335  17.328
75571W        W76435   8.722  27.251  17.218
75572W        W76436  10.376  25.878  17.455
75573W        W76437  10.947  27.385  17.571
75574W        W76438  10.832  27.407  15.075
75575W        W76439   9.638  27.775  15.226
75576W        W76440  10.227   0.027  14.596
75577W        W76441   9.263  27.010  18.204
75578W        W76442   7.796  28.071  18.150
75579W        W76443  11.046  26.229  18.071
75580W        W76444  10.486  27.006  16.355
75581W        W76445   8.919  28.779  18.156
75582W        W76446   8.723  25.615  14.906
75583W        W76447  10.216  28.183  14.739
75584W        W76448   8.004  26.417  17.858
75585W        W76449   8.673  28.442  17.741
75586W        W76450  10.642  26.337  17.268
75587W        W76451  10.040   0.014  15.079
75588W        W76452  10.086  27.631  16.777
75589W        W76453   8.446  26.061  17.284
75590W        W76454   8.735  26.984  18.059
75591W        W76455   8.181  28.127  15.431
75592W        W76456   9.966  27.700  15.619
75593W        W76457   7.956  26.321  17.346
75594W        W76458   9.172  28.353  15.965
75595W        W76459  10.893  26.949  16.036
75596W        W76460   9.115  25.679  17.690
75597W        W76461   9.993  28.175  16.722
75598W        W76462  10.360  28.567  16.542
75599W        W76463   9.380  28.622  14.794
75600W        W76464   7.369  28.063  17.861
75601W        W76465   8.269  26.384  16.903
75602W        W76466   8.311  25.842  16.155
75603W        W76467   9.726  26.697  16.671
75604W        W76468   8.828  27.755  14.914
75605W        W76469  10.524  27.536  16.536
75606W        W76470   8.162  28.440  17.916
75607W        W76471  10.429   0.027  15.522
75608W        W76472   8.635  26.199  15.947
75609W        W76473   8.096  27.506  16.202
75610W        W76474   8.485   0.096  17.132
75611W        W76475  10.426   0.032  17.879
75612W        W76476   9.710  27.333  17.006
75613W        W76477   7.593  26.760  14.642
75614W        W76478  10.702  28.642  15.745
75615W        W76479  10.648  26.308  15.200
75616W        W76480   8.620  25.650  17.597
75617W        W76481  10.504  28.297  16.112
75618W        W76482  10.372  26.849  15.870
75619W        W76483   8.720  26.681  16.107
75620W        W76484   8.854  26.793  17.489
75621W        W76485   9.889  28.101  17.446
75622W        W76486   8.396  26.536  17.534
75623W        W76487   8.410  28.800  16.072
75624W        W76488   7.938  28.963  17.852
75625W        W76489   8.192  28.384  14.951
75626W        W76490  10.598  28.146  15.613
75627W        W76491   7.965  26.833  17.533
75628W        W76492  10.834  26.691  14.912
75629W        W76493   8.638  27.901  15.496
75630W        W76494   9.704  27.216  17.526
75631W        W76495   9.540  26.849  17.130
75632W        W76496   8.187  27.238  17.171
75633W        W76497  10.307  28.905  16.934
75634W        W76498  10.060  25.845  17.883
75635W        W76499   7.717  25.975  17.691
75636W        W76500   8.237  27.030  16.683
75637W        W76501   8.605  26.578  14.548
75638W        W76502   7.320  28.314  17.412
75639W        W76503   8.854  27.286  16.730
75640W        W76504   8.607  26.114  14.846
75641W        W76505   8.118  27.162  15.829
75642W        W76506   7.567  28.993  17.101
75643W        W76507  10.369  27.206  15.124
75644W        W76508  10.424  26.179  17.876
75645W        W76509  10.093  28.177  15.796
75646W        W76510   7.473  27.287  17.958
75647W        W76511  10.569  25.799  15.139
75648W        W76512  10.085  28.065  15.257
75649W        W76513   9.013  26.923  15.341
75650W        W76514  10.128  25.991  14.577
75651W        W76515  10.225  26.624  17.034
75652W        W76516   7.839  27.062  16.330
75653W        W76517   8.261  27.945  15.996
75654W        W76518   9.892  26.631  15.809
75655W        W76519   8.890  26.263  16.582
75656W        W76520  10.929  28.075  17.108
75657W        W76521  10.825  26.277  16.770
75658W        W76522   7.379  28.710  16.203
75659W        W76523   7.659  28.016  15.547
75660W        W76524   7.948  25.944  18.132
75661W        W76525   9.035  28.267  18.084
75662W        W76526  10.734  27.423  16.096
75663W        W76527  10.100  27.639  14.949
75664W        W76528   9.519   0.311  17.009
75665W        W76529  10.175  27.811  18.128
75666W        W76530   8.971  25.653  15.357
75667W        W76531   9.606  26.485  16.205
75668W        W76532   7.612  28.020  16.759
75669W        W76533   8.694  26.093  15.372
75670W        W76534   8.433  27.415  18.040
75671W        W76535   9.432  26.422  15.706
75672W        W76536   9.707  27.875  17.027
75673W        W76537   7.994  28.580  17.324
75674W        W76538   8.561  28.400  18.251
75675W        W76539   8.241  26.244  15.173
75676W        W76540   9.784  26.452  15.292
75677W        W76541   9.711  28.574  17.564
75678W        W76542   8.482  27.148  16.236
75679W        W76543   8.058  28.898  16.930
75680W        W76544  10.733  28.857  14.615
75681W        W76545   7.706  27.702  17.792
75682W        W76546   9.628  27.832  16.525
75683W        W76547   8.041  27.655  15.645
75684W        W76548   8.480  28.570  17.131
75685W        W76549   8.945  25.871  16.220
75686W        W76550   7.179  27.884  15.356
75687W        W76551   9.053  26.722  14.784
75688W        W76552   7.545  27.358  16.028
75689W        W76553   8.822  26.242  17.594
75690W        W76554  10.615  25.808  14.617
75691W        W76555  10.589  27.552  17.933
75692W        W76556   9.439  28.763  18.114
75693W        W76557  10.931  27.899  17.662
75694W        W76558  10.378  28.589  18.138
75695W        W76559   8.152   0.052  16.461
75696W        W76560  10.926  27.773  15.749
75697W        W76561   9.500  27.005  16.203
75698W        W76562   9.154  25.544  15.868
75699W        W76563   8.460  28.364  15.797
75700W        W76564   8.779  26.401  17.086
75701W        W76565   8.596  25.534  16.450
75702W        W76566   7.245  28.637  14.954
75703W        W76567   9.252  27.810  15.910
75704W        W76568   8.354  28.835  17.579
75705W        W76569   7.543  27.510  15.536
75706W        W76570   7.522  26.177  16.403
75707W        W76571   9.123  28.014  16.390
75708W        W76572   7.444  25.945  15.360
75709W        W76573  10.082  27.058  17.235
75710W        W76574   9.918  26.486  14.736
75711W        W76575  10.485  28.047  16.615
75712W        W76576   9.165  28.677  16.428
75713W        W76577   8.497  28.569  15.334
75714W        W76578   9.752  25.590  14.512
75715W        W76579   7.666  28.796  16.607
75716W        W76580   9.530  26.574  18.027
75717W        W76581   7.666  26.394  18.240
75718W        W76582   7.451  26.870  15.698
75719W        W76583   8.229  26.671  14.886
75720W        W76584   9.811  27.003  18.038
75721W        W76585   8.391  27.540  16.629
75722W        W76586   9.806  25.612  16.074
75723W        W76587   8.779  28.990  16.353
75724W        W76588  10.123  28.469  17.142
75725W        W76589   9.989  28.405  16.259
75726W        W76590   9.719  27.600  16.057
75727W        W76591   9.103  25.996  14.987
75728W        W76592  10.942  25.663  15.827
75729W        W76593   8.382  27.084  14.546
75730W        W76594  10.754  26.493  15.785
75731W        W76595   9.325  27.632  14.846
75732W        W76596  10.308  27.860  17.636
75733W        W76597   9.924  28.604  14.749
75734W        W76598   8.557  26.467  18.026
75735W        W76599   8.473  26.816  17.107
75736W        W76600  10.581  28.258  17.463
75737W        W76601   9.718  26.224  17.648
75738W        W76602   7.449  26.949  17.551
75739W        W76603   9.243  27.239  17.255
75740W        W76604   7.740  27.866  16.042
75741W        W76605   7.758  27.182  16.829
75742W        W76606  10.022  27.583  17.323
75743W        W76607   9.940  28.859  17.939
75744W        W76608   9.770  26.715  17.564
75745W        W76609  10.191  28.706  15.882
75746W        W76610   9.141  28.520  17.163
75747W        W76611   8.450  28.665  16.621
75748W        W76612  10.284  27.987  17.108
75749W        W76613   9.324  27.846  18.240
75750W        W76614   8.051  27.940  16.498
75751W        W76615  10.414  27.766  15.893
75752W        W76616   9.876  28.682  16.710
75753W        W76617   7.999  28.423  16.738
75754W        W76618   9.036  26.584  17.935
75755W        W76619   9.315  28.700  15.583
75756W        W76620   8.677  27.896  18.089
75757W        W76621   8.962  28.295  15.476
75758W        W76622   8.049  26.723  14.404
75759W        W76623   7.383   0.197  21.595
75760W        W76624   7.821  28.037  21.264
75761W        W76625  10.547  27.728  18.935
75762W        W76626  10.665  28.811  20.952
75763W        W76627   8.354  28.768  18.592
75764W        W76628   8.669  26.973  19.217
75765W        W76629   8.208  26.753  19.778
75766W        W76630   9.004  27.347  19.085
75767W        W76631   8.893  28.607  21.450
75768W        W76632   7.442  26.358  21.277
75769W        W76633   8.155  25.323  21.063
75770W        W76634   9.976  25.990  19.932
75771W        W76635   9.449  26.682  18.591
75772W        W76636  10.018  26.446  21.480
75773W        W76637   7.355  26.082  20.864
75774W        W76638   7.609  28.746  21.718
75775W        W76639   8.883  28.067  18.551
75776W        W76640   7.500  26.762  20.317
75777W        W76641   8.336  26.751  21.494
75778W        W76642  11.121  26.576  19.793
75779W        W76643  10.582  27.513  20.686
75780W        W76644   9.109  26.862  19.949
75781W        W76645   9.591  28.307  20.216
75782W        W76646   7.943  27.706  20.527
75783W        W76647   7.245  27.166  20.138
75784W        W76648   8.470  27.124  21.137
75785W        W76649  10.603  27.039  21.439
75786W        W76650   8.201  28.345  19.893
75787W        W76651   9.326  28.123  20.989
75788W        W76652   8.639  26.794  20.185
75789W        W76653   8.848  27.613  19.871
75790W        W76654   9.676  28.274  21.776
75791W        W76655   9.052  27.457  21.822
75792W        W76656   7.292  26.694  21.862
75793W        W76657  10.080  28.282  21.461
75794W        W76658   7.824  25.843  19.354
75795W        W76659   8.295  28.122  20.453
75796W        W76660  10.872  27.960  19.931
75797W        W76661  10.378  26.315  20.159
75798W        W76662  10.615  26.450  18.279
75799W        W76663  10.874  27.071  20.621
75800W        W76664   8.786  28.839  20.428
75801W        W76665  10.710  28.208  18.838
75802W        W76666   7.793  28.935  18.871
75803W        W76667   8.188  28.852  19.367
75804W        W76668   8.101  25.745  20.719
75805W        W76669  10.458  26.938  20.896
75806W        W76670   9.951  27.201  19.512
75807W        W76671   9.912  27.042  18.582
75808W        W76672   9.187  28.131  20.488
75809W        W76673   9.211  26.395  19.703
75810W        W76674   9.584  28.487  20.733
75811W        W76675  10.416  27.332  19.344
75812W        W76676   9.095  26.020  19.321
75813W        W76677   8.072  28.514  18.995
75814W        W76678   7.487  26.178  19.517
75815W        W76679  10.104  26.738  19.942
75816W        W76680   7.666  28.273  19.873
75817W        W76681   8.884  28.581  18.644
75818W        W76682  10.310  26.853  18.200
75819W        W76683   7.475  28.519  20.621
75820W        W76684   8.260  28.124  20.984
75821W        W76685   8.548  27.495  19.432
75822W        W76686   8.499  25.974  20.513
75823W        W76687  10.939  25.707  20.023
75824W        W76688   7.969  27.583  18.222
75825W        W76689   7.634  26.522  18.801
75826W        W76690   7.932  28.325  19.448
75827W        W76691   8.723  27.975  19.500
75828W        W76692  10.256  28.755  21.309
75829W        W76693   9.129  26.335  18.831
75830W        W76694  10.637  28.913  19.922
75831W        W76695  10.101  26.928  21.271
75832W        W76696  10.963  28.311  19.321
75833W        W76697   9.533  27.619  20.976
75834W        W76698   7.273  27.214  19.165
75835W        W76699   8.423  27.701  20.731
75836W        W76700   9.602  26.922  19.042
75837W        W76701   9.458  27.298  19.362
75838W        W76702   7.910  26.815  20.617
75839W        W76703   7.785  26.734  21.345
75840W        W76704   7.822  25.722  19.855
75841W        W76705   9.469  26.102  20.113
75842W        W76706   9.209  26.159  21.352
75843W        W76707   9.624  26.161  18.657
75844W        W76708  10.701  28.533  21.486
75845W        W76709   9.528  25.600  21.274
75846W        W76710  10.500  28.062  21.659
75847W        W76711  10.146  26.215  21.038
75848W        W76712   9.928  26.165  19.334
75849W        W76713  10.233  27.326  21.675
75850W        W76714   7.918  28.757  19.805
75851W        W76715   8.658  26.583  18.868
75852W        W76716   8.144  25.801  21.251
75853W        W76717  10.321  26.491  19.160
75854W        W76718  10.641  26.904  19.111
75855W        W76719   8.550  28.930  21.648
75856W        W76720   8.401  25.647  18.997
75857W        W76721  10.727  26.127  19.816
75858W        W76722  10.814  28.434  18.386
75859W        W76723   7.588  27.558  20.031
75860W        W76724   9.701  26.106  18.149
75861W        W76725  10.873  28.440  20.151
75862W        W76726  10.785  25.805  20.623
75863W        W76727   9.269  27.034  21.583
75864W        W76728   9.207  27.982  18.984
75865W        W76729   9.858  27.466  22.036
75866W        W76730   9.556  25.607  19.945
75867W        W76731   7.934  26.555  20.148
75868W        W76732   7.618  27.661  20.923
75869W        W76733   9.583  28.617  19.410
75870W        W76734  10.614  26.602  20.521
75871W        W76735   9.296  28.826  21.108
75872W        W76736  10.595  27.751  18.419
75873W        W76737   8.967  27.205  19.583
75874W        W76738  10.903  25.821  21.160
75875W        W76739   9.050  27.729  20.817
75876W        W76740   9.443  26.603  20.233
75877W        W76741  10.127  26.977  19.067
75878W        W76742  10.315  26.693  18.686
75879W        W76743  10.481  28.476  19.216
75880W        W76744  10.043  28.141  19.977
75881W        W76745   9.829  27.386  18.984
75882W        W76746   9.352  27.422  19.866
75883W        W76747  10.375  27.199  19.892
75884W        W76748   7.670  26.296  20.500
75885W        W76749  10.365  27.370  21.133
75886W        W76750  10.815  28.892  20.413
75887W        W76751   8.799  28.378  19.819
75888W        W76752   9.794  28.933  21.094
75889W        W76753   9.679  26.314  20.802
75890W        W76754   8.955   0.131  20.818
75891W        W76755  10.578  26.062  19.267
75892W        W76756  10.217  27.290  20.401
75893W        W76757   7.492  26.618  20.835
75894W        W76758  10.272  26.339  19.659
75895W        W76759  10.481  26.560  21.269
75896W        W76760   9.619  28.165  19.694
75897W        W76761   8.915  28.677  19.435
75898W        W76762   7.815  26.084  18.610
75899W        W76763   9.226  25.714  20.340
75900W        W76764   7.915  28.910  18.362
75901W        W76765   8.417  27.344  18.953
75902W        W76766   9.152  27.748  21.343
75903W        W76767   8.927  26.497  19.280
75904W        W76768  10.369  25.780  19.656
75905W        W76769  10.099   0.031  20.019
75906W        W76770   9.273  28.693  20.352
75907W        W76771   8.790  27.780  20.377
75908W        W76772  10.552  28.472  20.584
75909W        W76773   8.307  26.036  19.341
75910W        W76774   8.757  28.342  20.317
75911W        W76775   8.182  26.343  18.346
75912W        W76776   9.039  26.827  20.531
75913W        W76777   9.800  25.769  20.373
75914W        W76778   7.335  27.568  20.501
75915W        W76779   8.790  27.146  18.612
75916W        W76780   8.267  25.861  18.537
75917W        W76781   9.284  26.828  19.444
75918W        W76782   9.881  25.795  20.879
75919W        W76783   8.662  27.633  21.186
75920W        W76784   9.523  27.508  21.633
75921W        W76785   9.901  27.457  21.297
75922W        W76786   9.198  25.760  21.681
75923W        W76787   8.410  26.340  20.080
75924W        W76788   7.996  26.230  19.732
75925W        W76789   7.675  28.764  19.343
75926W        W76790   9.237  28.234  21.481
75927W        W76791   8.048  27.669  18.743
75928W        W76792   9.880  27.355  20.007
75929W        W76793   9.868  26.919  20.344
75930W        W76794   9.264  27.621  20.350
75931W        W76795   9.795  28.061  18.353
75932W        W76796   9.521  26.003  19.608
75933W        W76797  10.970  26.509  19.051
75934W        W76798   7.583  28.894  21.222
75935W        W76799   7.793  28.143  20.760
75936W        W76800   7.275  28.917  18.923
75937W        W76801   9.208  26.251  20.539
75938W        W76802   8.452  28.293  18.734
75939W        W76803  10.388  28.635  18.683
75940W        W76804   9.414  27.217  18.662
75941W        W76805   8.383  26.545  19.318
75942W        W76806   9.216  26.256  18.327
75943W        W76807   9.655  27.945  21.358
75944W        W76808  10.152  26.079  18.870
75945W        W76809   7.436  25.738  18.584
75946W        W76810   8.725  28.115  20.764
75947W        W76811   8.527  27.982  20.005
75948W        W76812   8.253  27.992  18.379
75949W        W76813   7.535  28.439  18.982
75950W        W76814   8.037  27.173  21.424
75951W        W76815   8.616  25.792  21.486
75952W        W76816   9.364  25.925  20.903
75953W        W76817   8.708  25.712  19.495
75954W        W76818   9.551  25.881  19.100
75955W        W76819   7.626  25.778  20.514
75956W        W76820   7.589  26.614  19.755
75957W        W76821  10.462  25.795  20.176
75958W        W76822   7.883  26.370  19.238
75959W        W76823  10.236  26.034  20.571
75960W        W76824  10.756  27.225  18.320
75961W        W76825   8.020  26.028  20.238
75962W        W76826   9.180  26.533  20.970
75963W        W76827   7.280  26.237  18.548
75964W        W76828   8.120  27.614  21.148
75965W        W76829   9.404  27.115  20.271
75966W        W76830   9.328  28.893  18.631
75967W        W76831   7.456  27.699  18.260
75968W        W76832   8.318  27.994  21.472
75969W        W76833   7.708  27.140  21.018
75970W        W76834   8.744  27.300  20.726
75971W        W76835  10.405  25.737  20.976
75972W        W76836  10.876  27.340  21.080
75973W        W76837  10.975  27.519  18.670
75974W        W76838   9.572  27.737  18.699
75975W        W76839  10.223   0.016  18.359
75976W        W76840   9.441  27.148  22.046
75977W        W76841   7.881  27.895  21.763
75978W        W76842  10.936  26.080  21.628
75979W        W76843  10.638  26.717  19.959
75980W        W76844   8.985  28.856  21.929
75981W        W76845   8.740  25.673  18.562
75982W        W76846  10.313  28.185  18.445
75983W        W76847   8.082  26.297  21.399
75984W        W76848   8.775  28.143  21.261
75985W        W76849  10.650  26.227  20.894
75986W        W76850   9.949   0.002  18.784
75987W        W76851  10.094  27.776  20.332
75988W        W76852   8.382  26.180  20.992
75989W        W76853   8.747  27.076  21.586
75990W        W76854   8.293  28.018  19.120
75991W        W76855  10.119  27.729  19.240
75992W        W76856   7.858  26.170  20.960
75993W        W76857   9.172  28.234  19.456
75994W        W76858  10.878  27.014  19.570
75995W        W76859   9.028  25.658  21.189
75996W        W76860  10.044  28.280  20.471
75997W        W76861  10.305  28.570  20.121
75998W        W76862   9.355  28.362  18.481
75999W        W76863   7.479  28.237  21.612
76000W        W76864   8.191  26.392  20.567
76001W        W76865   8.356  25.864  19.854
76002W        W76866   9.888  26.354  20.313
76003W        W76867   8.564  27.611  18.521
76004W        W76868  10.555  27.602  20.157
76005W        W76869   8.001  28.388  21.631
76006W        W76870  10.174   0.091  19.230
76007W        W76871   8.697  26.213  19.648
76008W        W76872   8.070  27.448  19.793
76009W        W76873   8.385   0.070  20.642
76010W        W76874  10.629   0.063  21.440
76011W        W76875   9.718  27.438  20.495
76012W        W76876   7.668  27.221  18.425
76013W        W76877  10.645  28.945  19.330
76014W        W76878  10.618  26.277  18.764
76015W        W76879   8.563  25.694  20.980
76016W        W76880  10.597  28.365  19.721
76017W        W76881  10.351  26.856  19.523
76018W        W76882   8.713  26.729  19.677
76019W        W76883   9.008  27.011  21.115
76020W        W76884   9.944  28.149  20.967
76021W        W76885   8.669  26.619  21.070
76022W        W76886   8.461  28.782  19.803
76023W        W76887   8.061  28.882  21.506
76024W        W76888   7.977  28.415  18.490
76025W        W76889  10.607  27.935  19.406
76026W        W76890   8.159  26.651  21.022
76027W        W76891  10.807  26.809  18.629
76028W        W76892   8.725  27.775  18.999
76029W        W76893   9.550  27.103  21.155
76030W        W76894   9.539  26.812  20.718
76031W        W76895   8.143  27.269  20.743
76032W        W76896  10.321  28.946  20.480
76033W        W76897  10.065  25.677  21.356
76034W        W76898   7.705  25.660  21.027
76035W        W76899   8.179  27.039  20.234
76036W        W76900   8.452  26.765  18.451
76037W        W76901   7.452  28.376  21.109
76038W        W76902   8.898  27.254  20.234
76039W        W76903   8.682  26.221  18.493
76040W        W76904   8.190  27.099  19.392
76041W        W76905   7.541   0.040  20.733
76042W        W76906  10.474  27.244  18.766
76043W        W76907  10.482  26.052  21.382
76044W        W76908  10.136  28.198  19.483
76045W        W76909   7.509  27.117  21.604
76046W        W76910  10.576  25.770  18.717
76047W        W76911  10.203  28.140  18.943
76048W        W76912   9.100  26.856  18.935
76049W        W76913  10.193  26.129  18.349
76050W        W76914  10.097  26.618  20.714
76051W        W76915   7.746  27.056  19.947
76052W        W76916   8.227  27.912  19.605
76053W        W76917   9.876  26.688  19.418
76054W        W76918   8.934  26.366  20.118
76055W        W76919  10.894  28.076  20.589
76056W        W76920  10.905  26.223  20.297
76057W        W76921   7.385  28.687  19.763
76058W        W76922   7.783  27.996  19.086
76059W        W76923   7.689  25.952  21.451
76060W        W76924   8.993  28.332  21.928
76061W        W76925  10.772  27.514  19.675
76062W        W76926  10.105  27.707  18.647
76063W        W76927   9.483   0.079  20.654
76064W        W76928  10.016  27.799  21.682
76065W        W76929   8.933  25.569  19.048
76066W        W76930   9.723  26.425  19.813
76067W        W76931   7.545  28.002  20.319
76068W        W76932   8.705  26.065  18.992
76069W        W76933   8.402  27.500  21.618
76070W        W76934   9.465  26.395  19.230
76071W        W76935   9.655  27.945  20.591
76072W        W76936   7.941  28.536  21.099
76073W        W76937   8.514  28.376  21.778
76074W        W76938   8.238  26.282  18.862
76075W        W76939   9.873  26.518  18.924
76076W        W76940   9.643  28.463  21.255
76077W        W76941   8.519  27.185  19.853
76078W        W76942   7.963  28.766  20.635
76079W        W76943  10.744  28.925  18.363
76080W        W76944   7.668  27.563  21.423
76081W        W76945   9.646  27.812  20.081
76082W        W76946   8.040  27.576  19.261
76083W        W76947   8.464  28.571  20.783
76084W        W76948   9.065  25.896  19.851
76085W        W76949   7.570  28.056  18.620
76086W        W76950   8.951  26.675  18.446
76087W        W76951   7.663  27.296  19.495
76088W        W76952   8.881  26.107  20.951
76089W        W76953  10.661  25.926  18.232
76090W        W76954  10.666  27.583  21.503
76091W        W76955   9.368  28.702  21.639
76092W        W76956  10.782  27.858  21.065
76093W        W76957  10.330  28.547  21.838
76094W        W76958   8.061   0.068  20.212
76095W        W76959  11.064  27.875  19.031
76096W        W76960   9.620  26.938  19.829
76097W        W76961   9.272  25.560  19.480
76098W        W76962   8.443  28.408  19.433
76099W        W76963   8.711  26.433  20.583
76100W        W76964   8.725  25.659  20.194
76101W        W76965   7.508  28.650  18.526
76102W        W76966   9.162  27.708  19.460
76103W        W76967   8.406  28.524  21.303
76104W        W76968   7.784  27.226  18.953
76105W        W76969   7.559  26.169  20.021
76106W        W76970   9.167  28.022  19.965
76107W        W76971   7.508  26.053  19.011
76108W        W76972   9.962  27.129  20.827
76109W        W76973   9.899  26.549  18.416
76110W        W76974  10.488  28.103  20.229
76111W        W76975   9.305  28.550  19.849
76112W        W76976   8.579  28.747  19.046
76113W        W76977   9.752  25.628  18.354
76114W        W76978   7.611  28.826  20.216
76115W        W76979   9.521  26.664  21.865
76116W        W76980   7.695  26.399  21.723
76117W        W76981   7.471  26.730  19.251
76118W        W76982   8.204  26.852  18.915
76119W        W76983   9.780  27.059  21.638
76120W        W76984   8.357  27.532  20.234
76121W        W76985   9.881  25.658  19.518
76122W        W76986   8.941  28.890  19.929
76123W        W76987  10.112  28.629  20.833
76124W        W76988   9.826  28.613  19.878
76125W        W76989   9.736  27.670  19.593
76126W        W76990   9.209  25.844  18.685
76127W        W76991  10.859  25.678  19.497
76128W        W76992   8.213  27.217  18.491
76129W        W76993  10.722  26.521  19.484
76130W        W76994   9.073  27.601  18.644
76131W        W76995  10.278  27.855  21.238
76132W        W76996   9.895  28.584  18.375
76133W        W76997   8.599  26.300  21.480
76134W        W76998   8.454  26.870  20.659
76135W        W76999  10.452  28.324  21.093
76136W        W77000   9.716  26.077  21.280
76137W        W77001   7.298  26.846  21.233
76138W        W77002   9.263  27.258  20.733
76139W        W77003   7.724  27.824  19.611
76140W        W77004   7.725  27.246  20.427
76141W        W77005  10.040  27.643  20.830
76142W        W77006   9.874  28.743  21.629
76143W        W77007   9.534  26.601  21.347
76144W        W77008  10.249  28.739  19.611
76145W        W77009   9.019  28.535  20.789
76146W        W77010   8.335  28.643  20.287
76147W        W77011  10.394  27.988  20.721
76148W        W77012   9.296  27.913  21.866
76149W        W77013   7.994  27.904  20.063
76150W        W77014  10.244  27.698  19.752
76151W        W77015   9.840  28.759  20.384
76152W        W77016   7.883  28.390  20.307
76153W        W77017   9.000  26.624  21.467
76154W        W77018   9.252  28.529  19.013
76155W        W77019   8.794  27.894  21.708
76156W        W77020   8.805  28.283  19.090
76157W        W77021   7.930  26.780  18.466
76158W        W77022   7.264   0.209  25.189
76159W        W77023   7.791  28.106  24.922
76160W        W77024  10.573  27.751  22.701
76161W        W77025  10.643  28.820  24.587
76162W        W77026   8.521  28.768  22.131
76163W        W77027   8.587  27.068  23.076
76164W        W77028   8.287  26.786  23.410
76165W        W77029   9.134  27.697  22.698
76166W        W77030   8.885  28.767  25.009
76167W        W77031   7.550  26.379  24.949
76168W        W77032   8.084  25.742  24.757
76169W        W77033   9.948  26.064  23.712
76170W        W77034   9.546  26.774  22.399
76171W        W77035  10.088  26.360  25.349
76172W        W77036   7.636  26.049  24.549
76173W        W77037   7.559  28.812  25.288
76174W        W77038   9.179  28.103  22.371
76175W        W77039   7.517  26.768  23.958
76176W        W77040   8.280  26.842  25.269
76177W        W77041  10.590  26.800  23.736
76178W        W77042  10.564  27.522  24.514
76179W        W77043   8.957  27.091  23.491
76180W        W77044   9.530  28.291  23.841
76181W        W77045   7.910  27.753  24.188
76182W        W77046   7.290  27.215  23.853
76183W        W77047   8.393  27.223  24.901
76184W        W77048  10.731  27.042  25.121
76185W        W77049   8.175  28.413  23.539
76186W        W77050   9.381  28.080  24.658
76187W        W77051   8.647  26.779  23.798
76188W        W77052   8.834  27.606  23.593
76189W        W77053   9.680  28.389  25.348
76190W        W77054   8.872  27.425  25.369
76191W        W77055   9.040  27.350  24.878
76192W        W77056   7.262  26.745  25.504
76193W        W77057  10.084  28.225  25.082
76194W        W77058   7.671  25.822  23.005
76195W        W77059   8.270  28.150  24.131
76196W        W77060  10.923  27.972  23.632
76197W        W77061  10.388  26.320  23.825
76198W        W77062  10.499  26.370  21.780
76199W        W77063  11.017  27.038  24.347
76200W        W77064   8.829  28.801  24.179
76201W        W77065  10.471  28.187  22.434
76202W        W77066   7.764   0.032  22.506
76203W        W77067   8.133  28.885  22.923
76204W        W77068   8.108  26.021  24.318
76205W        W77069  10.635  26.874  24.651
76206W        W77070   9.897  27.171  23.129
76207W        W77071   9.911  26.948  22.116
76208W        W77072   9.176  28.129  24.188
76209W        W77073   9.152  26.654  23.686
76210W        W77074   9.617  28.389  24.343
76211W        W77075  10.223  27.362  22.773
76212W        W77076   9.624  26.332  22.880
76213W        W77077   7.892  28.534  22.578
76214W        W77078   7.340  26.149  23.222
76215W        W77079  10.072  26.806  23.656
76216W        W77080   7.660  28.365  23.543
76217W        W77081   8.944  28.588  22.383
76218W        W77082  10.255  26.820  21.754
76219W        W77083   7.450  28.585  24.255
76220W        W77084   8.234  28.172  24.663
76221W        W77085   8.473  27.571  23.170
76222W        W77086   8.536  26.080  24.048
76223W        W77087  10.892  25.878  23.648
76224W        W77088   7.903  27.382  21.870
76225W        W77089   7.803  26.444  22.225
76226W        W77090   7.917  28.396  23.084
76227W        W77091   8.764  28.019  23.251
76228W        W77092  10.215  28.702  24.848
76229W        W77093   9.186  26.551  22.695
76230W        W77094  10.559  28.903  23.544
76231W        W77095  10.375  26.657  25.043
76232W        W77096  11.013  28.323  23.223
76233W        W77097   9.500  27.567  24.651
76234W        W77098   7.187  27.297  22.925
76235W        W77099   8.379  27.746  24.421
76236W        W77100   9.554  26.865  22.888
76237W        W77101   9.435  27.359  22.966
76238W        W77102   7.888  26.854  24.324
76239W        W77103   7.769  26.783  25.360
76240W        W77104   7.650  25.738  23.517
76241W        W77105   9.507  26.148  24.012
76242W        W77106   9.214  26.125  25.270
76243W        W77107   9.417  26.304  22.249
76244W        W77108  10.774  28.517  25.128
76245W        W77109   9.587  25.751  25.183
76246W        W77110  10.531  28.062  25.251
76247W        W77111  10.109  26.246  24.852
76248W        W77112  10.007  26.150  23.186
76249W        W77113  10.209  27.344  25.598
76250W        W77114   7.864  28.817  23.374
76251W        W77115   8.887  26.350  22.332
76252W        W77116   8.250  25.953  25.239
76253W        W77117  10.274  26.513  22.857
76254W        W77118  10.527  26.947  22.719
76255W        W77119   8.477   0.044  25.273
76256W        W77120   8.144  25.528  22.457
76257W        W77121  10.835  26.379  23.538
76258W        W77122  10.793  28.324  21.998
76259W        W77123   7.585  27.623  23.690
76260W        W77124   9.584  26.165  21.762
76261W        W77125  10.851  28.455  23.799
76262W        W77126  10.725  25.893  24.409
76263W        W77127   9.350  26.958  25.070
76264W        W77128   9.429  28.233  22.840
76265W        W77129   9.699  27.480  25.692
76266W        W77130   9.617  25.675  23.826
76267W        W77131   7.939  26.565  23.708
76268W        W77132   7.599  27.753  24.597
76269W        W77133   9.629  28.622  23.165
76270W        W77134  10.523  26.606  24.225
76271W        W77135   9.377  28.901  24.817
76272W        W77136  10.424  27.676  22.013
76273W        W77137   8.955  27.449  23.115
76274W        W77138  10.909  25.951  24.890
76275W        W77139   9.037  27.725  24.499
76276W        W77140   9.499  26.672  24.113
76277W        W77141  10.009  26.905  22.660
76278W        W77142  10.322  26.703  22.302
76279W        W77143  10.264  28.582  22.715
76280W        W77144  10.102  27.970  23.507
76281W        W77145   9.717  27.290  22.507
76282W        W77146   9.330  27.462  23.489
76283W        W77147  10.336  27.250  23.732
76284W        W77148   7.765  26.359  24.139
76285W        W77149  10.235  27.161  25.101
76286W        W77150  10.723  28.869  24.057
76287W        W77151   8.698  28.449  23.523
76288W        W77152   9.798  28.880  24.499
76289W        W77153   9.736  26.240  24.484
76290W        W77154   9.016   0.150  24.532
76291W        W77155  10.625  26.137  23.015
76292W        W77156   7.450  26.593  24.481
76293W        W77157  10.365  26.478  23.354
76294W        W77158  10.861  26.556  25.091
76295W        W77159   9.618  28.146  23.354
76296W        W77160   8.815  28.774  23.136
76297W        W77161   7.682  25.962  21.978
76298W        W77162   9.114  25.805  23.802
76299W        W77163   8.003  28.849  22.066
76300W        W77164   8.732  27.364  22.654
76301W        W77165   9.109  27.849  25.011
76302W        W77166   9.070  26.119  22.993
76303W        W77167  10.402  25.926  23.447
76304W        W77168  10.059  28.970  23.647
76305W        W77169   9.345  28.804  24.209
76306W        W77170   8.755  27.800  24.075
76307W        W77171  10.626  28.409  24.273
76308W        W77172   8.134  25.929  22.797
76309W        W77173   8.743  28.321  24.008
76310W        W77174   8.188  26.423  21.877
76311W        W77175   9.003  26.782  24.171
76312W        W77176   9.923  25.826  24.206
76313W        W77177   7.390  27.611  24.161
76314W        W77178   8.797  27.177  22.158
76315W        W77179   8.156  25.893  21.752
76316W        W77180   9.076  26.958  23.002
76317W        W77181   9.867  25.795  24.745
76318W        W77182   8.629  27.741  24.871
76319W        W77183   9.399  27.492  25.252
76320W        W77184   9.872  27.500  24.986
76321W        W77185   9.302  25.767  25.641
76322W        W77186   8.451  26.339  23.608
76323W        W77187   7.882  26.207  23.309
76324W        W77188   7.579  28.765  22.925
76325W        W77189   9.261  28.388  25.046
76326W        W77190   8.328  27.674  22.453
76327W        W77191   9.820  27.300  23.643
76328W        W77192  10.033  26.996  24.142
76329W        W77193   9.224  27.619  23.992
76330W        W77194   9.681  27.973  22.203
76331W        W77195   9.448  26.047  23.470
76332W        W77196  10.688  26.425  22.568
76333W        W77197   7.538  28.946  24.775
76334W        W77198   7.780  28.203  24.405
76335W        W77199   7.228  28.936  22.559
76336W        W77200   9.218  26.336  24.447
76337W        W77201   8.637  28.177  22.342
76338W        W77202  10.599  28.688  22.348
76339W        W77203   9.205  27.155  22.529
76340W        W77204   8.677  26.404  22.810
76341W        W77205   9.077  26.293  21.846
76342W        W77206   9.632  27.945  25.095
76343W        W77207  10.200  26.027  22.705
76344W        W77208   7.290  25.744  22.233
76345W        W77209   8.722  28.135  24.484
76346W        W77210   8.487  27.989  23.684
76347W        W77211   8.363  27.902  21.985
76348W        W77212   7.334  28.420  22.616
76349W        W77213   7.972  27.263  25.231
76350W        W77214   8.746  25.941  25.348
76351W        W77215   9.365  25.949  24.759
76352W        W77216   8.485  25.573  22.956
76353W        W77217   9.856  25.987  22.194
76354W        W77218   7.675  25.866  24.049
76355W        W77219   7.546  26.609  23.374
76356W        W77220  10.461  25.844  23.970
76357W        W77221   7.649  26.021  22.515
76358W        W77222  10.272  26.160  24.348
76359W        W77223  10.710  27.243  21.910
76360W        W77224   8.063  26.056  23.782
76361W        W77225   9.124  26.507  24.934
76362W        W77226   7.313  26.271  22.198
76363W        W77227   8.098  27.678  24.852
76364W        W77228   9.313  27.110  23.874
76365W        W77229   9.257  28.998  22.378
76366W        W77230   7.401  27.561  21.892
76367W        W77231   8.293  28.086  25.154
76368W        W77232   7.770  27.294  24.721
76369W        W77233   8.692  27.347  24.489
76370W        W77234  10.383  25.821  24.776
76371W        W77235  10.970  27.357  24.790
76372W        W77236  10.748  27.359  22.437
76373W        W77237   9.650  27.771  22.706
76374W        W77238  10.245   0.055  21.813
76375W        W77239   9.321  27.078  25.578
76376W        W77240   7.852  28.006  25.442
76377W        W77241  11.055  26.170  25.353
76378W        W77242  10.536  27.122  24.188
76379W        W77243   8.934  28.967  25.505
76380W        W77244   8.571  25.616  21.964
76381W        W77245  10.145  28.119  22.049
76382W        W77246   8.041  26.405  25.093
76383W        W77247   8.754  28.262  24.979
76384W        W77248  10.601  26.336  24.690
76385W        W77249  10.171  28.998  22.337
76386W        W77250  10.095  27.662  23.960
76387W        W77251   8.380  26.167  24.783
76388W        W77252   8.789  26.945  25.161
76389W        W77253   8.214  28.130  22.715
76390W        W77254  10.123  27.843  22.927
76391W        W77255   7.982  26.433  24.593
76392W        W77256   9.160  28.398  23.275
76393W        W77257  10.911  27.013  23.381
76394W        W77258   9.091  25.611  25.164
76395W        W77259   9.990  28.175  24.003
76396W        W77260  10.323  28.588  23.901
76397W        W77261   9.407  28.539  22.144
76398W        W77262   7.451  28.304  25.279
76399W        W77263   8.259  26.503  24.113
76400W        W77264   8.123  25.756  23.316
76401W        W77265   9.959  26.462  24.059
76402W        W77266   8.837  27.709  22.240
76403W        W77267  10.623  27.615  24.003
76404W        W77268   7.956  28.481  25.224
76405W        W77269  10.427   0.054  22.813
76406W        W77270   8.530  26.058  23.168
76407W        W77271   8.055  27.555  23.489
76408W        W77272   8.382   0.065  24.256
76409W        W77273  10.553  28.996  25.124
76410W        W77274   9.665  27.369  24.149
76411W        W77275   7.511  27.097  22.123
76412W        W77276  10.685  28.685  23.062
76413W        W77277  10.349  26.190  22.236
76414W        W77278   8.563  25.658  24.953
76415W        W77279  10.465  28.384  23.437
76416W        W77280  10.380  26.985  23.241
76417W        W77281   8.781  26.628  23.292
76418W        W77282   8.917  26.890  24.661
76419W        W77283   9.898  28.047  24.641
76420W        W77284   8.449  26.691  24.792
76421W        W77285   8.375  28.857  23.394
76422W        W77286   7.993  28.972  25.054
76423W        W77287   8.174  28.361  22.175
76424W        W77288  10.533  28.200  22.955
76425W        W77289   7.975  26.865  24.862
76426W        W77290   8.662  27.870  22.779
76427W        W77291   9.842  27.115  24.632
76428W        W77292   9.523  26.701  24.641
76429W        W77293   8.171  27.283  24.396
76430W        W77294  10.258  28.958  24.270
76431W        W77295  10.095  25.861  25.232
76432W        W77296   7.751  25.930  25.088
76433W        W77297   8.182  26.993  23.909
76434W        W77298   8.668  26.640  21.898
76435W        W77299   7.427  28.432  24.753
76436W        W77300   8.804  27.255  23.987
76437W        W77301   8.584  26.123  21.972
76438W        W77302   8.081  27.184  23.149
76439W        W77303   7.418   0.113  24.290
76440W        W77304  10.289  27.235  22.265
76441W        W77305  10.525  26.152  25.162
76442W        W77306  10.036  28.304  23.092
76443W        W77307   7.461  27.211  25.314
76444W        W77308  10.679  25.904  22.518
76445W        W77309   9.946  28.201  22.577
76446W        W77310   8.780  26.843  22.558
76447W        W77311  10.120  26.006  21.752
76448W        W77312  10.094  26.641  24.532
76449W        W77313   7.756  27.063  23.573
76450W        W77314   8.224  28.005  23.244
76451W        W77315   9.901  26.660  23.192
76452W        W77316   8.995  26.285  23.994
76453W        W77317  10.832  27.959  24.372
76454W        W77318  10.844  26.225  24.044
76455W        W77319   7.350  28.752  23.388
76456W        W77320   7.695  28.055  22.775
76457W        W77321   7.894  25.777  25.561
76458W        W77322   8.948  28.451  25.440
76459W        W77323  10.736  27.503  23.508
76460W        W77324  10.104  27.726  22.418
76461W        W77325   9.479   0.280  24.315
76462W        W77326  10.086  27.777  25.362
76463W        W77327   8.659  25.419  22.432
76464W        W77328   9.649  26.502  23.627
76465W        W77329   7.534  28.079  23.969
76466W        W77330   8.575  25.944  22.493
76467W        W77331   8.373  27.595  25.300
76468W        W77332   9.297  26.523  23.220
76469W        W77333   9.629  27.875  24.238
76470W        W77334   7.923  28.603  24.690
76471W        W77335   8.445  28.525  25.417
76472W        W77336   8.121  26.013  22.253
76473W        W77337   9.924  26.423  22.482
76474W        W77338   9.720  28.496  24.838
76475W        W77339   8.471  27.237  23.560
76476W        W77340   7.887  28.906  24.258
76477W        W77341  10.752  28.844  21.897
76478W        W77342   7.637  27.647  25.101
76479W        W77343   9.646  27.795  23.733
76480W        W77344   8.024  27.664  22.929
76481W        W77345   8.411  28.572  24.403
76482W        W77346   8.938  26.182  23.492
76483W        W77347   7.291  27.918  22.491
76484W        W77348   9.105  26.766  22.140
76485W        W77349   7.604  27.416  23.215
76486W        W77350   8.876  26.065  24.851
76487W        W77351  10.594  25.849  21.930
76488W        W77352  10.582  27.528  25.243
76489W        W77353   9.388  28.818  25.348
76490W        W77354  10.805  27.832  24.873
76491W        W77355  10.327  28.578  25.358
76492W        W77356   8.071   0.068  23.787
76493W        W77357  10.864  27.841  23.133
76494W        W77358   9.482  26.972  23.392
76495W        W77359   8.901  25.696  23.272
76496W        W77360   8.436  28.436  23.080
76497W        W77361   8.699  26.408  24.432
76498W        W77362   8.553  25.803  23.633
76499W        W77363   7.517  28.690  22.213
76500W        W77364   9.248  27.863  23.172
76501W        W77365   8.383  28.639  24.921
76502W        W77366   7.584  27.540  22.699
76503W        W77367   7.535  26.211  23.695
76504W        W77368   9.085  28.054  23.674
76505W        W77369   7.205  25.801  22.746
76506W        W77370   9.976  26.450  21.983
76507W        W77371  10.478  28.089  23.871
76508W        W77372   9.138  28.596  23.775
76509W        W77373   8.432  28.590  22.597
76510W        W77374   9.720  25.661  21.752
76511W        W77375   7.578  28.875  23.832
76512W        W77376   9.614  26.640  25.445
76513W        W77377   7.688  26.279  25.473
76514W        W77378   7.382  26.808  22.920
76515W        W77379   8.390  26.454  22.352
76516W        W77380   9.774  27.131  25.338
76517W        W77381   8.318  27.539  23.946
76518W        W77382   9.817  25.688  23.345
76519W        W77383   8.795  28.942  23.657
76520W        W77384  10.128  28.466  24.405
76521W        W77385   9.949  28.474  23.568
76522W        W77386   9.752  27.660  23.239
76523W        W77387   8.998  25.880  22.161
76524W        W77388  10.958  25.747  23.144
76525W        W77389   8.344  27.068  21.908
76526W        W77390  10.770  26.629  23.064
76527W        W77391   9.354  27.590  22.260
76528W        W77392  10.288  27.784  24.871
76529W        W77393   9.925  28.568  22.162
76530W        W77394   8.640  26.422  25.196
76531W        W77395   8.515  26.901  24.308
76532W        W77396  10.501  28.260  24.754
76533W        W77397   9.627  26.306  25.019
76534W        W77398   7.467  26.890  24.914
76535W        W77399   9.197  27.234  24.371
76536W        W77400   7.716  27.922  23.278
76537W        W77401   7.778  27.280  24.042
76538W        W77402  10.014  27.573  24.470
76539W        W77403   9.890  28.852  25.207
76540W        W77404   9.883  26.752  25.011
76541W        W77405  10.191  28.777  23.194
76542W        W77406   9.083  28.516  24.565
76543W        W77407   8.397  28.687  23.899
76544W        W77408  10.321  27.968  24.351
76545W        W77409   9.260  28.046  25.458
76546W        W77410   7.974  27.989  23.733
76547W        W77411  10.261  27.506  23.291
76548W        W77412   9.832  28.707  24.017
76549W        W77413   7.903  28.479  23.978
76550W        W77414   9.088  26.618  25.439
76551W        W77415   9.231  28.742  22.836
76552W        W77416   8.760  27.938  25.381
76553W        W77417   8.887  28.332  22.826
76554W        W77418   7.886  26.852  21.841
76555W        W77419   7.445   0.186  28.906
76556W        W77420   7.866  28.029  28.501
76557W        W77421  10.524  27.684  26.236
76558W        W77422  10.781  28.765  28.220
76559W        W77423   8.500  28.932  25.787
76560W        W77424   8.555  26.975  26.609
76561W        W77425   7.961  26.883  26.814
76562W        W77426   9.048  27.548  26.240
76563W        W77427   8.868  28.711  28.472
76564W        W77428   7.604  26.349  28.515
76565W        W77429   8.001  25.698  28.283
76566W        W77430  10.001  26.017  27.294
76567W        W77431   9.489  26.728  25.953
76568W        W77432  10.209  26.222  28.876
76569W        W77433   7.559  25.966  28.154
76570W        W77434   7.586  28.687   0.007
76571W        W77435   8.882  28.121  25.856
76572W        W77436   7.480  26.753  27.560
76573W        W77437   8.334  26.708  28.754
76574W        W77438  10.745  26.576  27.284
76575W        W77439  10.659  27.598  28.099
76576W        W77440   9.008  27.077  27.204
76577W        W77441   9.581  28.325  27.514
76578W        W77442   7.869  27.694  27.749
76579W        W77443   7.208  27.184  27.428
76580W        W77444   8.356  27.078  28.360
76581W        W77445  10.659  27.007  28.738
76582W        W77446   8.210  28.379  27.171
76583W        W77447   9.427  28.072  28.243
76584W        W77448   8.687  26.670  27.426
76585W        W77449   8.834  27.570  27.171
76586W        W77450   9.639  28.330   0.037
76587W        W77451   8.794  27.606  28.905
76588W        W77452   8.972  27.354  28.487
76589W        W77453   7.319  26.680   0.052
76590W        W77454  10.170  28.230  28.700
76591W        W77455   7.810  25.801  26.627
76592W        W77456   8.338  28.154  27.648
76593W        W77457  10.871  27.981  27.109
76594W        W77458  10.317  26.361  27.610
76595W        W77459  10.577  26.493  25.552
76596W        W77460  10.943  27.126  27.916
76597W        W77461   8.826  28.961  27.572
76598W        W77462  10.460  28.158  26.070
76599W        W77463   7.779   0.071  25.950
76600W        W77464   8.109  28.984  26.554
76601W        W77465   8.170  25.898  27.828
76602W        W77466  10.664  26.851  28.256
76603W        W77467   9.879  27.194  26.776
76604W        W77468   9.889  27.034  25.875
76605W        W77469   9.214  28.053  27.753
76606W        W77470   8.871  26.403  27.005
76607W        W77471   9.647  28.486  28.011
76608W        W77472  10.335  27.369  26.609
76609W        W77473   9.512  25.991  26.530
76610W        W77474   8.018  28.661  26.142
76611W        W77475   7.491  26.181  26.745
76612W        W77476   9.917  26.889  27.226
76613W        W77477   7.690  28.313  27.087
76614W        W77478   8.912  28.650  25.911
76615W        W77479  10.155  26.829  25.493
76616W        W77480   7.479  28.523  27.868
76617W        W77481   8.280  28.234  28.216
76618W        W77482   8.518  27.643  26.765
76619W        W77483   8.660  26.035  27.813
76620W        W77484  10.932  25.741  27.355
76621W        W77485   8.011  27.563  25.677
76622W        W77486   7.632  26.627  25.882
76623W        W77487   7.865  28.469  26.614
76624W        W77488   8.636  28.146  26.750
76625W        W77489  10.366  28.673  28.536
76626W        W77490   9.257  26.409  26.286
76627W        W77491  10.454  28.879  26.923
76628W        W77492  10.230  26.809  28.536
76629W        W77493  11.021  28.260  26.689
76630W        W77494   9.502  27.569  28.342
76631W        W77495   7.195  27.268  26.463
76632W        W77496   8.349  27.760  27.971
76633W        W77497   9.497  26.872  26.460
76634W        W77498   9.430  27.383  26.558
76635W        W77499   7.961  26.786  27.856
76636W        W77500   7.820  26.664  28.898
76637W        W77501   7.728  25.664  27.136
76638W        W77502   9.574  26.074  27.598
76639W        W77503   9.200  26.161  28.708
76640W        W77504   9.677  26.035  26.013
76641W        W77505  10.838  28.592  28.727
76642W        W77506   9.654  25.682  28.667
76643W        W77507  10.623  28.032  28.920
76644W        W77508  10.202  26.328  28.359
76645W        W77509   9.948  26.148  26.776
76646W        W77510  10.275  27.326  28.930
76647W        W77511   7.949  28.794  27.001
76648W        W77512   8.760  26.532  26.406
76649W        W77513   8.243  25.809  28.767
76650W        W77514  10.261  26.458  26.482
76651W        W77515  10.549  26.874  26.431
76652W        W77516   8.444   0.026  28.975
76653W        W77517   8.403  25.591  26.155
76654W        W77518  10.664  26.105  27.095
76655W        W77519  10.740  28.303  25.657
76656W        W77520   7.552  27.576  27.295
76657W        W77521   9.683  26.124  25.510
76658W        W77522  10.856  28.441  27.407
76659W        W77523  10.812  25.715  27.862
76660W        W77524   9.341  26.661  28.803
76661W        W77525   9.181  28.064  26.285
76662W        W77526   9.775  27.472   0.087
76663W        W77527   9.600  25.654  27.297
76664W        W77528   7.962  26.604  27.334
76665W        W77529   7.594  27.676  28.194
76666W        W77530   9.424  28.816  26.801
76667W        W77531  10.683  26.690  27.779
76668W        W77532   9.386  28.753  28.392
76669W        W77533  10.528  27.786  25.690
76670W        W77534   8.927  27.318  26.729
76671W        W77535  10.919  25.671  28.362
76672W        W77536   9.046  27.717  28.100
76673W        W77537   9.239  26.623  27.268
76674W        W77538  10.028  26.897  26.355
76675W        W77539  10.356  26.729  25.972
76676W        W77540  10.213  28.509  26.389
76677W        W77541   9.970  28.026  27.296
76678W        W77542   9.883  27.379  26.279
76679W        W77543   9.322  27.491  27.047
76680W        W77544  10.243  27.347  27.138
76681W        W77545   7.714  26.326  27.712
76682W        W77546  10.394  27.283  28.410
76683W        W77547  10.788  28.873  27.704
76684W        W77548   8.723  28.481  27.122
76685W        W77549   9.920  28.846  28.337
76686W        W77550   9.770  26.314  28.063
76687W        W77551   9.033  28.979  28.058
76688W        W77552  10.573  26.043  26.549
76689W        W77553  10.435  27.177  27.887
76690W        W77554   7.514  26.638  28.081
76691W        W77555  10.235  26.450  27.103
76692W        W77556  10.620  26.477  28.641
76693W        W77557   9.538  28.154  27.015
76694W        W77558   8.828  28.781  26.699
76695W        W77559   7.913  26.192  25.925
76696W        W77560   9.141  25.744  27.537
76697W        W77561   8.054  28.862  25.558
76698W        W77562   8.549  27.388  26.292
76699W        W77563   9.110  27.860  28.591
76700W        W77564   9.002  26.108  26.613
76701W        W77565  10.300  25.780  26.938
76702W        W77566  10.028   0.014  27.188
76703W        W77567   9.300  28.736  27.685
76704W        W77568   8.769  27.750  27.639
76705W        W77569  10.576  28.430  27.863
76706W        W77570   8.174  26.055  26.365
76707W        W77571   8.883  28.426  27.600
76708W        W77572   8.242  26.374  25.548
76709W        W77573   9.022  26.911  27.722
76710W        W77574   9.992  25.778  27.768
76711W        W77575   7.344  27.579  27.765
76712W        W77576   8.893  27.180  25.839
76713W        W77577   8.349  25.922  25.770
76714W        W77578   9.035  26.811  26.762
76715W        W77579  10.000  25.850  28.311
76716W        W77580   8.610  27.722  28.415
76717W        W77581   9.319  27.466  28.854
76718W        W77582   9.949  27.519  28.592
76719W        W77583   9.300  25.781   0.052
76720W        W77584   8.491  26.194  27.292
76721W        W77585   7.983  26.320  26.872
76722W        W77586   7.621  28.910  26.436
76723W        W77587   9.220  28.356  28.691
76724W        W77588   8.213  27.770  26.112
76725W        W77589   9.749  27.365  27.295
76726W        W77590   9.961  27.101  27.712
76727W        W77591   9.171  27.426  27.561
76728W        W77592   9.714  27.989  25.668
76729W        W77593   9.319  26.040  27.082
76730W        W77594  10.882  26.474  26.337
76731W        W77595   7.498  28.839  28.523
76732W        W77596   7.792  28.134  28.005
76733W        W77597   7.307  28.860  26.018
76734W        W77598   9.331  26.489  27.760
76735W        W77599   8.444  28.425  25.919
76736W        W77600  10.394  28.651  25.916
76737W        W77601   9.421  27.232  26.060
76738W        W77602   8.245  26.591  26.490
76739W        W77603   9.284  26.282  25.778
76740W        W77604   9.634  27.901  28.743
76741W        W77605  10.117  26.006  26.293
76742W        W77606   7.443  25.855  25.764
76743W        W77607   8.733  28.111  27.980
76744W        W77608   8.512  27.964  27.206
76745W        W77609   8.336  27.996  25.657
76746W        W77610   7.541  28.429  26.202
76747W        W77611   7.948  27.134  28.695
76748W        W77612   8.777  25.889  28.925
76749W        W77613   9.447  25.955  28.248
76750W        W77614   8.625  25.720  26.626
76751W        W77615   9.550  25.558  26.131
76752W        W77616   7.688  25.804  27.681
76753W        W77617   7.542  26.610  27.032
76754W        W77618  10.450  25.861  27.490
76755W        W77619   7.774  26.435  26.378
76756W        W77620  10.400  26.001  27.995
76757W        W77621  10.610  27.027  25.610
76758W        W77622   8.007  26.086  27.367
76759W        W77623   9.281  26.478  28.287
76760W        W77624   7.241  26.309  25.784
76761W        W77625   8.071  27.547  28.348
76762W        W77626   9.483  26.996  27.519
76763W        W77627   9.318   0.001  25.886
76764W        W77628   7.498  27.638  25.588
76765W        W77629   8.345  28.048  28.716
76766W        W77630   7.734  27.159  28.202
76767W        W77631   8.684  27.349  28.042
76768W        W77632  10.423  25.542  28.245
76769W        W77633  10.947  27.310  28.414
76770W        W77634  10.797  27.393  25.911
76771W        W77635   9.561  27.747  26.120
76772W        W77636  10.250   0.024  25.572
76773W        W77637   9.476  27.054   0.140
76774W        W77638   7.948  27.910   0.026
76775W        W77639  10.955  26.143  28.876
76776W        W77640  10.383  26.918  27.425
76777W        W77641   8.949  28.864  28.947
76778W        W77642   8.820  25.712  25.816
76779W        W77643  10.188  28.192  25.642
76780W        W77644   8.105  26.275  28.620
76781W        W77645   8.757  28.226  28.462
76782W        W77646  10.747  26.331  28.169
76783W        W77647  10.032   0.046  26.044
76784W        W77648  10.097  27.619  27.579
76785W        W77649   8.407  26.015  28.270
76786W        W77650   8.626  27.120  28.826
76787W        W77651   8.275  28.238  26.360
76788W        W77652  10.084  27.826  26.457
76789W        W77653   7.976  26.274  28.132
76790W        W77654   9.117  28.350  26.748
76791W        W77655  10.825  27.003  26.886
76792W        W77656   9.156  25.654  28.562
76793W        W77657  10.082  28.356  27.678
76794W        W77658  10.385  28.685  27.413
76795W        W77659   9.379  28.464  25.766
76796W        W77660   7.508  28.168  28.869
76797W        W77661   8.293  26.406  27.726
76798W        W77662   8.214  25.851  26.961
76799W        W77663   9.838  26.593  27.639
76800W        W77664   8.664  27.640  25.830
76801W        W77665  10.590  27.616  27.421
76802W        W77666   8.003  28.425  28.818
76803W        W77667  10.402   0.019  26.415
76804W        W77668   8.498  26.209  26.731
76805W        W77669   8.021  27.454  27.064
76806W        W77670   8.419   0.078  27.885
76807W        W77671  10.585   0.040  28.795
76808W        W77672   9.626  27.471  27.824
76809W        W77673   7.688  27.151  25.769
76810W        W77674  10.684  28.611  26.542
76811W        W77675  10.519  26.249  26.050
76812W        W77676   8.656  25.632  28.502
76813W        W77677  10.525  28.372  27.003
76814W        W77678  10.310  26.907  26.878
76815W        W77679   8.391  26.651  27.003
76816W        W77680   8.861  26.892  28.262
76817W        W77681   9.930  27.959  28.326
76818W        W77682   8.414  26.542  28.246
76819W        W77683   8.509  28.949  27.104
76820W        W77684   7.968  28.932  28.719
76821W        W77685   7.953  28.192  25.934
76822W        W77686  10.530  28.100  26.570
76823W        W77687   7.952  26.724  28.382
76824W        W77688  10.866  26.889  26.029
76825W        W77689   8.676  27.893  26.304
76826W        W77690   9.425  27.076  28.497
76827W        W77691   9.565  26.858  28.009
76828W        W77692   8.169  27.280  27.909
76829W        W77693  10.267  28.853  27.911
76830W        W77694  10.141  25.705  28.836
76831W        W77695   7.698  25.849  28.665
76832W        W77696   8.165  27.063  27.439
76833W        W77697   8.613  26.734  25.623
76834W        W77698   7.444  28.336  28.373
76835W        W77699   8.665  27.235  27.545
76836W        W77700   8.771  26.252  25.740
76837W        W77701   8.077  27.083  26.320
76838W        W77702   7.534   0.020  28.042
76839W        W77703  10.345  27.227  26.089
76840W        W77704  10.528  25.960  28.550
76841W        W77705  10.052  28.211  26.798
76842W        W77706   7.465  27.188  28.936
76843W        W77707  10.565  25.736  26.050
76844W        W77708   9.921  28.197  26.094
76845W        W77709   9.006  27.032  26.312
76846W        W77710  10.148  26.026  25.759
76847W        W77711  10.185  26.722  28.013
76848W        W77712   7.673  27.077  27.191
76849W        W77713   8.136  28.024  26.809
76850W        W77714   9.864  26.664  26.777
76851W        W77715   8.987  26.225  27.471
76852W        W77716  10.904  28.039  27.990
76853W        W77717  10.841  26.195  27.653
76854W        W77718   7.428  28.725  26.909
76855W        W77719   7.807  28.001  26.392
76856W        W77720   7.854  25.672   0.149
76857W        W77721   9.145  28.443   0.205
76858W        W77722  10.748  27.499  26.941
76859W        W77723  10.087  27.727  25.938
76860W        W77724   9.564   0.032  28.010
76861W        W77725  10.133  27.830   0.015
76862W        W77726   8.906  25.489  26.269
76863W        W77727   9.695  26.405  27.186
76864W        W77728   7.509  28.040  27.551
76865W        W77729   8.676  26.035  26.213
76866W        W77730   8.285  27.533  28.807
76867W        W77731   9.393  26.449  26.775
76868W        W77732   9.780  27.969  27.838
76869W        W77733   7.883  28.579  28.296
76870W        W77734   8.525  28.526  28.861
76871W        W77735   8.382  26.418  26.032
76872W        W77736   9.766  26.426  26.336
76873W        W77737   9.720  28.395  28.527
76874W        W77738   8.491  27.198  27.060
76875W        W77739   7.965  28.815  27.842
76876W        W77740  10.749  28.819  25.578
76877W        W77741   7.669  27.593  28.703
76878W        W77742   9.512  27.807  27.412
76879W        W77743   8.055  27.563  26.559
76880W        W77744   8.629  28.621  28.014
76881W        W77745   8.825  25.884  27.066
76882W        W77746   7.484  27.969  25.975
76883W        W77747   8.982  26.675  25.953
76884W        W77748   7.629  27.315  26.731
76885W        W77749   8.933  26.031  28.257
76886W        W77750  10.662  25.964  25.611
76887W        W77751  10.749  27.509  28.845
76888W        W77752   9.450  28.793  28.904
76889W        W77753  10.919  27.862  28.498
76890W        W77754  10.434  28.512   0.043
76891W        W77755   8.091   0.058  27.411
76892W        W77756  10.931  27.776  26.543
76893W        W77757   9.469  26.983  26.979
76894W        W77758   9.148  25.642  26.736
76895W        W77759   8.362  28.581  26.735
76896W        W77760   8.840  26.484  27.942
76897W        W77761   8.629  25.661  27.483
76898W        W77762   7.668  28.569  25.723
76899W        W77763   9.040  27.819  26.733
76900W        W77764   8.350  28.733  28.431
76901W        W77765   7.742  27.527  26.146
76902W        W77766   7.517  26.145  27.268
76903W        W77767   9.047  28.053  27.232
76904W        W77768   7.508  26.019  26.247
76905W        W77769   9.912  27.121  28.262
76906W        W77770   9.925  26.481  25.839
76907W        W77771  10.466  28.109  27.450
76908W        W77772   9.232  28.557  27.211
76909W        W77773   8.497  28.795  26.281
76910W        W77774   9.798  25.642  25.645
76911W        W77775   7.634  28.810  27.414
76912W        W77776   9.819  26.565  28.979
76913W        W77777   7.818  26.171   0.044
76914W        W77778   7.485  26.833  26.551
76915W        W77779   8.527  26.907  26.100
76916W        W77780   9.857  27.048  28.794
76917W        W77781   8.300  27.578  27.480
76918W        W77782   9.893  25.635  26.590
76919W        W77783   9.039   0.033  27.102
76920W        W77784  10.135  28.403  28.180
76921W        W77785   9.916  28.526  27.176
76922W        W77786   9.831  27.702  26.908
76923W        W77787   9.173  25.916  26.139
76924W        W77788  10.857  25.688  26.825
76925W        W77789   8.411  27.212  25.639
76926W        W77790  10.659  26.521  26.791
76927W        W77791   9.194  27.612  25.741
76928W        W77792  10.392  27.786  28.517
76929W        W77793   9.908  28.643  25.723
76930W        W77794   8.662  26.288  28.622
76931W        W77795   8.491  26.878  27.868
76932W        W77796  10.601  28.249  28.370
76933W        W77797   9.734  26.193  28.601
76934W        W77798   7.478  26.849  28.559
76935W        W77799   9.218  27.238  28.049
76936W        W77800   7.667  27.821  26.860
76937W        W77801   7.708  27.213  27.677
76938W        W77802  10.099  27.547  28.079
76939W        W77803   9.965  28.729  28.851
76940W        W77804   9.749  26.668  28.450
76941W        W77805   9.969  28.858  26.694
76942W        W77806   9.112  28.448  28.087
76943W        W77807   8.398  28.665  27.549
76944W        W77808  10.337  27.980  27.954
76945W        W77809   9.262  27.943   0.090
76946W        W77810   7.968  27.930  27.298
76947W        W77811  10.357  27.837  26.989
76948W        W77812   9.828  28.784  27.624
76949W        W77813   7.889  28.390  27.565
76950W        W77814   8.834  26.632  28.963
76951W        W77815   9.194  28.733  26.335
76952W        W77816   8.813  28.120  28.954
76953W        W77817   8.788  28.392  26.334
76954W        W77818   8.108  26.815  25.789
76955W        W77819  11.064   3.584   3.416
76956W        W77820  11.512   2.503   2.967
76957W        W77821  14.119   2.226   0.730
76958W        W77822  14.312   3.333   2.737
76959W        W77823  12.336   3.335   0.256
76960W        W77824  12.114   1.598   1.107
76961W        W77825  11.782   1.537   1.530
76962W        W77826  12.754   2.117   0.795
76963W        W77827  12.511   3.306   3.154
76964W        W77828  11.058   0.795   2.994
76965W        W77829  11.724   0.036   2.821
76966W        W77830  13.493   0.501   1.704
76967W        W77831  13.133   1.282   0.373
76968W        W77832  13.831   0.769   3.419
76969W        W77833  11.197   0.562   2.556
76970W        W77834  11.266   3.132   3.574
76971W        W77835  12.647   2.436   0.353
76972W        W77836  11.219   1.271   2.110
76973W        W77837  12.030   1.294   3.386
76974W        W77838  14.443   0.899   1.759
76975W        W77839  14.235   2.094   2.566
76976W        W77840  12.620   1.617   1.645
76977W        W77841  13.177   2.841   2.025
76978W        W77842  11.542   2.235   2.214
76979W        W77843  10.892   1.631   1.993
76980W        W77844  12.187   1.788   3.165
76981W        W77845  14.305   1.511   3.221
76982W        W77846  11.785   2.889   1.653
76983W        W77847  13.017   2.654   2.771
76984W        W77848  12.560   1.334   2.083
76985W        W77849  12.422   2.070   1.747
76986W        W77850  13.279   2.959   3.478
76987W        W77851  12.562   2.022   3.449
76988W        W77852  12.679   1.881   2.972
76989W        W77853  11.046   1.216   3.607
76990W        W77854  13.720   2.698   3.255
76991W        W77855  11.472   0.406   1.017
76992W        W77856  11.925   2.709   2.241
76993W        W77857  14.292   2.441   1.570
76994W        W77858  14.075   0.745   2.088
76995W        W77859  14.198   0.897   0.152
76996W        W77860  14.660   1.542   2.447
76997W        W77861  12.708   3.218   2.228
76998W        W77862  14.271   2.736   0.758
76999W        W77863  11.618   3.599   0.561
77000W        W77864  11.804   3.473   1.033
77001W        W77865  11.677   0.425   2.412
77002W        W77866  14.225   1.341   2.698
77003W        W77867  13.512   1.705   1.252
77004W        W77868  13.509   1.623   0.262
77005W        W77869  12.797   2.669   2.311
77006W        W77870  12.724   1.112   1.630
77007W        W77871  13.158   3.051   2.496
77008W        W77872  14.140   1.834   1.118
77009W        W77873  12.864   0.492   1.055
77010W        W77874  11.594   3.101   0.709
77011W        W77875  11.063   0.668   1.259
77012W        W77876  13.537   1.353   1.652
77013W        W77877  11.269   2.874   1.659
77014W        W77878  12.562   2.941   0.512
77015W        W77879  13.868   1.313   0.032
77016W        W77880  11.089   3.026   2.362
77017W        W77881  11.886   2.788   2.769
77018W        W77882  11.997   2.013   1.434
77019W        W77883  12.143   0.646   2.303
77020W        W77884  14.492   0.311   1.809
77021W        W77885  11.647   1.893   0.140
77022W        W77886  11.460   1.037   0.367
77023W        W77887  11.464   2.899   1.186
77024W        W77888  12.363   2.436   1.388
77025W        W77889  13.883   3.226   3.027
77026W        W77890  12.698   1.068   0.645
77027W        W77891  14.167   3.441   1.556
77028W        W77892  13.838   1.329   3.064
77029W        W77893  14.510   2.773   1.223
77030W        W77894  13.144   2.169   2.803
77031W        W77895  11.071   1.668   1.099
77032W        W77896  11.901   2.320   2.575
77033W        W77897  13.049   1.424   0.877
77034W        W77898  13.034   1.872   1.144
77035W        W77899  11.483   1.368   2.547
77036W        W77900  11.491   1.278   3.302
77037W        W77901  11.311   0.263   1.496
77038W        W77902  13.130   0.618   2.046
77039W        W77903  12.840   0.643   3.400
77040W        W77904  13.329   0.463   0.556
77041W        W77905  14.409   3.184   3.214
77042W        W77906  13.238   0.297   3.268
77043W        W77907  14.233   2.587   3.363
77044W        W77908  13.768   0.814   2.899
77045W        W77909  13.349   0.668   1.170
77046W        W77910  13.923   1.752   3.471
77047W        W77911  11.524   3.318   1.493
77048W        W77912  12.246   1.116   0.920
77049W        W77913  11.952   0.403   3.328
77050W        W77914  13.842   1.002   0.953
77051W        W77915  14.286   1.359   0.956
77052W        W77916  12.071   3.460   3.404
77053W        W77917  11.963   0.316   0.743
77054W        W77918  14.077   0.543   1.601
77055W        W77919  14.511   2.823   0.271
77056W        W77920  11.168   2.082   1.817
77057W        W77921  13.352   0.587   0.069
77058W        W77922  14.417   2.946   1.730
77059W        W77923  14.267   0.293   2.465
77060W        W77924  12.981   1.468   3.084
77061W        W77925  12.828   2.622   0.816
77062W        W77926  13.456   1.945   3.664
77063W        W77927  12.972   0.182   1.849
77064W        W77928  11.592   1.102   1.758
77065W        W77929  11.308   2.127   2.670
77066W        W77930  13.102   3.219   1.398
77067W        W77931  14.313   1.195   2.193
77068W        W77932  13.004   3.345   2.910
77069W        W77933  14.232   2.106   0.255
77070W        W77934  12.505   1.940   1.236
77071W        W77935  14.567   0.248   2.910
77072W        W77936  12.675   2.239   2.604
77073W        W77937  13.022   1.107   2.079
77074W        W77938  13.544   1.360   0.711
77075W        W77939  14.010   1.223   0.520
77076W        W77940  13.841   2.993   0.935
77077W        W77941  13.747   2.546   1.667
77078W        W77942  13.371   1.847   0.727
77079W        W77943  12.963   2.009   1.650
77080W        W77944  14.047   1.680   1.750
77081W        W77945  11.478   0.878   2.261
77082W        W77946  14.006   1.824   2.961
77083W        W77947  14.392   3.360   2.055
77084W        W77948  12.295   2.927   1.555
77085W        W77949  13.508   3.429   2.688
77086W        W77950  13.332   0.860   2.473
77087W        W77951  12.573   3.519   2.648
77088W        W77952  14.172   0.478   1.101
77089W        W77953  14.166   1.680   2.286
77090W        W77954  11.071   1.074   2.565
77091W        W77955  13.726   0.889   1.452
77092W        W77956  14.245   1.014   3.130
77093W        W77957  13.149   2.687   1.533
77094W        W77958  12.403   3.234   1.120
77095W        W77959  11.492   0.550   0.509
77096W        W77960  12.570   0.302   2.191
77097W        W77961  11.820   3.247   0.219
77098W        W77962  11.923   1.784   0.658
77099W        W77963  12.730   2.387   3.102
77100W        W77964  12.456   0.808   1.292
77101W        W77965  13.713   0.315   1.284
77102W        W77966  13.647   3.535   1.773
77103W        W77967  13.125   3.360   1.906
77104W        W77968  12.417   2.344   2.176
77105W        W77969  14.224   2.976   2.379
77106W        W77970  11.967   0.682   1.096
77107W        W77971  12.387   2.836   2.058
77108W        W77972  11.910   0.911   0.064
77109W        W77973  12.896   1.225   2.601
77110W        W77974  13.483   0.232   2.148
77111W        W77975  10.947   2.098   2.279
77112W        W77976  12.633   1.950   0.111
77113W        W77977  11.952   0.448   0.255
77114W        W77978  12.618   1.416   1.163
77115W        W77979  13.402   0.426   2.783
77116W        W77980  12.224   2.317   3.005
77117W        W77981  13.071   2.001   3.299
77118W        W77982  13.559   2.086   3.135
77119W        W77983  12.977   0.286   3.717
77120W        W77984  12.098   1.105   2.017
77121W        W77985  11.550   0.751   1.388
77122W        W77986  11.291   3.364   1.034
77123W        W77987  12.850   2.903   3.188
77124W        W77988  11.800   2.251   0.483
77125W        W77989  13.490   1.856   1.774
77126W        W77990  13.733   1.474   2.098
77127W        W77991  12.910   2.155   2.149
77128W        W77992  13.498   2.540   0.226
77129W        W77993  12.865   0.602   1.565
77130W        W77994  14.627   0.935   0.961
77131W        W77995  11.218   3.375   2.969
77132W        W77996  11.450   2.653   2.485
77133W        W77997  11.094   3.598   0.617
77134W        W77998  12.817   0.715   2.445
77135W        W77999  12.185   2.588   0.520
77136W        W78000  14.131   3.211   0.577
77137W        W78001  12.931   1.746   0.483
77138W        W78002  11.808   1.157   1.204
77139W        W78003  12.884   0.874   0.160
77140W        W78004  13.232   2.503   3.205
77141W        W78005  13.751   0.519   0.816
77142W        W78006  11.103   0.199   0.393
77143W        W78007  12.338   2.630   2.584
77144W        W78008  12.059   2.448   1.808
77145W        W78009  12.179   2.305   0.100
77146W        W78010  11.094   3.075   0.588
77147W        W78011  11.690   1.736   3.381
77148W        W78012  12.395   0.432   3.613
77149W        W78013  12.908   0.510   2.908
77150W        W78014  12.248   0.231   1.175
77151W        W78015  13.142   0.082   0.842
77152W        W78016  11.263   0.352   2.089
77153W        W78017  11.248   1.184   1.279
77154W        W78018  13.989   0.234   2.005
77155W        W78019  11.480   0.905   0.888
77156W        W78020  13.777   0.541   2.442
77157W        W78021  14.277   1.586   0.258
77158W        W78022  11.699   0.591   1.906
77159W        W78023  12.706   1.012   3.040
77160W        W78024  11.024   0.727   0.344
77161W        W78025  11.778   2.055   2.987
77162W        W78026  13.008   1.630   2.006
77163W        W78027  12.872   3.277   0.270
77164W        W78028  11.122   1.991   0.175
77165W        W78029  11.896   2.654   3.287
77166W        W78030  11.430   1.687   2.941
77167W        W78031  12.245   1.930   2.659
77168W        W78032  13.888   0.212   2.827
77169W        W78033  14.546   1.824   2.878
77170W        W78034  14.451   1.825   0.680
77171W        W78035  13.245   2.326   0.914
77172W        W78036  13.858   3.474   0.202
77173W        W78037  13.054   1.597   3.631
77174W        W78038  11.520   2.404   3.660
77175W        W78039  14.634   0.606   3.392
77176W        W78040  14.009   1.164   1.775
77177W        W78041  12.517   3.488   3.654
77178W        W78042  12.368   0.207   0.435
77179W        W78043  14.033   2.592   0.321
77180W        W78044  11.741   0.846   3.242
77181W        W78045  12.329   2.835   3.064
77182W        W78046  14.227   0.799   2.615
77183W        W78047  13.671   3.468   0.704
77184W        W78048  13.779   2.203   2.096
77185W        W78049  11.947   0.554   2.828
77186W        W78050  12.547   1.468   3.366
77187W        W78051  11.793   2.642   0.837
77188W        W78052  13.710   2.110   1.003
77189W        W78053  11.518   0.899   2.789
77190W        W78054  12.729   2.850   1.279
77191W        W78055  14.417   1.393   1.497
77192W        W78056  12.701   0.165   3.250
77193W        W78057  13.655   2.723   2.142
77194W        W78058  13.960   3.108   1.933
77195W        W78059  13.055   2.774   0.362
77196W        W78060  11.206   2.666   3.346
77197W        W78061  11.903   1.065   2.504
77198W        W78062  11.850   0.349   1.477
77199W        W78063  13.572   0.943   1.999
77200W        W78064  12.327   2.070   0.526
77201W        W78065  14.289   2.107   2.000
77202W        W78066  11.548   3.007   3.141
77203W        W78067  14.037   3.642   1.042
77204W        W78068  12.027   0.824   1.590
77205W        W78069  11.669   1.919   1.836
77206W        W78070  12.296   3.584   2.204
77207W        W78071  14.133   3.624   3.312
77208W        W78072  13.357   1.917   2.281
77209W        W78073  11.246   1.491   0.243
77210W        W78074  14.287   3.206   1.096
77211W        W78075  14.206   0.757   0.655
77212W        W78076  12.219   0.093   3.023
77213W        W78077  13.996   2.935   1.435
77214W        W78078  13.915   1.385   1.308
77215W        W78079  12.244   1.273   1.496
77216W        W78080  12.447   1.445   2.833
77217W        W78081  13.545   2.536   2.801
77218W        W78082  12.170   1.016   2.967
77219W        W78083  12.032   3.377   1.498
77220W        W78084  11.575   3.497   3.323
77221W        W78085  11.720   2.758   0.334
77222W        W78086  14.021   2.503   1.150
77223W        W78087  11.898   1.459   2.881
77224W        W78088  14.525   1.201   0.538
77225W        W78089  12.125   2.236   0.961
77226W        W78090  13.345   1.718   2.808
77227W        W78091  13.320   1.402   2.379
77228W        W78092  11.737   1.818   2.527
77229W        W78093  13.956   3.435   2.365
77230W        W78094  13.754   0.268   3.348
77231W        W78095  11.443   0.424   3.032
77232W        W78096  11.724   1.461   2.097
77233W        W78097  12.210   1.212   0.402
77234W        W78098  11.138   2.860   2.851
77235W        W78099  12.517   1.831   2.205
77236W        W78100  12.391   0.735   0.335
77237W        W78101  11.589   1.616   1.048
77238W        W78102  11.192   3.543   2.477
77239W        W78103  13.927   1.721   0.655
77240W        W78104  14.182   0.520   3.123
77241W        W78105  13.540   2.675   1.207
77242W        W78106  11.161   1.671   3.409
77243W        W78107  14.142   0.226   0.632
77244W        W78108  13.697   2.543   0.716
77245W        W78109  12.458   1.582   0.687
77246W        W78110  13.832   0.530   0.299
77247W        W78111  13.823   1.076   2.437
77248W        W78112  11.282   1.547   1.672
77249W        W78113  11.835   2.497   1.320
77250W        W78114  13.412   1.192   1.175
77251W        W78115  12.556   0.799   2.000
77252W        W78116  14.489   2.525   2.432
77253W        W78117  14.575   0.631   2.209
77254W        W78118  10.996   3.267   1.457
77255W        W78119  11.271   2.629   0.794
77256W        W78120  11.497   0.449   3.565
77257W        W78121  12.276   3.007   3.582
77258W        W78122  14.440   1.944   1.528
77259W        W78123  13.716   2.113   0.404
77260W        W78124  13.070   3.553   2.413
77261W        W78125  13.874   2.258   3.510
77262W        W78126  12.624   0.069   0.865
77263W        W78127  13.224   0.953   1.609
77264W        W78128  11.158   2.569   2.065
77265W        W78129  12.400   0.595   0.824
77266W        W78130  11.961   2.171   3.459
77267W        W78131  12.927   0.998   1.169
77268W        W78132  13.282   2.443   2.379
77269W        W78133  11.528   3.141   2.636
77270W        W78134  11.767   3.047   3.625
77271W        W78135  11.932   0.821   0.601
77272W        W78136  13.214   0.932   0.742
77273W        W78137  13.379   2.996   2.974
77274W        W78138  12.158   1.627   1.870
77275W        W78139  11.810   3.454   2.364
77276W        W78140  14.444   3.338   0.203
77277W        W78141  11.326   2.125   3.252
77278W        W78142  13.314   2.344   1.885
77279W        W78143  11.607   2.166   0.962
77280W        W78144  12.206   3.127   2.478
77281W        W78145  12.376   0.436   1.649
77282W        W78146  10.970   2.427   0.412
77283W        W78147  12.654   1.406   0.216
77284W        W78148  11.425   1.956   1.390
77285W        W78149  12.409   0.575   3.103
77286W        W78150  14.319   0.384   0.182
77287W        W78151  14.350   2.039   3.322
77288W        W78152  12.982   3.440   3.419
77289W        W78153  14.505   2.373   2.927
77290W        W78154  14.006   3.050   3.497
77291W        W78155  11.698   3.612   1.890
77292W        W78156  14.498   2.226   1.090
77293W        W78157  13.072   1.462   1.458
77294W        W78158  12.699   0.124   1.402
77295W        W78159  11.950   2.998   1.168
77296W        W78160  12.418   1.046   2.491
77297W        W78161  12.084   0.236   2.002
77298W        W78162  11.305   3.328   0.195
77299W        W78163  12.858   2.344   1.269
77300W        W78164  11.972   3.250   2.946
77301W        W78165  11.405   1.841   0.606
77302W        W78166  11.206   0.740   1.755
77303W        W78167  12.734   2.493   1.781
77304W        W78168  10.967   0.440   0.806
77305W        W78169  13.768   1.560   2.597
77306W        W78170  13.578   0.975   0.359
77307W        W78171  14.143   2.611   2.024
77308W        W78172  12.776   3.006   1.761
77309W        W78173  12.107   3.134   0.681
77310W        W78174  13.340   0.060   0.227
77311W        W78175  11.216   3.368   1.928
77312W        W78176  13.479   1.130   3.507
77313W        W78177  11.487   0.937   3.706
77314W        W78178  11.249   1.352   0.738
77315W        W78179  11.780   1.297   0.696
77316W        W78180  13.454   1.593   3.291
77317W        W78181  12.033   2.023   2.168
77318W        W78182  13.203   0.210   1.368
77319W        W78183  12.543   3.427   1.581
77320W        W78184  13.744   2.979   2.591
77321W        W78185  13.518   3.026   1.678
77322W        W78186  13.380   2.208   1.396
77323W        W78187  12.814   0.483   0.535
77324W        W78188  14.526   0.104   1.217
77325W        W78189  12.193   1.692   0.207
77326W        W78190  14.227   0.955   1.297
77327W        W78191  13.127   2.226   0.423
77328W        W78192  13.992   2.331   2.988
77329W        W78193  13.691   2.998   0.416
77330W        W78194  12.451   0.972   3.509
77331W        W78195  12.152   1.502   2.388
77332W        W78196  14.169   2.814   2.892
77333W        W78197  13.276   0.804   3.152
77334W        W78198  11.072   1.330   3.015
77335W        W78199  12.914   1.752   2.524
77336W        W78200  11.276   2.434   1.291
77337W        W78201  11.336   1.768   2.209
77338W        W78202  13.700   2.082   2.620
77339W        W78203  13.473   3.472   3.230
77340W        W78204  13.387   1.208   2.857
77341W        W78205  13.695   3.346   1.292
77342W        W78206  12.663   3.014   2.706
77343W        W78207  12.034   3.196   1.977
77344W        W78208  13.967   2.522   2.500
77345W        W78209  12.881   2.525   3.583
77346W        W78210  11.542   2.428   1.736
77347W        W78211  13.893   2.092   1.494
77348W        W78212  13.523   3.223   2.186
77349W        W78213  11.545   3.023   2.106
77350W        W78214  12.960   1.121   3.499
77351W        W78215  12.929   3.132   0.878
77352W        W78216  12.376   2.511   3.468
77353W        W78217  12.337   2.735   0.972
77354W        W78218  11.774   1.401   0.176
77355W        W78219  10.992   3.813   6.956
77356W        W78220  11.440   2.607   6.521
77357W        W78221  14.169   2.199   4.340
77358W        W78222  14.337   3.411   6.386
77359W        W78223  12.059   3.369   3.912
77360W        W78224  12.154   1.527   4.760
77361W        W78225  11.848   1.520   5.202
77362W        W78226  12.602   2.009   4.223
77363W        W78227  12.596   3.398   6.765
77364W        W78228  10.993   0.827   6.635
77365W        W78229  11.655   0.108   6.502
77366W        W78230  13.545   0.521   5.365
77367W        W78231  13.237   1.221   3.969
77368W        W78232  13.716   0.912   6.978
77369W        W78233  11.178   0.547   6.234
77370W        W78234  11.232   3.344   7.100
77371W        W78235  12.462   2.677   3.972
77372W        W78236  11.139   1.226   5.685
77373W        W78237  12.150   1.405   6.865
77374W        W78238  14.522   1.099   5.323
77375W        W78239  14.093   2.028   6.142
77376W        W78240  12.627   1.603   5.215
77377W        W78241  13.149   2.858   5.680
77378W        W78242  11.497   2.174   5.826
77379W        W78243  10.857   1.639   5.526
77380W        W78244  12.153   1.768   6.455
77381W        W78245  14.190   1.571   6.803
77382W        W78246  11.768   2.937   5.315
77383W        W78247  13.000   2.682   6.461
77384W        W78248  12.526   1.234   5.646
77385W        W78249  12.468   2.054   5.495
77386W        W78250  13.317   2.939   7.142
77387W        W78251  12.521   2.156   7.203
77388W        W78252  12.592   1.983   6.681
77389W        W78253  10.852   1.158   7.000
77390W        W78254  13.749   2.832   6.805
77391W        W78255  11.477   0.325   4.738
77392W        W78256  11.927   2.698   5.775
77393W        W78257  14.451   2.526   5.227
77394W        W78258  13.943   0.868   5.571
77395W        W78259  14.275   0.841   3.668
77396W        W78260  14.620   1.569   6.041
77397W        W78261  12.771   3.232   5.880
77398W        W78262  14.433   2.808   4.242
77399W        W78263  11.373   3.559   4.338
77400W        W78264  11.741   3.494   4.734
77401W        W78265  11.655   0.396   6.056
77402W        W78266  14.137   1.501   6.230
77403W        W78267  13.399   1.643   4.677
77404W        W78268  13.663   1.492   3.833
77405W        W78269  12.764   2.719   5.994
77406W        W78270  12.786   1.063   5.250
77407W        W78271  13.174   3.054   6.156
77408W        W78272  14.298   1.845   4.672
77409W        W78273  12.875   0.459   4.709
77410W        W78274  11.622   3.112   4.417
77411W        W78275  11.110   0.649   4.891
77412W        W78276  13.579   1.474   5.152
77413W        W78277  11.235   2.961   5.338
77414W        W78278  12.504   3.199   4.107
77415W        W78279  13.999   1.243   3.545
77416W        W78280  11.005   3.013   5.830
77417W        W78281  11.833   3.006   6.191
77418W        W78282  12.115   1.970   5.116
77419W        W78283  12.099   0.614   5.888
77420W        W78284  14.524   0.276   5.535
77421W        W78285  11.653   1.926   3.861
77422W        W78286  11.414   1.156   4.173
77423W        W78287  11.476   2.879   4.879
77424W        W78288  12.221   2.455   4.865
77425W        W78289  13.883   3.304   6.605
77426W        W78290  12.765   0.882   4.396
77427W        W78291  14.235   3.514   5.202
77428W        W78292  13.628   1.303   6.418
77429W        W78293  14.735   2.894   5.023
77430W        W78294  13.088   2.182   6.498
77431W        W78295  10.926   1.894   4.698
77432W        W78296  11.816   2.415   6.190
77433W        W78297  13.076   1.291   4.482
77434W        W78298  12.830   1.744   4.657
77435W        W78299  11.430   1.347   6.114
77436W        W78300  11.384   1.271   6.797
77437W        W78301  11.315   0.292   5.244
77438W        W78302  13.047   0.538   5.881
77439W        W78303  12.854   0.707   6.947
77440W        W78304  13.321   0.398   4.115
77441W        W78305  14.551   3.227   6.835
77442W        W78306  13.168   0.289   6.846
77443W        W78307  14.177   2.596   6.955
77444W        W78308  13.753   0.756   6.479
77445W        W78309  13.440   0.608   4.829
77446W        W78310  13.823   1.804   7.092
77447W        W78311  11.505   3.379   5.180
77448W        W78312  12.265   1.042   4.491
77449W        W78313  11.831   0.459   6.947
77450W        W78314  13.931   0.975   4.514
77451W        W78315  14.374   1.377   4.477
77452W        W78316  12.205   3.546   7.052
77453W        W78317  11.869   0.230   4.379
77454W        W78318  14.291   0.635   5.231
77455W        W78319  14.468   2.881   3.717
77456W        W78320  11.138   2.070   5.400
77457W        W78321  13.381   0.622   3.638
77458W        W78322  14.541   2.927   5.541
77459W        W78323  14.286   0.306   6.028
77460W        W78324  13.006   1.705   6.812
77461W        W78325  12.661   2.405   4.554
77462W        W78326  13.371   1.954   7.317
77463W        W78327  13.196   0.015   5.425
77464W        W78328  11.575   1.129   5.403
77465W        W78329  11.308   2.157   6.287
77466W        W78330  13.239   3.208   5.087
77467W        W78331  14.294   1.250   5.769
77468W        W78332  13.032   3.467   6.486
77469W        W78333  14.217   2.018   3.841
77470W        W78334  12.358   1.984   4.661
77471W        W78335  14.431   0.324   6.522
77472W        W78336  12.637   2.318   6.286
77473W        W78337  12.983   1.021   5.726
77474W        W78338  13.611   1.322   4.318
77475W        W78339  14.076   1.225   4.064
77476W        W78340  14.044   3.147   4.538
77477W        W78341  13.954   2.566   5.376
77478W        W78342  13.467   1.800   4.188
77479W        W78343  13.002   1.950   5.384
77480W        W78344  14.009   1.786   5.123
77481W        W78345  11.425   0.857   5.893
77482W        W78346  13.829   1.808   6.535
77483W        W78347  14.336   3.375   5.689
77484W        W78348  12.274   2.901   5.240
77485W        W78349  13.508   3.442   6.280
77486W        W78350  13.157   0.904   6.214
77487W        W78351  12.605   3.624   6.257
77488W        W78352  14.211   0.557   4.673
77489W        W78353  14.053   1.700   5.675
77490W        W78354  11.025   1.042   6.168
77491W        W78355  13.836   0.855   5.058
77492W        W78356  14.080   1.123   6.592
77493W        W78357  13.127   2.668   5.207
77494W        W78358  12.441   3.264   4.921
77495W        W78359  11.494   0.510   4.097
77496W        W78360  12.774   0.232   5.582
77497W        W78361  11.539   3.481   3.851
77498W        W78362  12.068   1.853   4.216
77499W        W78363  12.657   2.476   6.785
77500W        W78364  12.508   0.795   4.890
77501W        W78365  13.913   0.320   5.043
77502W        W78366  13.829   3.414   5.483
77503W        W78367  13.142   3.383   5.561
77504W        W78368  12.349   2.413   5.858
77505W        W78369  14.366   2.986   6.042
77506W        W78370  11.960   0.622   4.730
77507W        W78371  12.387   2.915   5.726
77508W        W78372  11.996   0.820   3.692
77509W        W78373  12.791   1.312   6.121
77510W        W78374  13.467   0.258   5.818
77511W        W78375  10.977   2.071   5.896
77512W        W78376  12.574   1.681   3.836
77513W        W78377  11.918   0.335   3.852
77514W        W78378  12.634   1.279   4.776
77515W        W78379  13.396   0.434   6.301
77516W        W78380  12.201   2.316   6.566
77517W        W78381  13.002   2.170   7.020
77518W        W78382  13.455   2.024   6.808
77519W        W78383  12.879   0.341   7.307
77520W        W78384  12.054   1.042   5.606
77521W        W78385  11.585   0.736   5.059
77522W        W78386  11.205   3.316   4.761
77523W        W78387  12.875   2.957   6.869
77524W        W78388  11.706   2.330   4.170
77525W        W78389  13.559   1.817   5.534
77526W        W78390  13.667   1.315   5.647
77527W        W78391  12.822   2.199   5.821
77528W        W78392  13.420   2.461   3.676
77529W        W78393  13.024   0.551   5.226
77530W        W78394  14.542   0.906   4.454
77531W        W78395  11.230   3.482   6.592
77532W        W78396  11.270   2.599   6.022
77533W        W78397  10.863   3.489   4.406
77534W        W78398  12.566   0.411   6.008
77535W        W78399  12.021   2.924   4.147
77536W        W78400  14.257   3.485   4.188
77537W        W78401  12.974   1.648   4.146
77538W        W78402  11.845   1.120   4.838
77539W        W78403  12.973   0.771   3.913
77540W        W78404  13.331   2.528   6.827
77541W        W78405  13.756   0.505   4.394
77542W        W78406  11.064   0.281   3.904
77543W        W78407  12.292   2.740   6.250
77544W        W78408  12.119   2.428   5.381
77545W        W78409  11.978   2.578   3.792
77546W        W78410  11.179   2.830   4.453
77547W        W78411  11.690   1.679   6.902
77548W        W78412  12.361   0.455   7.264
77549W        W78413  12.903   0.468   6.431
77550W        W78414  12.198   0.168   4.807
77551W        W78415  13.161   0.060   4.508
77552W        W78416  11.270   0.371   5.751
77553W        W78417  11.284   1.153   4.913
77554W        W78418  14.022   0.359   5.583
77555W        W78419  11.502   0.806   4.544
77556W        W78420  13.836   0.558   6.010
77557W        W78421  14.385   1.545   3.734
77558W        W78422  11.705   0.620   5.542
77559W        W78423  12.732   0.960   6.513
77560W        W78424  11.076   0.804   3.994
77561W        W78425  11.731   2.087   6.587
77562W        W78426  13.167   1.461   5.516
77563W        W78427  12.852   3.619   4.035
77564W        W78428  11.141   2.065   3.742
77565W        W78429  11.921   2.745   6.628
77566W        W78430  11.359   1.695   6.497
77567W        W78431  12.391   1.923   6.020
77568W        W78432  13.902   0.250   6.424
77569W        W78433  14.473   1.862   6.443
77570W        W78434  14.539   1.778   4.193
77571W        W78435  13.087   2.106   4.370
77572W        W78436  13.798   3.489   3.715
77573W        W78437  12.997   1.558   7.319
77574W        W78438  11.523   2.805   7.018
77575W        W78439  14.599   0.694   7.131
77576W        W78440  14.044   1.292   5.288
77577W        W78441  12.675   3.585   7.259
77578W        W78442  12.328   0.163   4.111
77579W        W78443  14.133   2.531   3.897
77580W        W78444  11.865   0.976   6.788
77581W        W78445  12.387   2.906   6.742
77582W        W78446  14.246   0.753   6.276
77583W        W78447  13.788   3.661   4.259
77584W        W78448  13.825   2.209   5.743
77585W        W78449  11.900   0.605   6.438
77586W        W78450  12.547   1.656   7.077
77587W        W78451  11.846   2.652   4.552
77588W        W78452  13.798   1.964   4.647
77589W        W78453  11.479   0.919   6.432
77590W        W78454  12.663   2.747   4.947
77591W        W78455  14.431   1.501   5.022
77592W        W78456  12.629   0.261   6.854
77593W        W78457  13.613   2.676   5.833
77594W        W78458  14.010   2.973   5.684
77595W        W78459  12.779   3.032   3.687
77596W        W78460  11.122   2.973   6.719
77597W        W78461  11.869   1.033   6.095
77598W        W78462  11.820   0.286   5.135
77599W        W78463  13.468   0.847   5.790
77600W        W78464  12.290   2.171   3.857
77601W        W78465  14.234   2.117   5.434
77602W        W78466  11.614   3.153   6.655
77603W        W78467  14.118   3.649   4.697
77604W        W78468  12.124   0.690   5.228
77605W        W78469  11.651   1.993   5.358
77606W        W78470  12.058   3.692   6.095
77607W        W78471  14.188   3.600   6.897
77608W        W78472  13.222   1.890   5.910
77609W        W78473  11.257   1.588   3.929
77610W        W78474  14.461   3.267   4.807
77611W        W78475  14.184   0.706   4.149
77612W        W78476  12.145   0.178   6.642
77613W        W78477  14.187   3.008   5.185
77614W        W78478  13.928   1.445   4.743
77615W        W78479  12.278   1.201   5.162
77616W        W78480  12.581   1.473   6.565
77617W        W78481  13.518   2.681   6.361
77618W        W78482  12.235   1.088   6.456
77619W        W78483  12.014   3.389   5.212
77620W        W78484  11.703   3.517   7.009
77621W        W78485  11.504   2.794   4.015
77622W        W78486  14.328   2.747   4.749
77623W        W78487  11.796   1.389   6.472
77624W        W78488  14.572   1.132   3.996
77625W        W78489  12.201   2.365   4.324
77626W        W78490  13.327   1.728   6.400
77627W        W78491  13.293   1.362   6.014
77628W        W78492  11.723   1.813   6.135
77629W        W78493  13.951   3.500   6.011
77630W        W78494  13.688   0.387   6.903
77631W        W78495  11.339   0.437   6.745
77632W        W78496  11.787   1.455   5.757
77633W        W78497  12.212   1.254   3.917
77634W        W78498  10.814   2.960   6.305
77635W        W78499  12.751   1.679   5.746
77636W        W78500  12.433   0.765   4.009
77637W        W78501  11.611   1.581   4.734
77638W        W78502  11.061   3.505   6.095
77639W        W78503  13.999   1.707   4.231
77640W        W78504  14.158   0.653   6.818
77641W        W78505  13.831   2.764   4.904
77642W        W78506  11.060   1.663   6.962
77643W        W78507  14.216   0.196   4.113
77644W        W78508  13.951   2.658   4.384
77645W        W78509  12.468   1.510   4.329
77646W        W78510  13.822   0.436   3.857
77647W        W78511  13.893   1.071   6.053
77648W        W78512  11.318   1.577   5.229
77649W        W78513  11.728   2.431   5.034
77650W        W78514  13.495   1.131   4.780
77651W        W78515  12.538   0.705   5.557
77652W        W78516  14.682   2.570   6.141
77653W        W78517  14.417   0.737   5.755
77654W        W78518  10.981   3.416   5.229
77655W        W78519  11.421   2.401   4.609
77656W        W78520  11.406   0.387   7.276
77657W        W78521  12.474   3.113   7.224
77658W        W78522  14.592   1.995   5.076
77659W        W78523  13.759   2.186   4.021
77660W        W78524  13.081   3.643   6.007
77661W        W78525  13.764   2.318   7.105
77662W        W78526  12.621   0.043   4.538
77663W        W78527  13.337   1.007   5.281
77664W        W78528  10.998   2.546   5.577
77665W        W78529  12.387   0.521   4.470
77666W        W78530  12.133   1.948   6.935
77667W        W78531  13.033   0.922   4.836
77668W        W78532  13.193   2.450   6.047
77669W        W78533  11.314   3.067   6.249
77670W        W78534  11.981   3.060   7.052
77671W        W78535  11.941   0.746   4.214
77672W        W78536  13.321   0.853   4.363
77673W        W78537  13.340   3.088   6.643
77674W        W78538  12.219   1.621   5.549
77675W        W78539  11.588   3.457   6.050
77676W        W78540  14.359   3.379   3.702
77677W        W78541  11.236   2.125   6.789
77678W        W78542  13.329   2.315   5.572
77679W        W78543  11.849   2.095   4.647
77680W        W78544  12.293   3.239   6.106
77681W        W78545  12.534   0.346   5.144
77682W        W78546  11.171   2.371   4.159
77683W        W78547  12.722   1.211   3.974
77684W        W78548  11.379   2.006   4.923
77685W        W78549  12.403   0.575   6.461
77686W        W78550  14.283   0.321   3.623
77687W        W78551  14.200   2.073   6.846
77688W        W78552  13.085   3.400   6.998
77689W        W78553  14.355   2.390   6.486
77690W        W78554  14.095   3.112   7.062
77691W        W78555  11.732   3.684   5.606
77692W        W78556  14.586   2.304   4.659
77693W        W78557  13.081   1.413   5.007
77694W        W78558  12.906   0.020   4.982
77695W        W78559  11.969   3.037   4.845
77696W        W78560  12.486   0.913   6.044
77697W        W78561  12.233   0.231   5.560
77698W        W78562  11.139   3.179   4.076
77699W        W78563  12.649   2.201   5.042
77700W        W78564  12.101   3.287   6.581
77701W        W78565  11.424   1.926   4.364
77702W        W78566  11.196   0.783   5.394
77703W        W78567  12.659   2.553   5.455
77704W        W78568  11.063   0.469   4.407
77705W        W78569  13.694   1.685   6.034
77706W        W78570  13.675   0.920   3.965
77707W        W78571  14.302   2.523   5.759
77708W        W78572  12.786   3.051   5.354
77709W        W78573  12.151   3.325   4.462
77710W        W78574  13.442   0.085   3.730
77711W        W78575  11.272   3.422   5.635
77712W        W78576  13.244   1.129   7.130
77713W        W78577  11.460   0.841   7.051
77714W        W78578  11.151   1.483   4.486
77715W        W78579  11.882   1.360   4.325
77716W        W78580  13.489   1.499   6.871
77717W        W78581  11.988   2.060   5.737
77718W        W78582  13.426   0.120   4.980
77719W        W78583  12.436   3.387   5.504
77720W        W78584  13.855   3.027   6.184
77721W        W78585  13.593   2.947   5.364
77722W        W78586  13.680   2.179   5.186
77723W        W78587  12.803   0.371   4.191
77724W        W78588  14.490   0.166   4.910
77725W        W78589  12.103   1.720   3.681
77726W        W78590  14.286   1.034   4.878
77727W        W78591  12.952   2.067   3.825
77728W        W78592  13.838   2.349   6.607
77729W        W78593  14.044   3.054   4.008
77730W        W78594  12.355   0.847   6.906
77731W        W78595  12.245   1.417   6.052
77732W        W78596  14.224   2.907   6.543
77733W        W78597  13.287   0.790   6.697
77734W        W78598  10.956   1.377   6.538
77735W        W78599  12.835   1.810   6.252
77736W        W78600  11.207   2.483   5.092
77737W        W78601  11.342   1.706   5.731
77738W        W78602  13.576   2.159   6.213
77739W        W78603  13.608   3.355   7.019
77740W        W78604  13.121   1.280   6.562
77741W        W78605  13.793   3.321   4.981
77742W        W78606  12.698   3.083   6.372
77743W        W78607  11.965   3.233   5.711
77744W        W78608  13.988   2.538   6.156
77745W        W78609  12.836   2.608   7.249
77746W        W78610  11.515   2.539   5.494
77747W        W78611  14.124   2.279   4.917
77748W        W78612  13.536   3.191   5.826
77749W        W78613  11.514   2.993   5.775
77750W        W78614  12.766   1.211   6.972
77751W        W78615  12.780   3.121   4.563
77752W        W78616  12.305   2.625   7.162
77753W        W78617  12.347   2.839   4.533
77754W        W78618  11.717   1.392   3.797
77755W        W78619  11.014   3.532  10.784
77756W        W78620  11.389   2.536  10.360
77757W        W78621  14.147   2.130   7.889
77758W        W78622  14.229   3.330   9.940
77759W        W78623  12.049   3.353   7.498
77760W        W78624  12.160   1.472   8.435
77761W        W78625  11.789   1.124   8.786
77762W        W78626  12.644   2.073   7.996
77763W        W78627  12.375   3.257  10.281
77764W        W78628  11.037   0.806  10.229
77765W        W78629  11.609   0.084  10.101
77766W        W78630  13.480   0.524   8.974
77767W        W78631  13.205   1.181   7.669
77768W        W78632  13.708   0.854  10.694
77769W        W78633  11.209   0.404   9.953
77770W        W78634  12.509   2.467   7.623
77771W        W78635  11.052   1.202   9.339
77772W        W78636  12.044   1.313  10.582
77773W        W78637  14.339   0.964   9.076
77774W        W78638  14.208   1.960   9.768
77775W        W78639  12.654   1.524   9.032
77776W        W78640  13.156   2.780   9.282
77777W        W78641  11.498   2.114   9.653
77778W        W78642  10.829   1.666   9.271
77779W        W78643  12.065   1.662  10.197
77780W        W78644  14.285   1.524  10.481
77781W        W78645  11.753   2.752   8.935
77782W        W78646  12.926   2.627  10.057
77783W        W78647  12.458   1.166   9.368
77784W        W78648  12.362   1.941   8.959
77785W        W78649  13.449   3.113  10.859
77786W        W78650  12.665   2.008  10.807
77787W        W78651  12.546   1.759  10.381
77788W        W78652  10.922   1.161  10.831
77789W        W78653  13.706   2.738  10.569
77790W        W78654  11.374   0.250   8.424
77791W        W78655  11.845   2.542   9.562
77792W        W78656  14.364   2.514   8.895
77793W        W78657  13.903   0.705   9.200
77794W        W78658  14.118   0.858   7.327
77795W        W78659  14.604   1.580   9.740
77796W        W78660  12.396   3.149   9.469
77797W        W78661  14.466   2.539   7.921
77798W        W78662  11.435   3.614   8.040
77799W        W78663  11.828   3.579   8.352
77800W        W78664  11.651   0.396   9.679
77801W        W78665  14.194   1.338   9.975
77802W        W78666  13.478   1.658   8.327
77803W        W78667  13.511   1.481   7.405
77804W        W78668  12.740   2.663   9.543
77805W        W78669  12.820   1.039   8.990
77806W        W78670  13.237   2.960   9.831
77807W        W78671  13.865   1.898   8.589
77808W        W78672  12.857   0.472   8.355
77809W        W78673  11.791   3.239   7.952
77810W        W78674  11.017   0.625   8.582
77811W        W78675  13.556   1.548   8.861
77812W        W78676  11.243   2.898   8.893
77813W        W78677  12.508   3.419   7.728
77814W        W78678  13.944   1.317   7.193
77815W        W78679  11.138   3.024   9.761
77816W        W78680  11.855   2.509  10.075
77817W        W78681  12.009   1.973   8.549
77818W        W78682  12.154   0.557   9.583
77819W        W78683  14.497   0.209   9.161
77820W        W78684  11.868   2.394   7.001
77821W        W78685  11.307   0.849   7.544
77822W        W78686  11.537   2.894   8.475
77823W        W78687  12.363   2.355   8.536
77824W        W78688  13.856   3.189  10.296
77825W        W78689  12.974   0.838   7.986
77826W        W78690  14.162   3.513   9.038
77827W        W78691  13.814   1.409  10.325
77828W        W78692  14.575   2.929   8.649
77829W        W78693  13.205   2.190  10.118
77830W        W78694  10.695   1.736   8.362
77831W        W78695  12.008   2.093   9.762
77832W        W78696  13.070   1.318   8.153
77833W        W78697  12.987   1.786   8.339
77834W        W78698  11.367   1.237   9.776
77835W        W78699  11.343   1.161  10.503
77836W        W78700  11.284   0.226   8.926
77837W        W78701  13.146   0.560   9.372
77838W        W78702  12.836   0.648  10.602
77839W        W78703  13.268   0.495   7.698
77840W        W78704  14.348   3.216  10.446
77841W        W78705  13.215   0.199  10.486
77842W        W78706  14.222   2.724  10.605
77843W        W78707  13.772   0.761  10.194
77844W        W78708  13.388   0.640   8.471
77845W        W78709  13.917   1.798  10.779
77846W        W78710  11.626   3.240   8.936
77847W        W78711  12.533   1.044   8.133
77848W        W78712  11.867   0.378  10.604
77849W        W78713  13.933   1.018   8.204
77850W        W78714  13.939   1.693   8.105
77851W        W78715  12.069   3.291  10.696
77852W        W78716  11.835   0.129   7.956
77853W        W78717  14.240   0.518   8.844
77854W        W78718  14.543   2.888   7.245
77855W        W78719  11.167   2.013   9.120
77856W        W78720  13.317   0.639   7.200
77857W        W78721  14.401   2.997   9.124
77858W        W78722  14.297   0.254   9.763
77859W        W78723  12.954   1.414  10.350
77860W        W78724  12.692   2.595   8.085
77861W        W78725  13.271   1.925  10.994
77862W        W78726  13.164  28.902   9.027
77863W        W78727  11.503   1.006   9.198
77864W        W78728  11.197   2.162  10.064
77865W        W78729  13.137   3.240   9.020
77866W        W78730  14.117   1.013   9.557
77867W        W78731  12.979   3.333  10.111
77868W        W78732  14.167   2.061   7.350
77869W        W78733  12.509   1.862   8.481
77870W        W78734  14.513   0.280  10.231
77871W        W78735  12.769   2.212   9.798
77872W        W78736  12.920   0.988   9.531
77873W        W78737  13.617   1.342   7.926
77874W        W78738  14.086   1.220   7.737
77875W        W78739  14.224   2.898   8.251
77876W        W78740  13.470   2.360   9.203
77877W        W78741  13.498   1.823   7.817
77878W        W78742  12.876   1.958   8.861
77879W        W78743  13.986   1.734   9.066
77880W        W78744  11.279   0.765   9.590
77881W        W78745  14.006   1.884  10.260
77882W        W78746  14.438   3.388   9.463
77883W        W78747  12.250   2.786   8.818
77884W        W78748  13.477   3.416  10.003
77885W        W78749  13.295   0.816   9.854
77886W        W78750  12.594   3.526   9.837
77887W        W78751  14.187   0.555   8.314
77888W        W78752  14.134   1.509   9.491
77889W        W78753  10.851   1.003   9.779
77890W        W78754  13.821   0.850   8.700
77891W        W78755  14.164   1.039  10.405
77892W        W78756  13.091   2.468   8.864
77893W        W78757  12.509   3.217   8.631
77894W        W78758  11.456   0.428   7.793
77895W        W78759  12.786   0.209   9.206
77896W        W78760  11.536   3.488   7.520
77897W        W78761  12.169   1.858   8.062
77898W        W78762  12.726   2.238  10.327
77899W        W78763  12.536   0.799   8.611
77900W        W78764  13.823   0.327   8.618
77901W        W78765  13.627   3.593   9.144
77902W        W78766  12.903   3.177   9.505
77903W        W78767  12.416   2.162   9.422
77904W        W78768  14.268   2.919   9.614
77905W        W78769  11.826   0.504   8.335
77906W        W78770  12.276   2.664   9.312
77907W        W78771  11.980   0.808   7.309
77908W        W78772  12.700   1.372   9.794
77909W        W78773  13.533   0.243   9.504
77910W        W78774  10.960   1.999   9.657
77911W        W78775  12.550   1.747   7.587
77912W        W78776  11.881   0.312   7.454
77913W        W78777  12.644   1.337   8.539
77914W        W78778  13.465   0.361  10.020
77915W        W78779  12.221   2.165  10.224
77916W        W78780  13.074   1.900  10.513
77917W        W78781  13.571   2.096  10.495
77918W        W78782  12.874   0.276  10.963
77919W        W78783  12.023   0.920   9.225
77920W        W78784  11.508   0.684   8.732
77921W        W78785  11.349   3.391   8.528
77922W        W78786  12.817   2.960  10.433
77923W        W78787  11.757   2.222   7.942
77924W        W78788  13.294   1.872   9.159
77925W        W78789  13.603   1.514   9.395
77926W        W78790  12.812   1.772   9.474
77927W        W78791  13.325   2.461   7.351
77928W        W78792  12.972   0.553   8.853
77929W        W78793  14.430   0.921   8.033
77930W        W78794  11.198   3.320  10.341
77931W        W78795  11.400   2.583   9.836
77932W        W78796  10.930   3.543   8.040
77933W        W78797  12.686   0.492   9.629
77934W        W78798  12.241   2.967   7.809
77935W        W78799  14.316   2.994   7.713
77936W        W78800  13.011   1.694   7.813
77937W        W78801  12.091   0.954   8.387
77938W        W78802  12.897   0.833   7.450
77939W        W78803  13.224   2.550  10.478
77940W        W78804  13.700   0.420   8.121
77941W        W78805  11.064   0.149   7.584
77942W        W78806  12.321   2.504   9.804
77943W        W78807  12.032   2.320   8.977
77944W        W78808  11.991   2.573   7.578
77945W        W78809  11.291   3.113   8.079
77946W        W78810  11.630   1.638  10.550
77947W        W78811  12.351   0.361  10.790
77948W        W78812  12.948   0.437  10.090
77949W        W78813  12.163   0.132   8.422
77950W        W78814  13.175   0.156   8.100
77951W        W78815  11.202   0.274   9.441
77952W        W78816  11.132   1.093   8.824
77953W        W78817  14.022   0.225   9.332
77954W        W78818  11.371   0.726   8.210
77955W        W78819  13.836   0.598   9.707
77956W        W78820  14.374   1.575   7.301
77957W        W78821  11.683   0.531   9.188
77958W        W78822  12.872   0.948  10.154
77959W        W78823  10.866   0.619   7.652
77960W        W78824  11.687   2.026  10.183
77961W        W78825  13.122   1.384   9.248
77962W        W78826  12.982   3.650   7.718
77963W        W78827  11.076   1.755   7.502
77964W        W78828  11.813   2.341  10.574
77965W        W78829  11.324   1.656  10.110
77966W        W78830  12.430   1.817   9.862
77967W        W78831  13.960   0.264  10.135
77968W        W78832  14.530   1.867  10.163
77969W        W78833  14.398   1.690   7.819
77970W        W78834  13.163   2.161   8.021
77971W        W78835  13.908   3.500   7.405
77972W        W78836  12.955   1.526  10.841
77973W        W78837  11.460   2.484  10.915
77974W        W78838  14.658   0.603  10.723
77975W        W78839  13.888   1.213   9.085
77976W        W78840  12.569   3.357  10.767
77977W        W78841  12.300   0.226   7.750
77978W        W78842  14.220   2.540   7.470
77979W        W78843  11.749   0.868  10.517
77980W        W78844  12.426   2.659  10.269
77981W        W78845  14.250   0.717   9.989
77982W        W78846  13.943   3.281   7.929
77983W        W78847  13.789   2.021   9.451
77984W        W78848  11.931   0.491  10.099
77985W        W78849  12.416   1.547  10.855
77986W        W78850  11.821   2.742   8.048
77987W        W78851  13.686   2.153   8.168
77988W        W78852  11.516   0.807  10.068
77989W        W78853  12.719   2.744   8.590
77990W        W78854  14.363   1.447   8.871
77991W        W78855  12.701   0.172  10.471
77992W        W78856  13.607   2.738   9.520
77993W        W78857  13.930   3.172   9.323
77994W        W78858  12.732   2.939   7.646
77995W        W78859  11.046   2.717  10.728
77996W        W78860  11.807   0.949   9.684
77997W        W78861  11.770   0.222   8.770
77998W        W78862  13.493   0.986   9.402
77999W        W78863  12.163   2.088   7.593
78000W        W78864  14.294   2.246   9.345
78001W        W78865  11.499   2.953  10.644
78002W        W78866  13.982   3.663   8.303
78003W        W78867  12.071   0.636   8.800
78004W        W78868  11.606   1.965   8.858
78005W        W78869  12.097   3.480   9.724
78006W        W78870  14.063   3.619  10.598
78007W        W78871  13.305   1.898   9.674
78008W        W78872  11.231   1.296   7.303
78009W        W78873  14.281   3.333   8.557
78010W        W78874  14.018   0.697   7.814
78011W        W78875  12.202   0.105  10.308
78012W        W78876  14.039   2.883   8.751
78013W        W78877  13.936   1.381   8.573
78014W        W78878  12.296   1.168   8.871
78015W        W78879  12.458   1.279  10.241
78016W        W78880  13.579   2.645  10.058
78017W        W78881  12.084   0.961  10.149
78018W        W78882  12.173   3.282   9.015
78019W        W78883  11.592   3.455  10.631
78020W        W78884  11.680   2.988   7.499
78021W        W78885  14.040   2.388   8.475
78022W        W78886  11.706   1.293  10.160
78023W        W78887  14.532   1.098   7.510
78024W        W78888  12.220   2.388   8.044
78025W        W78889  13.406   1.700  10.173
78026W        W78890  13.234   1.373   9.773
78027W        W78891  11.737   1.659   9.793
78028W        W78892  13.817   3.572   9.637
78029W        W78893  13.704   0.330  10.588
78030W        W78894  11.371   0.463  10.454
78031W        W78895  11.818   1.379   9.372
78032W        W78896  12.363   1.184   7.304
78033W        W78897  11.000   2.865  10.231
78034W        W78898  12.280   1.653   9.389
78035W        W78899  12.426   0.793   7.676
78036W        W78900  11.643   1.566   8.521
78037W        W78901  11.210   3.528   9.879
78038W        W78902  13.934   1.688   7.591
78039W        W78903  14.171   0.553  10.510
78040W        W78904  13.594   2.520   8.710
78041W        W78905  11.102   1.608  10.639
78042W        W78906  14.123   0.191   7.716
78043W        W78907  13.946   2.610   7.912
78044W        W78908  12.593   1.558   8.081
78045W        W78909  13.737   0.488   7.447
78046W        W78910  13.715   1.145   9.845
78047W        W78911  11.449   1.485   9.003
78048W        W78912  11.864   2.476   8.486
78049W        W78913  13.484   1.159   8.429
78050W        W78914  12.488   0.668   9.155
78051W        W78915  14.554   2.543   9.793
78052W        W78916  14.429   0.626   9.452
78053W        W78917  10.992   3.345   8.952
78054W        W78918  11.362   2.507   8.170
78055W        W78919  11.493   0.320  10.976
78056W        W78920  12.399   2.876  10.725
78057W        W78921  14.372   2.007   8.841
78058W        W78922  13.734   2.229   7.605
78059W        W78923  13.110   3.606   9.681
78060W        W78924  13.976   2.315  10.811
78061W        W78925  12.603   0.053   8.142
78062W        W78926  13.352   1.029   8.908
78063W        W78927  11.121   2.423   9.430
78064W        W78928  12.369   0.542   8.170
78065W        W78929  12.088   1.901  10.658
78066W        W78930  13.003   0.964   8.508
78067W        W78931  13.239   2.437   9.682
78068W        W78932  11.530   2.973  10.134
78069W        W78933  11.920   2.780  10.880
78070W        W78934  11.957   0.638   7.848
78071W        W78935  13.485   0.860   7.992
78072W        W78936  13.345   3.040  10.340
78073W        W78937  11.985   1.591   8.925
78074W        W78938  11.629   3.260   9.735
78075W        W78939  14.415   3.398   7.361
78076W        W78940  11.268   2.086  10.568
78077W        W78941  12.953   2.241   9.308
78078W        W78942  11.514   2.050   8.366
78079W        W78943  12.068   2.968   9.876
78080W        W78944  12.497   0.314   8.765
78081W        W78945  10.919   2.120   7.857
78082W        W78946  12.713   1.257   7.683
78083W        W78947  11.154   1.744   8.658
78084W        W78948  12.452   0.574  10.230
78085W        W78949  14.208   0.374   7.256
78086W        W78950  14.388   2.009  10.640
78087W        W78951  13.053   3.374  10.633
78088W        W78952  14.494   2.398  10.288
78089W        W78953  13.965   3.144  10.785
78090W        W78954  11.789   3.519   9.323
78091W        W78955  14.533   2.460   8.416
78092W        W78956  13.092   1.453   8.719
78093W        W78957  12.859  28.987   8.608
78094W        W78958  11.973   3.144   8.565
78095W        W78959  12.468   0.912   9.820
78096W        W78960  12.150   0.226   9.158
78097W        W78961  11.052   3.249   7.602
78098W        W78962  12.863   2.264   8.447
78099W        W78963  11.978   2.891  10.388
78100W        W78964  11.155   1.746   8.127
78101W        W78965  11.087   0.668   9.108
78102W        W78966  12.590   2.413   8.989
78103W        W78967  10.990   0.352   8.082
78104W        W78968  13.790   1.653   9.847
78105W        W78969  13.651   0.990   7.506
78106W        W78970  14.010   2.668   9.232
78107W        W78971  12.683   2.930   9.083
78108W        W78972  12.251   3.373   8.176
78109W        W78973  13.338   0.146   7.322
78110W        W78974  11.302   3.316   9.348
78111W        W78975  13.192   1.065  10.729
78112W        W78976  11.366   0.801  10.875
78113W        W78977  11.000   1.308   8.375
78114W        W78978  12.218   1.350   7.793
78115W        W78979  13.451   1.537  10.674
78116W        W78980  11.834   1.911   9.312
78117W        W78981  13.345   0.144   8.603
78118W        W78982  12.665   3.454   9.125
78119W        W78983  13.804   3.074   9.814
78120W        W78984  13.583   2.936   9.032
78121W        W78985  13.354   2.041   8.659
78122W        W78986  12.770   0.411   7.810
78123W        W78987  14.482   0.146   8.535
78124W        W78988  12.096   1.630   7.344
78125W        W78989  14.301   0.993   8.569
78126W        W78990  12.923   2.133   7.539
78127W        W78991  13.971   2.387  10.290
78128W        W78992  13.786   2.781   7.333
78129W        W78993  12.250   0.840  10.648
78130W        W78994  12.159   1.341   9.792
78131W        W78995  14.166   2.821  10.106
78132W        W78996  13.297   0.694  10.371
78133W        W78997  10.968   1.306  10.222
78134W        W78998  12.923   1.779  10.007
78135W        W78999  11.389   2.431   8.697
78136W        W79000  11.333   1.658   9.468
78137W        W79001  13.677   2.142   9.945
78138W        W79002  13.545   3.508  10.527
78139W        W79003  13.381   1.170  10.240
78140W        W79004  13.788   3.343   8.723
78141W        W79005  12.612   3.000   9.912
78142W        W79006  11.908   3.023   9.366
78143W        W79007  14.014   2.474   9.738
78144W        W79008  12.791   2.516  10.765
78145W        W79009  11.557   2.350   9.186
78146W        W79010  13.922   2.234   8.977
78147W        W79011  13.430   3.244   9.461
78148W        W79012  11.445   2.825   9.372
78149W        W79013  12.672   1.124  10.692
78150W        W79014  12.687   3.115   8.142
78151W        W79015  12.303   2.368  10.697
78152W        W79016  12.277   2.830   8.306
78153W        W79017  11.752   1.260   7.200
78154W        W79018  10.880   3.722  14.265
78155W        W79019  11.426   2.581  13.868
78156W        W79020  14.125   2.072  11.640
78157W        W79021  13.972   3.348  13.390
78158W        W79022  11.894   3.216  11.160
78159W        W79023  12.124   1.379  11.965
78160W        W79024  11.676   1.229  12.186
78161W        W79025  12.557   1.970  11.639
78162W        W79026  12.426   3.269  13.934
78163W        W79027  11.021   0.846  13.874
78164W        W79028  11.568   0.171  13.702
78165W        W79029  13.594   0.484  12.670
78166W        W79030  13.114   1.299  11.272
78167W        W79031  13.720   0.874  14.339
78168W        W79032  11.185   0.540  13.484
78169W        W79033  11.066   3.300  14.480
78170W        W79034  12.427   2.530  11.166
78171W        W79035  11.150   1.210  12.915
78172W        W79036  12.113   1.406  14.097
78173W        W79037  14.402   0.980  12.673
78174W        W79038  14.232   2.113  13.419
78175W        W79039  12.578   1.455  12.546
78176W        W79040  13.334   2.794  13.004
78177W        W79041  11.531   2.158  13.156
78178W        W79042  10.858   1.636  12.818
78179W        W79043  12.108   1.750  13.716
78180W        W79044  14.277   1.546  14.176
78181W        W79045  11.759   2.960  12.542
78182W        W79046  13.031   2.638  13.535
78183W        W79047  12.400   1.171  12.913
78184W        W79048  12.340   1.971  12.492
78185W        W79049  13.254   2.972  14.305
78186W        W79050  12.541   2.050  14.478
78187W        W79051  12.580   1.878  13.952
78188W        W79052  10.952   1.160  14.287
78189W        W79053  13.685   2.684  14.109
78190W        W79054  11.310   0.229  11.973
78191W        W79055  11.908   2.537  13.126
78192W        W79056  14.442   2.477  12.497
78193W        W79057  14.002   0.764  12.937
78194W        W79058  14.186   0.852  10.941
78195W        W79059  14.593   1.536  13.346
78196W        W79060  12.596   3.180  13.055
78197W        W79061  14.473   2.550  11.787
78198W        W79062  11.363   3.620  11.614
78199W        W79063  11.789   3.525  11.942
78200W        W79064  11.751   0.423  13.259
78201W        W79065  14.169   1.288  13.656
78202W        W79066  13.474   1.648  12.142
78203W        W79067  13.582   1.537  11.201
78204W        W79068  12.827   2.707  13.057
78205W        W79069  12.696   0.931  12.515
78206W        W79070  13.079   3.108  13.329
78207W        W79071  13.975   1.786  12.034
78208W        W79072  12.858   0.340  12.127
78209W        W79073  11.609   3.173  11.599
78210W        W79074  11.026   0.613  12.158
78211W        W79075  13.524   1.357  12.556
78212W        W79076  11.267   2.950  12.661
78213W        W79077  12.407   3.072  11.191
78214W        W79078  13.936   1.295  10.836
78215W        W79079  11.088   2.979  13.152
78216W        W79080  11.882   2.611  13.624
78217W        W79081  12.114   1.884  11.892
78218W        W79082  12.263   0.519  13.360
78219W        W79083  14.509   0.128  12.649
78220W        W79084  11.597   1.975  10.947
78221W        W79085  11.405   1.048  11.328
78222W        W79086  11.381   2.910  12.127
78223W        W79087  12.182   2.332  12.133
78224W        W79088  13.817   3.132  13.837
78225W        W79089  12.855   0.993  11.611
78226W        W79090  14.089   3.678  12.703
78227W        W79091  13.804   1.348  14.015
78228W        W79092  14.665   2.948  12.349
78229W        W79093  13.160   2.123  13.686
78230W        W79094  10.999   1.687  11.989
78231W        W79095  12.092   2.095  13.299
78232W        W79096  13.192   1.359  11.783
78233W        W79097  13.016   1.820  11.970
78234W        W79098  11.489   1.290  13.297
78235W        W79099  11.414   1.264  14.022
78236W        W79100  11.245   0.213  12.496
78237W        W79101  13.253   0.598  13.030
78238W        W79102  12.762   0.600  14.266
78239W        W79103  13.299   0.459  11.353
78240W        W79104  14.256   3.100  14.122
78241W        W79105  13.192   0.167  14.194
78242W        W79106  14.211   2.591  14.186
78243W        W79107  13.779   0.856  13.832
78244W        W79108  13.448   0.617  12.164
78245W        W79109  13.836   1.780  14.317
78246W        W79110  11.506   3.368  12.349
78247W        W79111  12.333   1.053  11.615
78248W        W79112  11.863   0.378  14.230
78249W        W79113  13.871   0.921  11.861
78250W        W79114  14.231   1.304  11.785
78251W        W79115  11.947   3.339  14.185
78252W        W79116  12.068   0.050  11.604
78253W        W79117  14.198   0.519  12.491
78254W        W79118  14.364   2.927  11.056
78255W        W79119  11.266   2.083  12.689
78256W        W79120  13.308   0.556  10.854
78257W        W79121  14.540   2.906  12.858
78258W        W79122  14.344   0.302  13.408
78259W        W79123  12.959   1.461  14.110
78260W        W79124  12.628   2.484  11.652
78261W        W79125  13.357   1.824  14.464
78262W        W79126  13.240   0.092  12.865
78263W        W79127  11.576   1.051  12.661
78264W        W79128  11.221   2.202  13.567
78265W        W79129  12.968   3.185  12.292
78266W        W79130  14.276   1.165  13.156
78267W        W79131  13.004   3.397  13.750
78268W        W79132  14.277   2.032  11.149
78269W        W79133  12.531   1.690  12.099
78270W        W79134  14.493   0.295  13.908
78271W        W79135  12.828   2.225  13.310
78272W        W79136  12.910   0.979  12.988
78273W        W79137  13.708   1.405  11.733
78274W        W79138  13.905   1.132  11.339
78275W        W79139  14.079   2.795  12.005
78276W        W79140  13.469   2.374  12.701
78277W        W79141  13.610   1.911  11.701
78278W        W79142  12.858   1.870  12.468
78279W        W79143  13.824   1.770  12.529
78280W        W79144  11.437   0.815  13.114
78281W        W79145  13.972   1.793  13.817
78282W        W79146  14.377   3.354  13.068
78283W        W79147  12.208   2.796  12.372
78284W        W79148  13.490   3.428  13.560
78285W        W79149  13.343   0.781  13.512
78286W        W79150  12.601   3.486  13.458
78287W        W79151  14.204   0.479  11.925
78288W        W79152  14.059   1.638  13.311
78289W        W79153  11.057   1.044  13.405
78290W        W79154  13.811   0.897  12.460
78291W        W79155  14.207   1.041  14.101
78292W        W79156  13.085   2.718  12.557
78293W        W79157  12.437   3.198  12.096
78294W        W79158  11.412   0.541  11.446
78295W        W79159  12.777   0.214  13.042
78296W        W79160  11.455   3.482  11.134
78297W        W79161  12.255   1.560  11.462
78298W        W79162  12.702   2.386  13.848
78299W        W79163  12.474   0.688  12.094
78300W        W79164  13.817   0.279  12.232
78301W        W79165  13.557   3.627  12.671
78302W        W79166  13.035   3.205  12.806
78303W        W79167  12.452   2.193  12.957
78304W        W79168  14.168   2.896  13.206
78305W        W79169  11.766   0.430  11.822
78306W        W79170  12.339   2.690  12.908
78307W        W79171  11.866   0.720  10.988
78308W        W79172  12.738   1.394  13.247
78309W        W79173  13.635   0.225  13.137
78310W        W79174  10.991   2.049  13.137
78311W        W79175  12.719   1.716  11.232
78312W        W79176  11.975   0.243  11.137
78313W        W79177  12.597   1.182  12.068
78314W        W79178  13.511   0.387  13.806
78315W        W79179  12.210   2.239  13.788
78316W        W79180  13.008   2.048  14.177
78317W        W79181  13.538   2.169  14.046
78318W        W79182  12.834   0.228  14.613
78319W        W79183  12.023   0.841  12.871
78320W        W79184  11.540   0.709  12.267
78321W        W79185  11.113   3.330  12.006
78322W        W79186  12.814   2.909  14.002
78323W        W79187  11.818   1.888  11.458
78324W        W79188  13.334   1.865  12.676
78325W        W79189  13.640   1.520  13.019
78326W        W79190  12.803   1.817  12.974
78327W        W79191  13.473   2.402  10.919
78328W        W79192  12.977   0.490  12.615
78329W        W79193  14.540   0.867  11.750
78330W        W79194  11.113   3.418  13.910
78331W        W79195  11.425   2.639  13.342
78332W        W79196  10.703   3.186  11.731
78333W        W79197  12.842   0.624  13.356
78334W        W79198  12.030   2.778  11.381
78335W        W79199  14.275   3.003  11.568
78336W        W79200  13.162   1.775  11.476
78337W        W79201  11.996   0.870  11.979
78338W        W79202  12.933   0.797  11.124
78339W        W79203  13.175   2.534  14.026
78340W        W79204  13.735   0.458  11.689
78341W        W79205  11.072   0.188  11.258
78342W        W79206  12.403   2.517  13.393
78343W        W79207  12.040   2.372  12.642
78344W        W79208  11.928   2.329  11.108
78345W        W79209  11.144   2.911  11.647
78346W        W79210  11.686   1.721  14.028
78347W        W79211  12.342   0.275  14.425
78348W        W79212  12.994   0.449  13.823
78349W        W79213  12.181   0.233  12.079
78350W        W79214  13.274   0.255  11.827
78351W        W79215  11.300   0.318  13.033
78352W        W79216  11.163   1.113  12.227
78353W        W79217  14.104   0.247  12.935
78354W        W79218  11.488   0.904  11.812
78355W        W79219  13.871   0.573  13.410
78356W        W79220  14.375   1.555  10.975
78357W        W79221  11.650   0.529  12.734
78358W        W79222  12.893   1.032  13.690
78359W        W79223  10.973   0.746  11.216
78360W        W79224  11.712   2.104  13.655
78361W        W79225  13.088   1.424  12.816
78362W        W79226  12.839   3.452  11.207
78363W        W79227  11.079   1.939  11.074
78364W        W79228  11.804   2.275  14.125
78365W        W79229  11.366   1.692  13.638
78366W        W79230  12.522   1.832  13.423
78367W        W79231  13.990   0.210  13.771
78368W        W79232  14.480   1.813  13.767
78369W        W79233  14.598   1.607  11.447
78370W        W79234  13.343   2.263  11.418
78371W        W79235  13.757   3.562  11.011
78372W        W79236  12.993   1.511  14.633
78373W        W79237  11.457   2.534  14.388
78374W        W79238  14.589   0.620  14.378
78375W        W79239  14.036   1.339  12.725
78376W        W79240  12.379   3.453  14.449
78377W        W79241  12.475   0.197  11.289
78378W        W79242  14.130   2.506  11.352
78379W        W79243  11.805   0.954  14.100
78380W        W79244  12.316   2.763  13.854
78381W        W79245  14.285   0.756  13.662
78382W        W79246  13.951   3.407  11.469
78383W        W79247  13.712   2.037  13.011
78384W        W79248  11.902   0.583  13.743
78385W        W79249  12.522   1.542  14.382
78386W        W79250  11.686   2.685  11.736
78387W        W79251  13.638   2.142  12.214
78388W        W79252  11.501   0.907  13.656
78389W        W79253  12.685   2.733  12.121
78390W        W79254  14.404   1.404  12.309
78391W        W79255  12.700   0.077  14.108
78392W        W79256  13.830   2.715  12.856
78393W        W79257  13.923   3.226  12.872
78394W        W79258  12.883   2.989  10.954
78395W        W79259  11.091   2.860  14.199
78396W        W79260  11.913   0.949  13.349
78397W        W79261  11.715   0.236  12.306
78398W        W79262  13.546   1.007  12.930
78399W        W79263  12.295   1.993  11.168
78400W        W79264  14.174   1.874  12.885
78401W        W79265  11.492   3.092  13.959
78402W        W79266  14.009   3.639  11.928
78403W        W79267  12.051   0.601  12.418
78404W        W79268  11.814   2.015  12.331
78405W        W79269  12.180   3.512  13.167
78406W        W79270  13.963   3.557  14.109
78407W        W79271  13.260   1.815  13.217
78408W        W79272  11.428   1.576  11.253
78409W        W79273  14.321   3.238  12.103
78410W        W79274  14.153   0.706  11.454
78411W        W79275  12.251   0.243  13.907
78412W        W79276  14.158   2.930  12.509
78413W        W79277  13.914   1.325  12.211
78414W        W79278  12.206   1.086  12.416
78415W        W79279  12.536   1.411  13.745
78416W        W79280  13.519   2.526  13.655
78417W        W79281  12.192   1.023  13.776
78418W        W79282  12.041   3.379  12.367
78419W        W79283  11.479   3.523  14.261
78420W        W79284  11.406   2.952  11.168
78421W        W79285  14.139   2.287  12.111
78422W        W79286  11.797   1.338  13.694
78423W        W79287  14.424   1.150  11.301
78424W        W79288  12.143   2.304  11.584
78425W        W79289  13.403   1.699  13.970
78426W        W79290  13.246   1.255  13.296
78427W        W79291  11.777   1.707  13.316
78428W        W79292  13.719   3.720  13.163
78429W        W79293  13.672   0.339  14.302
78430W        W79294  11.416   0.542  14.026
78431W        W79295  11.886   1.358  12.940
78432W        W79296  12.118   1.148  11.125
78433W        W79297  11.062   2.937  13.684
78434W        W79298  12.305   1.688  12.946
78435W        W79299  12.404   0.716  11.176
78436W        W79300  11.644   1.684  11.945
78437W        W79301  11.145   3.625  13.444
78438W        W79302  14.064   1.622  11.399
78439W        W79303  14.113   0.554  14.150
78440W        W79304  13.727   2.645  12.345
78441W        W79305  11.157   1.647  14.233
78442W        W79306  14.124   0.201  11.421
78443W        W79307  13.766   2.418  11.764
78444W        W79308  12.715   1.477  11.670
78445W        W79309  13.784   0.523  11.122
78446W        W79310  13.787   1.092  13.366
78447W        W79311  11.257   1.586  12.456
78448W        W79312  11.719   2.536  12.250
78449W        W79313  13.462   1.115  12.120
78450W        W79314  12.518   0.653  12.923
78451W        W79315  14.589   2.593  13.364
78452W        W79316  14.506   0.691  13.111
78453W        W79317  11.026   3.387  12.570
78454W        W79318  11.255   2.457  11.867
78455W        W79319  11.433   0.421  14.543
78456W        W79320  12.294   2.961  14.342
78457W        W79321  14.334   1.910  12.404
78458W        W79322  13.765   2.040  11.219
78459W        W79323  13.091   3.625  13.273
78460W        W79324  13.867   2.288  14.414
78461W        W79325  12.573   0.055  11.778
78462W        W79326  13.224   0.933  12.547
78463W        W79327  11.035   2.523  12.891
78464W        W79328  12.273   0.524  11.648
78465W        W79329  12.134   1.904  14.214
78466W        W79330  12.995   0.850  12.085
78467W        W79331  13.330   2.331  13.213
78468W        W79332  11.451   3.197  13.461
78469W        W79333  11.865   2.788  14.112
78470W        W79334  11.877   0.821  11.479
78471W        W79335  13.363   0.856  11.683
78472W        W79336  13.320   2.987  13.794
78473W        W79337  12.029   1.561  12.462
78474W        W79338  11.690   3.626  13.273
78475W        W79339  14.279   3.440  11.068
78476W        W79340  11.311   2.104  14.065
78477W        W79341  12.981   2.267  12.813
78478W        W79342  11.708   2.195  11.859
78479W        W79343  12.158   2.981  13.289
78480W        W79344  12.490   0.352  12.494
78481W        W79345  10.945   2.322  11.444
78482W        W79346  12.615   1.214  11.205
78483W        W79347  11.317   2.040  12.171
78484W        W79348  12.537   0.656  13.787
78485W        W79349  14.295   0.348  10.971
78486W        W79350  14.271   2.063  14.173
78487W        W79351  12.866   3.394  14.233
78488W        W79352  14.490   2.357  13.806
78489W        W79353  13.752   3.143  14.345
78490W        W79354  11.757   3.458  12.786
78491W        W79355  14.666   2.191  12.113
78492W        W79356  13.034   1.377  12.291
78493W        W79357  12.872  28.991  12.534
78494W        W79358  11.868   3.036  12.048
78495W        W79359  12.483   0.973  13.368
78496W        W79360  12.114   0.321  12.885
78497W        W79361  11.020   3.320  11.351
78498W        W79362  12.669   2.191  12.090
78499W        W79363  11.941   3.140  13.714
78500W        W79364  11.299   1.945  11.635
78501W        W79365  11.179   0.702  12.649
78502W        W79366  12.581   2.436  12.527
78503W        W79367  10.931   0.439  11.673
78504W        W79368  13.609   1.541  13.534
78505W        W79369  13.463   0.938  11.166
78506W        W79370  14.278   2.421  12.985
78507W        W79371  12.635   2.947  12.598
78508W        W79372  12.145   3.235  11.640
78509W        W79373  13.344   0.063  10.998
78510W        W79374  11.301   3.423  12.993
78511W        W79375  13.016   1.039  14.425
78512W        W79376  11.396   0.927  14.407
78513W        W79377  11.297   1.372  11.730
78514W        W79378  11.797   1.334  11.551
78515W        W79379  13.433   1.324  14.361
78516W        W79380  11.857   1.915  12.837
78517W        W79381  13.322   0.151  12.348
78518W        W79382  12.567   3.440  12.543
78519W        W79383  13.661   2.937  13.376
78520W        W79384  13.503   3.067  12.592
78521W        W79385  13.141   2.260  12.307
78522W        W79386  12.809   0.491  11.610
78523W        W79387  14.498   0.078  12.070
78524W        W79388  11.939   1.613  11.049
78525W        W79389  14.274   0.930  12.181
78526W        W79390  12.846   2.212  11.246
78527W        W79391  13.969   2.316  13.823
78528W        W79392  13.857   2.942  11.236
78529W        W79393  12.242   0.716  14.206
78530W        W79394  12.197   1.394  13.356
78531W        W79395  14.164   2.775  13.697
78532W        W79396  13.289   0.785  14.057
78533W        W79397  10.987   1.364  13.793
78534W        W79398  13.010   1.618  13.625
78535W        W79399  11.209   2.498  12.385
78536W        W79400  11.384   1.677  12.974
78537W        W79401  13.645   2.045  13.521
78538W        W79402  13.427   3.442  14.082
78539W        W79403  13.348   1.217  13.817
78540W        W79404  13.882   3.358  12.356
78541W        W79405  12.631   2.973  13.523
78542W        W79406  12.169   3.151  12.790
78543W        W79407  13.873   2.462  13.301
78544W        W79408  12.795   2.490  14.361
78545W        W79409  11.550   2.525  12.769
78546W        W79410  13.972   2.264  12.604
78547W        W79411  13.463   3.299  13.063
78548W        W79412  11.668   3.003  13.041
78549W        W79413  12.584   1.085  14.138
78550W        W79414  12.633   3.012  11.649
78551W        W79415  12.280   2.442  14.251
78552W        W79416  12.232   2.753  11.850
78553W        W79417  11.649   1.225  10.909
78554W        W79418  11.086   3.618  18.023
78555W        W79419  11.282   2.534  17.478
78556W        W79420  14.037   2.080  15.180
78557W        W79421  14.301   3.304  17.334
78558W        W79422  11.944   3.257  14.712
78559W        W79423  12.265   1.379  15.660
78560W        W79424  11.814   1.237  15.918
78561W        W79425  12.423   1.821  15.415
78562W        W79426  12.402   3.296  17.721
78563W        W79427  11.034   0.793  17.606
78564W        W79428  11.675   0.231  17.361
78565W        W79429  13.556   0.581  16.296
78566W        W79430  13.062   1.163  15.019
78567W        W79431  13.831   0.869  17.944
78568W        W79432  11.267   0.518  17.183
78569W        W79433  11.268   3.160  18.097
78570W        W79434  12.429   2.607  14.715
78571W        W79435  11.171   1.230  16.659
78572W        W79436  12.108   1.407  17.936
78573W        W79437  14.450   1.006  16.313
78574W        W79438  14.127   1.987  17.041
78575W        W79439  12.743   1.216  16.362
78576W        W79440  13.184   2.813  16.708
78577W        W79441  11.661   2.127  16.790
78578W        W79442  10.894   1.659  16.549
78579W        W79443  12.161   1.773  17.532
78580W        W79444  14.299   1.576  17.750
78581W        W79445  11.739   2.894  16.282
78582W        W79446  13.016   2.701  17.399
78583W        W79447  12.308   1.285  16.634
78584W        W79448  12.297   2.041  16.311
78585W        W79449  13.353   3.050  18.099
78586W        W79450  12.512   2.202  18.132
78587W        W79451  12.618   2.040  17.627
78588W        W79452  10.935   1.140  18.067
78589W        W79453  13.753   2.785  17.874
78590W        W79454  11.447   0.277  15.622
78591W        W79455  11.857   2.597  16.895
78592W        W79456  14.462   2.437  16.275
78593W        W79457  14.036   0.768  16.533
78594W        W79458  14.169   0.846  14.586
78595W        W79459  14.679   1.528  16.990
78596W        W79460  12.447   3.220  16.931
78597W        W79461  14.400   2.607  15.300
78598W        W79462  11.264   3.632  15.241
78599W        W79463  11.746   3.507  15.675
78600W        W79464  11.807   0.509  16.941
78601W        W79465  14.207   1.471  17.232
78602W        W79466  13.525   1.637  15.781
78603W        W79467  13.477   1.479  14.871
78604W        W79468  12.727   2.750  16.930
78605W        W79469  12.703   0.774  16.080
78606W        W79470  13.032   3.147  17.157
78607W        W79471  14.054   1.705  15.525
78608W        W79472  12.690   0.454  15.673
78609W        W79473  11.468   3.165  15.408
78610W        W79474  11.089   0.604  15.834
78611W        W79475  13.560   1.338  16.210
78612W        W79476  11.222   2.900  16.346
78613W        W79477  12.405   3.122  14.869
78614W        W79478  13.952   1.317  14.531
78615W        W79479  11.054   2.944  16.874
78616W        W79480  11.784   2.575  17.396
78617W        W79481  12.121   1.851  15.853
78618W        W79482  12.321   0.495  17.011
78619W        W79483  14.525   0.242  16.444
78620W        W79484  11.646   1.907  14.494
78621W        W79485  11.432   0.896  14.919
78622W        W79486  11.356   2.856  15.839
78623W        W79487  12.143   2.377  15.949
78624W        W79488  13.863   3.244  17.616
78625W        W79489  12.769   0.844  15.311
78626W        W79490  14.169   3.297  16.474
78627W        W79491  13.772   1.349  17.576
78628W        W79492  14.622   2.870  16.062
78629W        W79493  13.130   2.210  17.534
78630W        W79494  11.036   1.481  15.637
78631W        W79495  12.027   2.164  17.161
78632W        W79496  13.154   1.312  15.503
78633W        W79497  12.855   1.697  15.663
78634W        W79498  11.469   1.309  17.116
78635W        W79499  11.419   1.216  17.819
78636W        W79500  11.301   0.220  16.140
78637W        W79501  13.080   0.553  16.554
78638W        W79502  12.913   0.759  17.897
78639W        W79503  13.305   0.492  15.013
78640W        W79504  14.329   3.190  17.860
78641W        W79505  13.319   0.292  17.774
78642W        W79506  14.248   2.594  17.964
78643W        W79507  13.850   0.776  17.445
78644W        W79508  13.539   0.589  15.759
78645W        W79509  13.915   1.830  18.032
78646W        W79510  11.476   3.300  16.081
78647W        W79511  12.306   0.988  15.152
78648W        W79512  11.816   0.438  17.844
78649W        W79513  13.906   0.898  15.508
78650W        W79514  14.238   1.261  15.360
78651W        W79515  12.063   3.478  18.065
78652W        W79516  11.895   0.179  15.274
78653W        W79517  14.324   0.562  16.122
78654W        W79518  14.315   2.886  14.593
78655W        W79519  11.238   2.049  16.435
78656W        W79520  13.250   0.567  14.508
78657W        W79521  14.469   2.862  16.559
78658W        W79522  14.369   0.260  16.981
78659W        W79523  12.999   1.717  17.744
78660W        W79524  12.217   2.289  15.455
78661W        W79525  13.332   1.921  18.387
78662W        W79526  13.044   0.045  16.389
78663W        W79527  11.599   1.066  16.365
78664W        W79528  11.359   2.082  17.227
78665W        W79529  12.886   3.322  16.163
78666W        W79530  14.312   1.179  16.794
78667W        W79531  13.072   3.490  17.536
78668W        W79532  14.174   1.963  14.687
78669W        W79533  12.534   1.602  16.070
78670W        W79534  14.537   0.260  17.483
78671W        W79535  12.699   2.324  17.219
78672W        W79536  13.050   1.052  16.746
78673W        W79537  13.682   1.340  15.367
78674W        W79538  13.898   1.059  14.990
78675W        W79539  14.072   2.987  15.663
78676W        W79540  13.611   2.620  16.378
78677W        W79541  13.583   1.831  15.289
78678W        W79542  12.940   1.926  16.259
78679W        W79543  13.911   1.753  16.134
78680W        W79544  11.466   0.854  16.822
78681W        W79545  13.950   1.852  17.513
78682W        W79546  14.511   3.340  16.861
78683W        W79547  12.230   2.859  16.178
78684W        W79548  13.515   3.470  17.286
78685W        W79549  13.298   0.923  17.188
78686W        W79550  12.612   3.535  17.293
78687W        W79551  14.214   0.511  15.614
78688W        W79552  13.958   1.665  16.657
78689W        W79553  11.077   1.004  17.145
78690W        W79554  13.906   0.856  16.035
78691W        W79555  14.224   1.090  17.609
78692W        W79556  13.120   2.647  16.207
78693W        W79557  12.397   3.230  15.874
78694W        W79558  11.472   0.400  15.054
78695W        W79559  12.689   0.235  16.736
78696W        W79560  11.465   3.470  14.774
78697W        W79561  12.171   1.473  15.146
78698W        W79562  12.618   2.566  17.711
78699W        W79563  12.357   0.862  15.661
78700W        W79564  13.896   0.328  16.001
78701W        W79565  13.694   3.523  16.476
78702W        W79566  12.893   3.277  16.681
78703W        W79567  12.363   2.294  16.788
78704W        W79568  14.191   2.947  16.982
78705W        W79569  11.921   0.580  15.606
78706W        W79570  12.269   2.810  16.691
78707W        W79571  11.843   0.759  14.582
78708W        W79572  12.713   1.414  16.973
78709W        W79573  13.518   0.298  16.745
78710W        W79574  10.979   2.046  16.895
78711W        W79575  12.575   1.685  14.890
78712W        W79576  11.925   0.285  14.755
78713W        W79577  12.730   1.201  15.798
78714W        W79578  13.497   0.456  17.261
78715W        W79579  12.174   2.314  17.631
78716W        W79580  13.009   2.133  18.031
78717W        W79581  13.505   2.119  17.882
78718W        W79582  12.981   0.377  18.240
78719W        W79583  12.059   0.847  16.629
78720W        W79584  11.580   0.730  15.952
78721W        W79585  11.127   3.456  15.705
78722W        W79586  12.884   3.021  17.811
78723W        W79587  11.620   1.623  14.944
78724W        W79588  13.463   1.801  16.398
78725W        W79589  13.535   1.350  16.711
78726W        W79590  12.855   2.057  16.789
78727W        W79591  13.340   2.354  14.486
78728W        W79592  13.122   0.433  16.042
78729W        W79593  14.579   0.837  15.362
78730W        W79594  11.292   3.359  17.583
78731W        W79595  11.356   2.533  16.970
78732W        W79596  10.752   3.424  15.315
78733W        W79597  12.828   0.657  17.004
78734W        W79598  11.993   3.109  15.299
78735W        W79599  14.084   2.972  15.061
78736W        W79600  13.054   1.675  15.136
78737W        W79601  11.879   1.084  15.424
78738W        W79602  12.854   0.733  14.792
78739W        W79603  13.254   2.602  17.847
78740W        W79604  13.751   0.441  15.313
78741W        W79605  11.072   0.126  14.871
78742W        W79606  12.279   2.616  17.200
78743W        W79607  11.999   2.448  16.431
78744W        W79608  11.927   2.709  14.612
78745W        W79609  10.972   2.997  15.505
78746W        W79610  11.655   1.658  17.942
78747W        W79611  12.314   0.433  17.972
78748W        W79612  13.018   0.522  17.440
78749W        W79613  12.229   0.182  15.729
78750W        W79614  13.169   0.354  15.495
78751W        W79615  11.372   0.333  16.712
78752W        W79616  11.198   1.097  15.997
78753W        W79617  14.000   0.247  16.543
78754W        W79618  11.458   0.765  15.432
78755W        W79619  13.919   0.540  16.975
78756W        W79620  14.451   1.538  14.658
78757W        W79621  11.725   0.541  16.414
78758W        W79622  12.824   1.048  17.377
78759W        W79623  11.014   0.625  14.842
78760W        W79624  11.727   2.035  17.579
78761W        W79625  13.061   1.552  16.603
78762W        W79626  12.788   3.468  14.750
78763W        W79627  11.174   1.845  14.714
78764W        W79628  11.683   2.434  17.888
78765W        W79629  11.380   1.651  17.498
78766W        W79630  12.462   1.880  17.098
78767W        W79631  14.008   0.281  17.416
78768W        W79632  14.510   1.887  17.380
78769W        W79633  14.430   1.713  15.148
78770W        W79634  12.974   2.031  14.740
78771W        W79635  13.709   3.701  14.543
78772W        W79636  12.976   1.584  18.239
78773W        W79637  11.285   2.489  18.213
78774W        W79638  14.689   0.672  18.043
78775W        W79639  14.021   1.258  16.368
78776W        W79640  12.556   3.451  18.184
78777W        W79641  12.404   0.121  14.923
78778W        W79642  14.112   2.470  14.852
78779W        W79643  11.884   0.958  17.808
78780W        W79644  12.152   2.834  17.665
78781W        W79645  14.327   0.713  17.239
78782W        W79646  13.694   3.587  15.045
78783W        W79647  13.751   2.142  16.675
78784W        W79648  12.010   0.649  17.410
78785W        W79649  12.524   1.696  17.988
78786W        W79650  11.780   2.618  15.511
78787W        W79651  13.903   2.141  15.724
78788W        W79652  11.530   0.880  17.433
78789W        W79653  12.633   2.617  15.964
78790W        W79654  14.384   1.453  16.063
78791W        W79655  12.758   0.258  17.794
78792W        W79656  13.607   2.589  16.890
78793W        W79657  13.791   3.012  16.643
78794W        W79658  12.772   2.984  14.527
78795W        W79659  11.023   2.771  17.852
78796W        W79660  11.902   1.025  17.090
78797W        W79661  11.797   0.247  16.007
78798W        W79662  13.532   0.825  16.740
78799W        W79663  12.057   2.190  14.646
78800W        W79664  14.262   2.066  16.551
78801W        W79665  11.528   2.902  17.742
78802W        W79666  13.979   3.546  15.660
78803W        W79667  12.180   0.600  16.093
78804W        W79668  11.762   2.010  16.280
78805W        W79669  12.100   3.610  17.085
78806W        W79670  14.078   3.651  17.908
78807W        W79671  13.339   1.881  16.891
78808W        W79672  11.253   1.342  14.686
78809W        W79673  14.338   3.304  15.989
78810W        W79674  14.184   0.649  15.098
78811W        W79675  12.170   0.174  17.516
78812W        W79676  14.100   2.832  16.206
78813W        W79677  13.949   1.321  15.832
78814W        W79678  12.292   1.115  16.127
78815W        W79679  12.602   1.522  17.468
78816W        W79680  13.533   2.588  17.416
78817W        W79681  12.278   1.117  17.504
78818W        W79682  11.981   3.354  16.164
78819W        W79683  11.591   3.595  17.927
78820W        W79684  11.539   3.047  14.463
78821W        W79685  14.262   2.525  15.809
78822W        W79686  11.818   1.367  17.500
78823W        W79687  14.448   1.098  14.917
78824W        W79688  11.981   1.951  15.129
78825W        W79689  13.426   1.769  17.482
78826W        W79690  13.217   1.423  17.105
78827W        W79691  11.757   1.735  17.140
78828W        W79692  13.930   3.432  16.943
78829W        W79693  13.810   0.359  17.909
78830W        W79694  11.320   0.388  17.698
78831W        W79695  11.803   1.382  16.725
78832W        W79696  12.187   1.131  14.511
78833W        W79697  10.977   2.977  17.374
78834W        W79698  12.568   1.707  16.574
78835W        W79699  12.332   0.658  14.762
78836W        W79700  11.816   1.594  15.499
78837W        W79701  11.074   3.465  17.119
78838W        W79702  13.968   1.581  14.992
78839W        W79703  14.255   0.599  17.765
78840W        W79704  13.747   2.632  15.879
78841W        W79705  11.121   1.631  17.948
78842W        W79706  14.140   0.132  15.110
78843W        W79707  13.908   2.546  15.384
78844W        W79708  12.659   1.356  15.298
78845W        W79709  13.771   0.546  14.778
78846W        W79710  13.859   1.102  17.050
78847W        W79711  11.330   1.545  16.262
78848W        W79712  11.642   2.450  15.997
78849W        W79713  13.500   1.089  15.788
78850W        W79714  12.559   0.734  16.568
78851W        W79715  14.489   2.521  16.994
78852W        W79716  14.534   0.690  16.733
78853W        W79717  10.970   3.317  16.168
78854W        W79718  11.314   2.392  15.588
78855W        W79719  11.370   0.249  18.197
78856W        W79720  12.439   2.939  18.100
78857W        W79721  14.356   1.983  16.025
78858W        W79722  13.677   2.006  14.808
78859W        W79723  13.043   3.653  17.005
78860W        W79724  13.877   2.316  18.199
78861W        W79725  12.597   0.014  15.399
78862W        W79726  13.188   0.956  16.218
78863W        W79727  10.969   2.489  16.586
78864W        W79728  12.335   0.482  15.291
78865W        W79729  12.058   1.985  18.002
78866W        W79730  13.073   0.825  15.714
78867W        W79731  13.182   2.364  17.046
78868W        W79732  11.474   2.986  17.241
78869W        W79733  11.889   2.996  18.098
78870W        W79734  11.894   0.682  15.094
78871W        W79735  13.420   0.888  15.310
78872W        W79736  13.369   3.059  17.580
78873W        W79737  12.047   1.561  16.281
78874W        W79738  11.591   3.441  16.995
78875W        W79739  14.121   3.374  14.596
78876W        W79740  11.252   2.113  17.805
78877W        W79741  13.256   2.275  16.544
78878W        W79742  11.752   2.106  15.608
78879W        W79743  11.991   3.047  17.154
78880W        W79744  12.606   0.277  16.169
78881W        W79745  11.095   2.157  15.121
78882W        W79746  12.610   1.184  14.778
78883W        W79747  11.368   1.969  15.933
78884W        W79748  12.515   0.642  17.512
78885W        W79749  14.257   0.350  14.661
78886W        W79750  14.338   2.074  17.879
78887W        W79751  13.039   3.456  18.049
78888W        W79752  14.424   2.410  17.494
78889W        W79753  13.858   3.242  18.138
78890W        W79754  11.644   3.584  16.493
78891W        W79755  14.412   2.117  15.527
78892W        W79756  13.091   1.461  16.061
78893W        W79757  12.928   0.009  15.832
78894W        W79758  11.848   3.026  15.803
78895W        W79759  12.427   0.986  17.031
78896W        W79760  12.202   0.306  16.531
78897W        W79761  11.084   3.189  15.004
78898W        W79762  12.583   2.095  15.879
78899W        W79763  11.874   3.271  17.616
78900W        W79764  11.367   1.807  15.380
78901W        W79765  11.231   0.688  16.346
78902W        W79766  12.706   2.367  16.408
78903W        W79767  11.021   0.395  15.329
78904W        W79768  13.728   1.615  17.109
78905W        W79769  13.446   0.963  14.764
78906W        W79770  14.074   2.550  16.651
78907W        W79771  12.706   2.883  16.418
78908W        W79772  12.232   3.545  15.456
78909W        W79773  13.341   0.094  14.690
78910W        W79774  11.199   3.352  16.614
78911W        W79775  13.259   1.142  18.095
78912W        W79776  11.462   0.762  18.052
78913W        W79777  11.350   1.284  15.252
78914W        W79778  11.856   1.169  14.901
78915W        W79779  13.461   1.597  17.980
78916W        W79780  12.085   1.827  16.738
78917W        W79781  13.503   0.058  15.752
78918W        W79782  12.434   3.326  16.413
78919W        W79783  13.718   3.007  17.175
78920W        W79784  13.362   3.126  16.335
78921W        W79785  13.482   2.199  16.071
78922W        W79786  12.816   0.366  15.124
78923W        W79787  14.508   0.145  15.850
78924W        W79788  12.089   1.648  14.666
78925W        W79789  14.354   0.993  15.802
78926W        W79790  12.449   2.164  14.994
78927W        W79791  13.922   2.339  17.659
78928W        W79792  13.715   2.725  14.637
78929W        W79793  12.399   0.948  17.975
78930W        W79794  12.190   1.451  17.112
78931W        W79795  14.137   2.835  17.512
78932W        W79796  13.390   0.801  17.675
78933W        W79797  11.002   1.312  17.541
78934W        W79798  12.951   1.837  17.241
78935W        W79799  11.123   2.418  16.082
78936W        W79800  11.384   1.697  16.775
78937W        W79801  13.642   2.139  17.204
78938W        W79802  13.521   3.537  17.842
78939W        W79803  13.243   1.286  17.596
78940W        W79804  13.818   3.241  16.068
78941W        W79805  12.585   2.985  17.374
78942W        W79806  11.992   3.257  16.676
78943W        W79807  14.013   2.484  17.168
78944W        W79808  12.856   2.608  18.169
78945W        W79809  11.489   2.493  16.482
78946W        W79810  13.971   2.295  16.207
78947W        W79811  13.399   3.292  16.826
78948W        W79812  11.553   2.984  16.741
78949W        W79813  12.792   1.259  17.871
78950W        W79814  12.522   3.126  15.376
78951W        W79815  12.127   2.533  18.114
78952W        W79816  12.259   2.777  15.643
78953W        W79817  11.710   1.368  14.437
78954W        W79818  10.962   3.714  21.641
78955W        W79819  11.411   2.554  21.239
78956W        W79820  14.199   2.121  18.946
78957W        W79821  14.343   3.405  20.913
78958W        W79822  11.893   3.313  18.524
78959W        W79823  12.169   1.518  19.301
78960W        W79824  12.675   2.079  19.005
78961W        W79825  12.451   3.213  21.350
78962W        W79826  11.309   0.723  21.217
78963W        W79827  11.869  28.842  21.116
78964W        W79828  13.562   0.528  19.958
78965W        W79829  13.277   1.320  18.602
78966W        W79830  13.764   0.762  21.640
78967W        W79831  11.175   0.540  20.744
78968W        W79832  11.158   3.265  21.821
78969W        W79833  12.480   2.586  18.522
78970W        W79834  11.214   1.167  20.213
78971W        W79835  12.074   1.307  21.416
78972W        W79836  14.443   0.893  19.951
78973W        W79837  14.132   2.066  20.723
78974W        W79838  12.638   1.516  19.898
78975W        W79839  13.180   2.800  20.232
78976W        W79840  11.476   2.136  20.474
78977W        W79841  10.954   1.606  20.158
78978W        W79842  12.037   1.721  21.089
78979W        W79843  14.235   1.583  21.443
78980W        W79844  11.803   2.809  19.808
78981W        W79845  12.822   2.725  21.005
78982W        W79846  12.385   1.194  20.209
78983W        W79847  12.488   2.067  19.908
78984W        W79848  13.122   2.907  21.829
78985W        W79849  12.581   2.041  21.760
78986W        W79850  12.547   1.868  21.246
78987W        W79851  11.049   1.135  21.750
78988W        W79852  13.580   2.773  21.613
78989W        W79853  11.410   0.309  19.347
78990W        W79854  11.873   2.520  20.409
78991W        W79855  14.318   2.450  19.864
78992W        W79856  14.013   0.711  20.219
78993W        W79857  14.241   0.901  18.258
78994W        W79858  14.685   1.596  20.694
78995W        W79859  12.453   3.248  20.335
78996W        W79860  14.470   2.558  19.032
78997W        W79861  11.330   3.601  18.906
78998W        W79862  11.728   3.529  19.277
78999W        W79863  11.819   0.406  20.568
79000W        W79864  14.166   1.507  20.932
79001W        W79865  13.567   1.710  19.466
79002W        W79866  13.711   1.586  18.460
79003W        W79867  12.727   2.829  20.505
79004W        W79868  12.667   0.961  19.827
79005W        W79869  13.171   2.995  20.718
79006W        W79870  14.099   1.832  19.378
79007W        W79871  12.742   0.486  19.262
79008W        W79872  11.618   3.154  18.942
79009W        W79873  11.043   0.678  19.408
79010W        W79874  13.563   1.345  19.853
79011W        W79875  11.270   2.799  19.850
79012W        W79876  12.391   3.163  18.577
79013W        W79877  13.982   1.329  18.073
79014W        W79878  11.103   3.012  20.579
79015W        W79879  11.859   2.610  20.983
79016W        W79880  12.159   2.083  19.398
79017W        W79881  12.327   0.546  20.622
79018W        W79882  14.538   0.182  19.912
79019W        W79883  11.603   2.065  18.259
79020W        W79884  11.506   1.095  18.731
79021W        W79885  11.483   2.859  19.387
79022W        W79886  12.219   2.606  19.439
79023W        W79887  13.893   3.316  21.181
79024W        W79888  12.803   0.908  18.943
79025W        W79889  14.122   3.354  19.999
79026W        W79890  13.756   1.459  21.265
79027W        W79891  14.534   2.881  19.626
79028W        W79892  13.120   2.189  21.050
79029W        W79893  11.027   1.628  19.247
79030W        W79894  11.953   2.145  20.727
79031W        W79895  13.054   1.345  19.081
79032W        W79896  13.072   1.837  19.273
79033W        W79897  11.611   1.234  20.517
79034W        W79898  11.398   1.207  21.357
79035W        W79899  11.409   0.228  19.846
79036W        W79900  13.203   0.632  20.317
79037W        W79901  12.861   0.697  21.541
79038W        W79902  13.359   0.483  18.637
79039W        W79903  14.374   3.227  21.404
79040W        W79904  13.223   0.241  21.550
79041W        W79905  14.130   2.589  21.629
79042W        W79906  13.727   0.940  21.104
79043W        W79907  13.431   0.688  19.488
79044W        W79908  13.834   1.777  21.709
79045W        W79909  11.559   3.269  19.739
79046W        W79910  12.355   1.136  18.959
79047W        W79911  11.842   0.377  21.528
79048W        W79912  13.844   0.878  19.238
79049W        W79913  14.252   1.270  19.071
79050W        W79914  12.046   3.451  21.555
79051W        W79915  12.030   0.202  18.819
79052W        W79916  14.164   0.501  19.748
79053W        W79917  14.444   2.918  18.299
79054W        W79918  11.171   2.070  20.047
79055W        W79919  13.411   0.659  18.157
79056W        W79920  14.408   2.924  20.136
79057W        W79921  14.346   0.326  20.660
79058W        W79922  12.888   1.463  21.363
79059W        W79923  12.727   2.602  19.001
79060W        W79924  13.327   1.978  21.916
79061W        W79925  13.180   0.177  20.105
79062W        W79926  11.689   0.993  19.964
79063W        W79927  11.222   2.161  20.939
79064W        W79928  13.092   3.178  19.739
79065W        W79929  14.359   1.224  20.537
79066W        W79930  12.876   3.280  21.049
79067W        W79931  14.177   1.953  18.463
79068W        W79932  12.591   1.805  19.469
79069W        W79933  14.524   0.374  21.141
79070W        W79934  12.661   2.253  20.818
79071W        W79935  12.907   1.052  20.305
79072W        W79936  13.717   1.235  18.898
79073W        W79937  14.126   1.308  18.573
79074W        W79938  14.131   2.894  19.272
79075W        W79939  13.780   2.507  20.043
79076W        W79940  13.459   1.688  18.943
79077W        W79941  12.974   1.935  19.834
79078W        W79942  13.971   1.669  19.905
79079W        W79943  11.464   0.756  20.383
79080W        W79944  13.958   1.942  21.194
79081W        W79945  14.470   3.374  20.392
79082W        W79946  12.285   2.996  19.773
79083W        W79947  13.404   3.356  21.017
79084W        W79948  13.306   0.875  20.779
79085W        W79949  12.575   3.606  20.752
79086W        W79950  14.228   0.505  19.211
79087W        W79951  14.072   1.641  20.435
79088W        W79952  11.198   1.060  20.787
79089W        W79953  13.832   0.915  19.758
79090W        W79954  14.136   1.090  21.371
79091W        W79955  13.096   2.615  19.752
79092W        W79956  12.435   3.321  19.393
79093W        W79957  11.570   0.612  18.533
79094W        W79958  12.664   0.176  20.494
79095W        W79959  11.468   3.588  18.416
79096W        W79960  12.182   1.855  18.900
79097W        W79961  12.703   2.348  21.341
79098W        W79962  12.394   0.833  19.385
79099W        W79963  13.791   0.317  19.459
79100W        W79964  13.623   3.498  19.967
79101W        W79965  12.971   3.269  20.256
79102W        W79966  12.337   2.234  20.376
79103W        W79967  14.246   2.965  20.655
79104W        W79968  11.799   0.560  19.111
79105W        W79969  12.294   2.742  20.223
79106W        W79970  12.013   0.757  18.257
79107W        W79971  12.693   1.472  20.513
79108W        W79972  13.645   0.332  20.444
79109W        W79973  10.960   2.108  20.504
79110W        W79974  12.514   1.790  18.503
79111W        W79975  11.897   0.268  18.326
79112W        W79976  12.624   1.289  19.420
79113W        W79977  13.538   0.446  20.968
79114W        W79978  12.232   2.248  21.126
79115W        W79979  13.007   1.949  21.496
79116W        W79980  13.499   2.045  21.408
79117W        W79981  12.862   0.356  21.929
79118W        W79982  12.218   0.751  20.037
79119W        W79983  11.517   0.826  19.484
79120W        W79984  11.247   3.309  19.305
79121W        W79985  12.736   2.831  21.516
79122W        W79986  11.796   2.164  19.000
79123W        W79987  13.474   1.845  19.962
79124W        W79988  13.587   1.512  20.333
79125W        W79989  12.790   1.957  20.361
79126W        W79990  13.363   2.427  18.320
79127W        W79991  12.976   0.522  19.755
79128W        W79992  14.577   0.867  19.060
79129W        W79993  11.185   3.352  21.268
79130W        W79994  11.418   2.593  20.713
79131W        W79995  10.839   3.446  18.952
79132W        W79996  12.844   0.627  20.683
79133W        W79997  12.016   2.796  18.572
79134W        W79998  14.275   2.969  18.778
79135W        W79999  12.990   1.742  18.734
79136W        W80000  11.920   1.062  19.253
79137W        W80001  13.046   0.865  18.476
79138W        W80002  13.196   2.466  21.482
79139W        W80003  13.767   0.472  18.951
79140W        W80004  10.996   0.351  18.551
79141W        W80005  12.305   2.605  20.728
79142W        W80006  12.070   2.366  19.899
79143W        W80007  11.626   2.447  18.611
79144W        W80008  11.139   2.913  18.971
79145W        W80009  11.694   1.644  21.485
79146W        W80010  12.343   0.423  21.762
79147W        W80011  13.025   0.410  21.100
79148W        W80012  12.221   0.300  19.298
79149W        W80013  13.233   0.384  19.123
79150W        W80014  11.375   0.243  20.371
79151W        W80015  11.193   1.179  19.697
79152W        W80016  14.095   0.210  20.184
79153W        W80017  11.298   0.658  18.964
79154W        W80018  13.958   0.660  20.734
79155W        W80019  14.419   1.576  18.243
79156W        W80020  11.775   0.491  20.067
79157W        W80021  12.843   0.982  21.093
79158W        W80022  11.087   0.867  18.515
79159W        W80023  11.707   2.108  21.183
79160W        W80024  13.094   1.534  20.167
79161W        W80025  12.839   3.566  18.602
79162W        W80026  11.081   2.015  18.303
79163W        W80027  11.904   2.474  21.478
79164W        W80028  11.415   1.687  21.072
79165W        W80029  12.379   1.841  20.740
79166W        W80030  13.976   0.175  20.994
79167W        W80031  14.487   1.880  21.096
79168W        W80032  14.479   1.666  18.794
79169W        W80033  13.250   2.164  18.886
79170W        W80034  13.852   3.725  18.360
79171W        W80035  12.921   1.614  21.897
79172W        W80036  11.498   2.557  21.768
79173W        W80037  14.486   0.729  21.522
79174W        W80038  14.027   1.218  20.135
79175W        W80039  12.500   3.446  21.799
79176W        W80040  12.403   0.305  18.471
79177W        W80041  14.305   2.453  18.525
79178W        W80042  11.803   0.869  21.365
79179W        W80043  12.321   2.735  21.226
79180W        W80044  14.394   0.866  20.951
79181W        W80045  13.961   3.373  18.716
79182W        W80046  13.729   2.070  20.369
79183W        W80047  12.023   0.452  21.045
79184W        W80048  12.453   1.559  21.637
79185W        W80049  11.833   2.685  19.044
79186W        W80050  13.714   2.129  19.187
79187W        W80051  11.663   0.804  20.859
79188W        W80052  12.689   2.870  19.461
79189W        W80053  14.376   1.373  19.771
79190W        W80054  12.722   0.208  21.466
79191W        W80055  13.567   2.587  20.498
79192W        W80056  13.894   2.963  20.285
79193W        W80057  12.870   3.081  18.372
79194W        W80058  11.089   2.806  21.589
79195W        W80059  11.995   0.908  20.466
79196W        W80060  11.957   0.135  19.721
79197W        W80061  13.569   0.989  20.257
79198W        W80062  12.089   2.188  18.501
79199W        W80063  14.200   2.056  20.169
79200W        W80064  11.559   3.003  21.453
79201W        W80065  13.952   3.634  19.168
79202W        W80066  11.973   0.646  19.605
79203W        W80067  11.676   1.971  19.765
79204W        W80068  12.072   3.535  20.580
79205W        W80069  14.129   3.660  21.475
79206W        W80070  13.272   1.906  20.555
79207W        W80071  11.399   1.598  18.413
79208W        W80072  14.304   3.329  19.486
79209W        W80073  14.122   0.831  18.782
79210W        W80074  12.247   0.088  21.345
79211W        W80075  14.040   2.883  19.782
79212W        W80076  13.942   1.348  19.478
79213W        W80077  12.176   1.179  19.722
79214W        W80078  12.471   1.394  21.044
79215W        W80079  13.403   2.624  20.992
79216W        W80080  12.154   0.958  21.000
79217W        W80081  12.052   3.441  19.730
79218W        W80082  11.551   3.503  21.592
79219W        W80083  11.514   2.925  18.479
79220W        W80084  14.136   2.386  19.387
79221W        W80085  11.757   1.296  21.004
79222W        W80086  14.624   1.186  18.528
79223W        W80087  12.255   2.386  18.959
79224W        W80088  13.308   1.702  21.101
79225W        W80089  13.202   1.388  20.681
79226W        W80090  11.725   1.706  20.650
79227W        W80091  13.953   3.436  20.542
79228W        W80092  13.733   0.253  21.465
79229W        W80093  11.536   0.282  21.022
79230W        W80094  11.923   1.417  20.148
79231W        W80095  12.236   1.238  18.425
79232W        W80096  11.044   2.899  21.089
79233W        W80097  12.327   1.716  20.256
79234W        W80098  12.527   0.811  18.471
79235W        W80099  11.458   1.567  18.947
79236W        W80100  11.161   3.506  20.769
79237W        W80101  13.968   1.680  18.904
79238W        W80102  14.069   0.587  21.263
79239W        W80103  13.681   2.594  19.533
79240W        W80104  11.175   1.614  21.578
79241W        W80105  14.230   0.307  18.727
79242W        W80106  13.943   2.559  18.900
79243W        W80107  12.596   1.577  19.001
79244W        W80108  13.854   0.545  18.418
79245W        W80109  13.847   1.186  20.656
79246W        W80110  11.705   1.418  19.638
79247W        W80111  11.747   2.401  19.473
79248W        W80112  13.457   1.198  19.369
79249W        W80113  12.683   0.581  20.187
79250W        W80114  14.541   2.532  20.749
79251W        W80115  14.516   0.755  20.430
79252W        W80116  11.019   3.249  19.753
79253W        W80117  11.369   2.453  19.084
79254W        W80118  12.452   2.951  21.949
79255W        W80119  14.442   1.908  19.750
79256W        W80120  13.731   2.099  18.667
79257W        W80121  13.096   3.553  20.658
79258W        W80122  13.757   2.278  21.779
79259W        W80123  12.535   0.104  18.940
79260W        W80124  13.210   0.970  19.882
79261W        W80125  11.140   2.540  20.291
79262W        W80126  12.365   0.604  18.914
79263W        W80127  12.119   1.971  21.537
79264W        W80128  12.991   0.933  19.414
79265W        W80129  13.084   2.439  20.599
79266W        W80130  11.509   3.037  20.945
79267W        W80131  12.053   2.947  21.629
79268W        W80132  11.970   0.882  18.743
79269W        W80133  13.330   0.886  18.970
79270W        W80134  13.195   2.962  21.302
79271W        W80135  12.137   1.713  19.777
79272W        W80136  11.603   3.334  20.551
79273W        W80137  14.309   3.425  18.336
79274W        W80138  11.261   2.098  21.449
79275W        W80139  13.290   2.289  20.137
79276W        W80140  11.447   1.944  19.294
79277W        W80141  11.963   2.983  20.636
79278W        W80142  12.461   0.424  19.727
79279W        W80143  10.974   2.379  18.670
79280W        W80144  12.739   1.288  18.595
79281W        W80145  11.251   1.688  19.711
79282W        W80146  12.523   0.567  21.120
79283W        W80147  14.329   0.384  18.237
79284W        W80148  14.253   2.077  21.612
79285W        W80149  12.948   3.325  21.572
79286W        W80150  14.289   2.359  21.167
79287W        W80151  13.964   3.092  21.675
79288W        W80152  11.733   3.604  20.137
79289W        W80153  14.573   2.118  19.303
79290W        W80154  13.086   1.446  19.632
79291W        W80155  12.814   0.048  19.519
79292W        W80156  11.954   3.074  19.373
79293W        W80157  12.524   1.019  20.667
79294W        W80158  12.221   0.247  20.199
79295W        W80159  11.135   3.252  18.592
79296W        W80160  12.680   2.327  19.486
79297W        W80161  11.977   3.121  21.140
79298W        W80162  11.346   2.029  18.758
79299W        W80163  11.221   0.707  19.921
79300W        W80164  12.780   2.430  20.156
79301W        W80165  11.005   0.205  19.047
79302W        W80166  13.708   1.685  20.792
79303W        W80167  13.687   1.040  18.418
79304W        W80168  14.187   2.522  20.365
79305W        W80169  12.729   2.910  19.989
79306W        W80170  12.134   3.396  18.982
79307W        W80171  13.477   0.170  18.264
79308W        W80172  11.260   3.322  20.187
79309W        W80173  13.244   1.077  21.721
79310W        W80174  11.442   0.765  21.728
79311W        W80175  11.232   1.147  19.182
79312W        W80176  11.931   1.395  18.831
79313W        W80177  13.365   1.564  21.605
79314W        W80178  11.899   1.988  20.224
79315W        W80179  13.319   0.171  19.598
79316W        W80180  12.635   3.415  19.867
79317W        W80181  13.725   3.005  20.790
79318W        W80182  13.541   2.971  19.908
79319W        W80183  13.351   2.183  19.578
79320W        W80184  12.848   0.448  18.734
79321W        W80185  14.515   0.102  19.371
79322W        W80186  11.947   1.680  18.400
79323W        W80187  14.279   0.948  19.478
79324W        W80188  12.865   2.207  18.525
79325W        W80189  13.789   2.441  21.281
79326W        W80190  13.941   2.797  18.387
79327W        W80191  12.345   0.876  21.500
79328W        W80192  12.137   1.384  20.640
79329W        W80193  14.123   2.854  21.176
79330W        W80194  13.341   0.712  21.362
79331W        W80195  12.871   1.771  20.871
79332W        W80196  11.271   2.304  19.607
79333W        W80197  11.475   1.664  20.184
79334W        W80198  13.605   2.172  20.870
79335W        W80199  13.496   3.321  21.526
79336W        W80200  13.301   1.203  21.203
79337W        W80201  13.793   3.266  19.535
79338W        W80202  12.424   3.107  20.844
79339W        W80203  11.969   3.160  20.158
79340W        W80204  13.962   2.544  20.811
79341W        W80205  12.856   2.464  21.867
79342W        W80206  11.565   2.403  20.023
79343W        W80207  13.854   2.124  19.724
79344W        W80208  13.473   3.257  20.396
79345W        W80209  11.538   2.889  20.286
79346W        W80210  12.731   1.140  21.769
79347W        W80211  12.731   3.184  18.978
79348W        W80212  12.358   2.500  21.696
79349W        W80213  12.302   2.905  19.022
79350W        W80214  11.729   1.203  18.261
79351W        W80215  10.979   3.699  25.340
79352W        W80216  11.381   2.622  24.812
79353W        W80217  14.112   2.228  22.654
79354W        W80218  14.252   3.325  24.620
79355W        W80219  12.044   3.308  22.054
79356W        W80220  12.176   1.529  23.098
79357W        W80221  11.705   1.480  23.374
79358W        W80222  12.452   2.056  22.516
79359W        W80223  12.422   3.292  25.000
79360W        W80224  11.003   0.815  24.862
79361W        W80225  11.647   0.345  24.533
79362W        W80226  13.622   0.512  23.593
79363W        W80227  13.141   1.334  22.288
79364W        W80228  13.785   0.885  25.228
79365W        W80229  11.139   0.531  24.452
79366W        W80230  11.128   3.227  25.472
79367W        W80231  12.471   2.478  22.207
79368W        W80232  11.148   1.238  23.949
79369W        W80233  12.153   1.408  25.101
79370W        W80234  14.438   1.080  23.505
79371W        W80235  14.178   2.063  24.395
79372W        W80236  12.649   1.541  23.422
79373W        W80237  13.197   2.797  23.940
79374W        W80238  11.578   2.176  24.103
79375W        W80239  10.782   1.600  23.839
79376W        W80240  12.121   1.810  24.756
79377W        W80241  14.277   1.564  25.095
79378W        W80242  11.859   2.883  23.645
79379W        W80243  13.028   2.672  24.669
79380W        W80244  12.491   1.250  23.855
79381W        W80245  12.424   2.014  23.471
79382W        W80246  13.295   2.963  25.392
79383W        W80247  12.594   2.158  25.504
79384W        W80248  12.624   1.988  24.938
79385W        W80249  11.016   1.128  25.288
79386W        W80250  13.728   2.782  25.150
79387W        W80251  11.476   0.295  22.925
79388W        W80252  11.891   2.591  24.082
79389W        W80253  14.369   2.446  23.477
79390W        W80254  14.059   0.795  23.768
79391W        W80255  14.168   0.938  21.893
79392W        W80256  14.734   1.571  24.377
79393W        W80257  12.605   3.195  24.138
79394W        W80258  14.209   2.729  22.423
79395W        W80259  11.399   3.558  22.633
79396W        W80260  11.765   3.569  23.030
79397W        W80261  11.918   0.552  24.127
79398W        W80262  14.225   1.444  24.586
79399W        W80263  13.554   1.667  23.132
79400W        W80264  13.596   1.570  22.127
79401W        W80265  12.777   2.692  24.201
79402W        W80266  12.808   1.002  23.528
79403W        W80267  13.093   3.109  24.400
79404W        W80268  14.026   1.783  22.922
79405W        W80269  12.933   0.486  22.922
79406W        W80270  11.754   3.171  22.483
79407W        W80271  11.063   0.612  23.122
79408W        W80272  13.643   1.319  23.519
79409W        W80273  11.341   2.960  23.740
79410W        W80274  12.479   3.331  22.320
79411W        W80275  13.791   1.265  21.751
79412W        W80276  11.121   3.059  24.191
79413W        W80277  11.839   2.729  24.586
79414W        W80278  11.941   1.963  23.274
79415W        W80279  12.405   0.432  24.246
79416W        W80280  14.522   0.215  23.618
79417W        W80281  11.674   2.072  21.771
79418W        W80282  11.439   0.971  22.205
79419W        W80283  11.475   2.840  23.245
79420W        W80284  12.396   2.531  23.457
79421W        W80285  13.861   3.239  24.945
79422W        W80286  12.772   0.906  22.628
79423W        W80287  14.107   3.380  23.524
79424W        W80288  13.824   1.353  24.919
79425W        W80289  14.570   2.857  23.238
79426W        W80290  13.171   2.179  24.739
79427W        W80291  11.068   1.552  22.997
79428W        W80292  12.026   2.204  24.387
79429W        W80293  13.156   1.424  22.815
79430W        W80294  13.068   1.838  23.113
79431W        W80295  11.443   1.318  24.384
79432W        W80296  11.447   1.267  24.957
79433W        W80297  11.301   0.245  23.422
79434W        W80298  13.211   0.575  23.915
79435W        W80299  12.892   0.713  25.141
79436W        W80300  13.326   0.486  22.397
79437W        W80301  14.431   3.191  25.083
79438W        W80302  13.206   0.263  25.149
79439W        W80303  14.189   2.579  25.311
79440W        W80304  13.850   0.787  24.727
79441W        W80305  13.429   0.643  23.077
79442W        W80306  13.906   1.843  25.386
79443W        W80307  11.606   3.338  23.508
79444W        W80308  12.243   1.022  22.693
79445W        W80309  11.827   0.436  25.057
79446W        W80310  13.878   0.996  22.741
79447W        W80311  14.257   1.368  22.678
79448W        W80312  12.001   3.546  25.227
79449W        W80313  11.908   0.211  22.579
79450W        W80314  14.303   0.584  23.357
79451W        W80315  14.378   2.898  21.950
79452W        W80316  11.179   2.082  23.717
79453W        W80317  13.350   0.590  21.890
79454W        W80318  14.446   2.947  23.746
79455W        W80319  14.349   0.293  24.284
79456W        W80320  13.005   1.601  25.060
79457W        W80321  12.608   2.543  22.703
79458W        W80322  13.407   1.962  25.566
79459W        W80323  13.182   0.067  23.687
79460W        W80324  11.531   1.075  23.638
79461W        W80325  11.269   2.199  24.523
79462W        W80326  13.016   3.277  23.398
79463W        W80327  14.151   1.067  24.230
79464W        W80328  13.040   3.421  24.846
79465W        W80329  14.165   2.290  22.117
79466W        W80330  12.567   1.838  22.979
79467W        W80331  14.517   0.287  24.782
79468W        W80332  12.698   2.300  24.533
79469W        W80333  13.075   1.068  23.981
79470W        W80334  13.681   1.482  22.652
79471W        W80335  13.974   1.237  22.273
79472W        W80336  13.879   3.065  22.691
79473W        W80337  13.807   2.435  23.615
79474W        W80338  13.286   1.815  22.464
79475W        W80339  12.943   1.960  23.592
79476W        W80340  13.950   1.753  23.464
79477W        W80341  11.435   0.833  24.108
79478W        W80342  13.963   1.853  24.832
79479W        W80343  14.372   3.408  23.972
79480W        W80344  12.325   3.030  23.454
79481W        W80345  13.523   3.425  24.591
79482W        W80346  13.299   0.853  24.435
79483W        W80347  12.630   3.534  24.561
79484W        W80348  14.248   0.511  22.832
79485W        W80349  14.285   1.647  24.114
79486W        W80350  11.033   1.024  24.390
79487W        W80351  13.869   0.849  23.274
79488W        W80352  14.250   1.064  24.965
79489W        W80353  13.172   2.626  23.428
79490W        W80354  12.544   3.389  23.159
79491W        W80355  11.479   0.452  22.283
79492W        W80356  12.762   0.328  23.858
79493W        W80357  11.531   3.496  22.129
79494W        W80358  12.019   1.917  22.762
79495W        W80359  12.692   2.489  25.039
79496W        W80360  12.529   0.792  23.077
79497W        W80361  13.897   0.307  23.189
79498W        W80362  13.573   3.440  23.632
79499W        W80363  13.052   3.336  23.925
79500W        W80364  12.416   2.271  24.040
79501W        W80365  14.295   2.959  24.267
79502W        W80366  11.926   0.598  22.914
79503W        W80367  12.337   2.771  23.916
79504W        W80368  11.953   0.768  21.867
79505W        W80369  12.702   1.378  24.299
79506W        W80370  13.578   0.247  24.053
79507W        W80371  10.922   2.040  24.171
79508W        W80372  12.457   1.705  22.130
79509W        W80373  11.912   0.292  22.046
79510W        W80374  12.637   1.309  22.944
79511W        W80375  13.527   0.404  24.549
79512W        W80376  12.239   2.326  24.826
79513W        W80377  13.031   2.103  25.235
79514W        W80378  13.535   2.050  25.077
79515W        W80379  12.869   0.343  25.551
79516W        W80380  12.017   1.000  23.811
79517W        W80381  11.543   0.723  23.236
79518W        W80382  11.274   3.349  23.106
79519W        W80383  12.888   2.967  25.068
79520W        W80384  12.083   2.417  22.566
79521W        W80385  13.442   1.791  23.651
79522W        W80386  13.541   1.423  24.003
79523W        W80387  12.895   2.073  24.108
79524W        W80388  13.361   2.490  22.027
79525W        W80389  13.043   0.506  23.425
79526W        W80390  14.688   1.052  22.654
79527W        W80391  11.153   3.355  24.940
79528W        W80392  11.402   2.643  24.281
79529W        W80393  10.895   3.417  22.732
79530W        W80394  12.840   0.690  24.265
79531W        W80395  12.231   2.900  22.447
79532W        W80396  14.005   3.178  22.210
79533W        W80397  12.792   1.652  22.535
79534W        W80398  11.897   1.078  23.100
79535W        W80399  12.983   0.852  22.144
79536W        W80400  13.284   2.532  25.102
79537W        W80401  13.756   0.497  22.697
79538W        W80402  11.058   0.155  22.183
79539W        W80403  12.316   2.634  24.418
79540W        W80404  12.017   2.274  23.697
79541W        W80405  11.992   2.643  22.045
79542W        W80406  11.043   2.951  22.872
79543W        W80407  11.710   1.698  25.081
79544W        W80408  12.244   0.334  25.386
79545W        W80409  13.030   0.441  24.695
79546W        W80410  12.211   0.170  23.025
79547W        W80411  13.154   0.063  22.699
79548W        W80412  11.358   0.331  24.036
79549W        W80413  11.159   1.105  23.269
79550W        W80414  14.061   0.272  23.839
79551W        W80415  11.478   0.785  22.707
79552W        W80416  13.927   0.589  24.248
79553W        W80417  14.251   1.524  21.950
79554W        W80418  11.673   0.571  23.699
79555W        W80419  12.859   1.047  24.691
79556W        W80420  10.995   0.669  22.177
79557W        W80421  11.726   2.154  24.802
79558W        W80422  13.033   1.572  23.917
79559W        W80423  12.931   3.324  22.084
79560W        W80424  11.158   1.979  21.951
79561W        W80425  11.829   2.581  25.087
79562W        W80426  11.341   1.711  24.696
79563W        W80427  12.458   1.874  24.386
79564W        W80428  14.005   0.264  24.688
79565W        W80429  14.513   1.868  24.740
79566W        W80430  14.637   1.581  22.389
79567W        W80431  12.931   2.129  22.711
79568W        W80432  13.825   3.549  21.868
79569W        W80433  12.945   1.752  25.609
79570W        W80434  11.358   2.537  25.329
79571W        W80435  14.668   0.676  25.309
79572W        W80436  14.064   1.320  23.788
79573W        W80437  12.450   3.513  25.468
79574W        W80438  12.361   0.160  22.287
79575W        W80439  13.847   2.710  22.056
79576W        W80440  11.897   0.963  24.997
79577W        W80441  12.269   2.817  24.925
79578W        W80442  14.342   0.728  24.571
79579W        W80443  13.598   3.538  22.351
79580W        W80444  13.784   2.133  24.038
79581W        W80445  12.050   0.658  24.612
79582W        W80446  12.526   1.662  25.334
79583W        W80447  11.753   2.750  22.803
79584W        W80448  13.614   2.074  22.797
79585W        W80449  11.510   0.847  24.650
79586W        W80450  12.736   2.831  23.194
79587W        W80451  14.485   1.474  23.128
79588W        W80452  12.680   0.237  25.071
79589W        W80453  13.674   2.659  24.083
79590W        W80454  13.962   3.066  23.905
79591W        W80455  12.816   2.853  22.294
79592W        W80456  11.010   2.862  25.142
79593W        W80457  11.867   1.034  24.306
79594W        W80458  11.801   0.255  23.321
79595W        W80459  13.602   0.912  23.986
79596W        W80460  12.140   2.126  22.042
79597W        W80461  14.233   2.053  23.779
79598W        W80462  11.518   3.024  25.132
79599W        W80463  13.976   3.568  22.783
79600W        W80464  12.097   0.666  23.401
79601W        W80465  11.654   1.881  23.689
79602W        W80466  12.279   3.607  24.204
79603W        W80467  14.139   3.583  25.202
79604W        W80468  13.353   1.871  24.211
79605W        W80469  11.332   1.473  22.070
79606W        W80470  14.236   3.196  23.055
79607W        W80471  14.238   0.806  22.413
79608W        W80472  12.224   0.216  24.808
79609W        W80473  14.058   2.859  23.426
79610W        W80474  13.989   1.333  23.145
79611W        W80475  12.320   1.132  23.391
79612W        W80476  12.562   1.515  24.781
79613W        W80477  13.553   2.611  24.657
79614W        W80478  12.318   1.084  24.731
79615W        W80479  12.110   3.496  23.436
79616W        W80480  11.491   3.542  25.289
79617W        W80481  11.622   3.024  21.964
79618W        W80482  14.132   2.694  22.940
79619W        W80483  11.864   1.370  24.684
79620W        W80484  14.539   1.136  22.167
79621W        W80485  12.290   2.272  23.022
79622W        W80486  13.445   1.694  24.720
79623W        W80487  13.207   1.370  24.386
79624W        W80488  11.741   1.766  24.387
79625W        W80489  13.913   3.473  24.252
79626W        W80490  13.726   0.361  25.174
79627W        W80491  11.327   0.411  24.927
79628W        W80492  11.752   1.434  23.958
79629W        W80493  12.237   1.186  21.924
79630W        W80494  10.978   2.927  24.651
79631W        W80495  12.551   1.755  23.899
79632W        W80496  12.438   0.742  22.178
79633W        W80497  11.711   1.509  22.859
79634W        W80498  11.176   3.560  24.465
79635W        W80499  14.099   1.772  22.386
79636W        W80500  14.198   0.575  25.077
79637W        W80501  13.652   2.655  23.150
79638W        W80502  11.136   1.635  25.167
79639W        W80503  14.238   0.289  22.308
79640W        W80504  13.733   2.562  22.571
79641W        W80505  12.294   1.522  22.587
79642W        W80506  13.817   0.579  22.165
79643W        W80507  13.694   1.192  24.446
79644W        W80508  11.216   1.555  23.552
79645W        W80509  11.906   2.540  23.267
79646W        W80510  13.509   1.156  23.061
79647W        W80511  12.452   0.725  23.783
79648W        W80512  14.577   2.527  24.332
79649W        W80513  14.507   0.720  24.028
79650W        W80514  11.053   3.363  23.570
79651W        W80515  11.231   2.492  22.782
79652W        W80516  11.497   0.390  25.480
79653W        W80517  12.529   2.982  25.425
79654W        W80518  14.389   1.959  23.269
79655W        W80519  13.700   2.103  22.274
79656W        W80520  13.108   3.633  24.374
79657W        W80521  13.754   2.350  25.457
79658W        W80522  12.629   0.085  22.746
79659W        W80523  13.326   0.926  23.520
79660W        W80524  11.053   2.557  23.887
79661W        W80525  12.365   0.522  22.658
79662W        W80526  12.171   2.024  25.219
79663W        W80527  13.028   0.978  23.074
79664W        W80528  13.251   2.405  24.286
79665W        W80529  11.469   3.118  24.590
79666W        W80530  12.017   3.018  25.343
79667W        W80531  11.931   0.708  22.391
79668W        W80532  13.312   0.948  22.627
79669W        W80533  13.364   3.022  24.865
79670W        W80534  12.148   1.572  23.614
79671W        W80535  11.793   3.500  24.345
79672W        W80536  14.319   3.405  21.888
79673W        W80537  11.277   2.110  25.039
79674W        W80538  13.324   2.281  23.800
79675W        W80539  11.656   2.244  22.931
79676W        W80540  12.159   3.125  24.400
79677W        W80541  12.538   0.377  23.377
79678W        W80542  11.035   2.166  22.429
79679W        W80543  12.619   1.236  22.272
79680W        W80544  11.405   1.892  23.217
79681W        W80545  12.554   0.618  24.714
79682W        W80546  14.157   0.434  21.785
79683W        W80547  14.319   2.077  25.179
79684W        W80548  12.938   3.388  25.369
79685W        W80549  14.396   2.375  24.770
79686W        W80550  14.052   3.075  25.415
79687W        W80551  11.828   3.652  23.851
79688W        W80552  14.509   2.365  22.987
79689W        W80553  13.148   1.404  23.389
79690W        W80554  12.900   0.034  23.206
79691W        W80555  11.905   3.098  23.163
79692W        W80556  12.373   0.941  24.250
79693W        W80557  12.210   0.257  23.777
79694W        W80558  11.162   3.168  22.346
79695W        W80559  12.793   2.291  23.204
79696W        W80560  11.918   3.198  24.847
79697W        W80561  11.363   1.856  22.687
79698W        W80562  11.177   0.693  23.637
79699W        W80563  12.812   2.434  23.746
79700W        W80564  11.077   0.429  22.630
79701W        W80565  13.823   1.683  24.351
79702W        W80566  13.528   1.010  22.150
79703W        W80567  14.189   2.545  23.958
79704W        W80568  12.769   2.944  23.705
79705W        W80569  12.174   3.336  22.776
79706W        W80570  13.306   0.088  22.051
79707W        W80571  11.373   3.454  23.979
79708W        W80572  13.166   1.142  25.341
79709W        W80573  11.457   0.825  25.194
79710W        W80574  11.308   1.315  22.590
79711W        W80575  11.891   1.238  22.315
79712W        W80576  13.491   1.541  25.272
79713W        W80577  12.064   1.873  24.009
79714W        W80578  13.396   0.146  23.196
79715W        W80579  12.584   3.441  23.678
79716W        W80580  13.820   3.013  24.474
79717W        W80581  13.571   2.915  23.610
79718W        W80582  13.450   2.174  23.296
79719W        W80583  12.813   0.438  22.422
79720W        W80584  14.493   0.143  23.089
79721W        W80585  11.985   1.636  21.915
79722W        W80586  14.333   0.976  23.014
79723W        W80587  12.871   2.051  22.193
79724W        W80588  13.917   2.356  24.936
79725W        W80589  13.535   3.138  22.010
79726W        W80590  12.349   0.779  25.168
79727W        W80591  12.187   1.443  24.277
79728W        W80592  14.160   2.832  24.839
79729W        W80593  13.383   0.713  24.952
79730W        W80594  10.977   1.324  24.790
79731W        W80595  12.940   1.778  24.544
79732W        W80596  11.226   2.374  23.283
79733W        W80597  11.324   1.719  24.063
79734W        W80598  13.657   2.137  24.537
79735W        W80599  13.447   3.411  25.185
79736W        W80600  13.331   1.211  24.858
79737W        W80601  13.732   3.196  23.183
79738W        W80602  12.633   3.006  24.616
79739W        W80603  12.131   3.241  23.890
79740W        W80604  14.020   2.536  24.444
79741W        W80605  12.940   2.565  25.490
79742W        W80606  11.539   2.476  23.679
79743W        W80607  13.975   2.242  23.164
79744W        W80608  13.507   3.192  24.099
79745W        W80609  11.687   3.057  24.117
79746W        W80610  12.662   1.188  25.184
79747W        W80611  12.635   3.084  22.744
79748W        W80612  12.265   2.533  25.369
79749W        W80613  12.259   2.795  22.973
79750W        W80614  11.701   1.214  21.790
79751W        W80615  11.034   3.661  28.892
79752W        W80616  11.528   2.542  28.518
79753W        W80617  14.186   2.188  26.192
79754W        W80618  14.434   3.252  28.167
79755W        W80619  12.028   3.375  25.741
79756W        W80620  12.050   1.649  26.669
79757W        W80621  11.864   1.251  26.936
79758W        W80622  12.567   2.006  26.320
79759W        W80623  12.505   3.308  28.304
79760W        W80624  11.195   0.882  28.466
79761W        W80625  11.704   0.089  28.271
79762W        W80626  13.618   0.572  27.222
79763W        W80627  13.212   1.368  25.831
79764W        W80628  13.760   0.838  28.870
79765W        W80629  11.134   0.519  28.042
79766W        W80630  11.298   2.968  28.804
79767W        W80631  12.549   2.632  25.826
79768W        W80632  11.119   1.201  27.464
79769W        W80633  11.998   1.261  28.700
79770W        W80634  14.447   1.104  27.206
79771W        W80635  14.307   2.086  28.053
79772W        W80636  12.741   1.429  27.105
79773W        W80637  13.225   2.747  27.488
79774W        W80638  11.532   2.144  27.800
79775W        W80639  10.735   1.544  27.315
79776W        W80640  12.058   1.606  28.327
79777W        W80641  14.264   1.538  28.749
79778W        W80642  11.884   2.858  27.183
79779W        W80643  13.065   2.544  28.270
79780W        W80644  12.435   1.155  27.418
79781W        W80645  12.512   2.037  27.224
79782W        W80646  13.398   2.985  28.986
79783W        W80647  12.576   1.626  28.261
79784W        W80648  10.940   1.166  28.912
79785W        W80649  13.824   2.784  28.644
79786W        W80650  11.396   0.179  26.483
79787W        W80651  11.987   2.696  27.679
79788W        W80652  14.525   2.479  27.071
79789W        W80653  14.017   0.895  27.395
79790W        W80654  14.215   0.888  25.525
79791W        W80655  14.564   1.638  27.882
79792W        W80656  12.554   3.329  27.686
79793W        W80657  14.279   2.671  26.332
79794W        W80658  11.452   3.655  26.285
79795W        W80659  11.816   3.469  26.611
79796W        W80660  11.608   0.369  27.837
79797W        W80661  14.301   1.370  28.245
79798W        W80662  13.632   1.689  26.742
79799W        W80663  13.681   1.575  25.784
79800W        W80664  12.861   2.537  27.785
79801W        W80665  12.777   0.924  27.016
79802W        W80666  13.278   2.919  27.973
79803W        W80667  14.138   1.804  26.549
79804W        W80668  12.992   0.479  26.558
79805W        W80669  11.727   3.209  26.161
79806W        W80670  11.141   0.589  26.664
79807W        W80671  13.702   1.296  27.155
79808W        W80672  11.366   2.836  27.073
79809W        W80673  12.487   3.200  25.893
79810W        W80674  13.968   1.327  25.423
79811W        W80675  11.151   3.005  27.910
79812W        W80676  11.918   2.746  28.220
79813W        W80677  12.078   2.083  26.951
79814W        W80678  12.081   0.471  27.654
79815W        W80679  14.494   0.159  27.285
79816W        W80680  11.690   2.130  25.363
79817W        W80681  11.402   0.910  25.699
79818W        W80682  11.583   2.983  26.641
79819W        W80683  12.300   2.484  26.673
79820W        W80684  14.046   3.234  28.510
79821W        W80685  12.924   1.080  26.145
79822W        W80686  14.126   3.334  26.968
79823W        W80687  13.871   1.305  28.515
79824W        W80688  14.678   2.773  26.651
79825W        W80689  13.219   2.044  28.211
79826W        W80690  10.808   1.755  26.441
79827W        W80691  12.000   2.272  27.966
79828W        W80692  13.267   1.428  26.370
79829W        W80693  13.026   1.849  26.556
79830W        W80694  11.492   1.278  27.827
79831W        W80695  11.443   1.189  28.846
79832W        W80696  11.250   0.220  27.027
79833W        W80697  13.243   0.524  27.577
79834W        W80698  12.739   0.704  28.674
79835W        W80699  13.321   0.530  25.992
79836W        W80700  14.503   3.136  28.707
79837W        W80701  13.243   0.198  28.669
79838W        W80702  14.288   2.598  28.840
79839W        W80703  13.806   0.807  28.364
79840W        W80704  13.494   0.645  26.693
79841W        W80705  13.888   1.828  28.967
79842W        W80706  11.658   3.294  27.092
79843W        W80707  12.408   1.043  26.083
79844W        W80708  11.835   0.401  28.765
79845W        W80709  13.972   0.977  26.397
79846W        W80710  14.329   1.351  26.331
79847W        W80711  12.104   3.394  28.802
79848W        W80712  12.120   0.044  26.204
79849W        W80713  14.338   0.588  27.045
79850W        W80714  14.504   2.892  25.619
79851W        W80715  11.062   1.944  27.251
79852W        W80716  13.338   0.646  25.468
79853W        W80717  14.467   2.945  27.333
79854W        W80718  14.270   0.309  27.935
79855W        W80719  12.869   1.213  28.739
79856W        W80720  12.747   2.495  26.320
79857W        W80721  13.387   2.060   0.001
79858W        W80722  13.184  28.954  27.221
79859W        W80723  11.565   1.035  27.271
79860W        W80724  11.228   2.218  28.234
79861W        W80725  13.023   3.222  26.847
79862W        W80726  14.317   1.091  27.807
79863W        W80727  13.022   3.350  28.222
79864W        W80728  14.236   2.115  25.681
79865W        W80729  12.544   1.779  26.778
79866W        W80730  14.509   0.275  28.426
79867W        W80731  12.726   2.144  28.087
79868W        W80732  12.969   1.007  27.503
79869W        W80733  13.779   1.468  26.301
79870W        W80734  14.010   1.196  25.926
79871W        W80735  13.879   2.976  26.423
79872W        W80736  13.642   2.634  27.196
79873W        W80737  13.330   1.852  26.076
79874W        W80738  12.991   1.885  27.097
79875W        W80739  14.035   1.723  27.078
79876W        W80740  11.358   0.779  27.645
79877W        W80741  14.012   1.804  28.401
79878W        W80742  14.243   3.390  27.507
79879W        W80743  12.378   3.002  27.122
79880W        W80744  13.520   3.445  28.203
79881W        W80745  13.370   0.778  28.027
79882W        W80746  12.627   3.731  28.019
79883W        W80747  14.250   0.545  26.512
79884W        W80748  14.028   1.665  27.904
79885W        W80749  11.055   1.029  27.971
79886W        W80750  13.923   0.860  26.899
79887W        W80751  14.296   1.040  28.655
79888W        W80752  13.175   2.662  26.964
79889W        W80753  12.524   3.311  26.714
79890W        W80754  11.452   0.492  26.016
79891W        W80755  12.814   0.229  27.472
79892W        W80756  11.559   3.585  25.791
79893W        W80757  12.059   1.886  26.195
79894W        W80758  12.622   2.474  28.537
79895W        W80759  12.618   0.849  26.517
79896W        W80760  13.898   0.347  26.845
79897W        W80761  13.785   3.545  27.316
79898W        W80762  13.066   3.293  27.677
79899W        W80763  12.419   2.302  27.654
79900W        W80764  14.184   2.967  27.797
79901W        W80765  11.822   0.462  26.384
79902W        W80766  12.478   2.814  27.583
79903W        W80767  11.902   0.746  25.478
79904W        W80768  12.697   1.244  27.894
79905W        W80769  13.675   0.287  27.772
79906W        W80770  11.012   2.026  27.784
79907W        W80771  12.444   1.776  25.846
79908W        W80772  11.942   0.359  25.829
79909W        W80773  12.802   1.368  26.590
79910W        W80774  13.535   0.381  28.287
79911W        W80775  12.300   2.082  28.358
79912W        W80776  12.780   1.977  28.602
79913W        W80777  13.606   2.081  28.540
79914W        W80778  12.900   0.344   0.040
79915W        W80779  12.059   0.853  27.220
79916W        W80780  11.656   0.748  26.841
79917W        W80781  11.312   3.402  26.733
79918W        W80782  12.843   2.950  28.512
79919W        W80783  11.716   2.273  26.095
79920W        W80784  13.504   1.796  27.226
79921W        W80785  13.624   1.479  27.630
79922W        W80786  12.891   2.065  27.585
79923W        W80787  13.359   2.416  25.814
79924W        W80788  13.102   0.474  27.072
79925W        W80789  14.627   0.915  26.279
79926W        W80790  11.172   3.391  28.487
79927W        W80791  11.473   2.611  28.008
79928W        W80792  10.976   3.604  26.423
79929W        W80793  12.818   0.642  27.849
79930W        W80794  12.088   2.883  25.883
79931W        W80795  14.186   3.074  26.012
79932W        W80796  12.859   1.622  26.117
79933W        W80797  12.005   1.134  26.441
79934W        W80798  12.889   0.854  25.660
79935W        W80799  13.381   2.523  28.714
79936W        W80800  13.787   0.512  26.268
79937W        W80801  11.150   0.122  25.771
79938W        W80802  12.406   2.582  28.087
79939W        W80803  12.249   2.500  27.208
79940W        W80804  11.795   2.577  25.609
79941W        W80805  11.162   3.038  26.342
79942W        W80806  11.640   1.643  28.684
79943W        W80807  12.388   0.409  28.938
79944W        W80808  13.005   0.451  28.286
79945W        W80809  12.225   0.212  26.663
79946W        W80810  13.191   0.090  26.293
79947W        W80811  11.187   0.298  27.542
79948W        W80812  11.269   1.080  26.801
79949W        W80813  14.050   0.361  27.429
79950W        W80814  11.508   0.902  26.360
79951W        W80815  13.935   0.711  27.863
79952W        W80816  14.374   1.622  25.586
79953W        W80817  11.653   0.524  27.314
79954W        W80818  12.941   0.972  28.264
79955W        W80819  10.971   0.617  25.803
79956W        W80820  11.739   2.051  28.347
79957W        W80821  13.120   1.514  27.454
79958W        W80822  12.886   3.528  25.902
79959W        W80823  11.186   1.972  25.565
79960W        W80824  12.047   2.448  28.613
79961W        W80825  11.366   1.725  28.132
79962W        W80826  12.314   1.864  27.897
79963W        W80827  13.998   0.192  28.355
79964W        W80828  14.570   1.821  28.393
79965W        W80829  14.725   1.963  25.783
79966W        W80830  13.245   2.301  26.332
79967W        W80831  13.801   3.516  25.579
79968W        W80832  13.049   1.649  28.967
79969W        W80833  11.679   2.388  28.981
79970W        W80834  14.615   0.685  28.887
79971W        W80835  14.115   1.407  27.466
79972W        W80836  12.600   3.319  28.814
79973W        W80837  12.459   0.205  25.849
79974W        W80838  14.134   2.588  25.826
79975W        W80839  11.700   0.844  28.577
79976W        W80840  12.311   2.909  28.565
79977W        W80841  14.308   0.764  28.224
79978W        W80842  13.734   3.341  26.056
79979W        W80843  13.746   2.242  27.553
79980W        W80844  11.967   0.536  28.189
79981W        W80845  12.445   1.567  28.757
79982W        W80846  11.886   2.712  26.333
79983W        W80847  13.715   2.082  26.427
79984W        W80848  11.549   0.825  28.099
79985W        W80849  12.700   2.805  26.767
79986W        W80850  14.521   1.497  26.832
79987W        W80851  12.706   0.163  28.593
79988W        W80852  13.686   2.755  27.697
79989W        W80853  13.912   3.045  27.343
79990W        W80854  12.940   3.012  25.765
79991W        W80855  11.087   2.483  28.855
79992W        W80856  11.865   0.946  27.696
79993W        W80857  11.737   0.242  26.852
79994W        W80858  13.533   0.971  27.571
79995W        W80859  12.102   2.159  25.716
79996W        W80860  14.217   2.080  27.396
79997W        W80861  11.814   2.927  28.738
79998W        W80862  13.999   3.500  26.482
79999W        W80863  12.161   0.717  26.729
80000W        W80864  11.616   1.921  27.138
80001W        W80865  12.062   3.550  27.918
80002W        W80866  14.192   3.609  28.841
80003W        W80867  13.372   1.903  27.720
80004W        W80868  11.291   1.436  25.614
80005W        W80869  14.358   3.142  26.533
80006W        W80870  14.219   0.731  26.018
80007W        W80871  12.192   0.152  28.519
80008W        W80872  14.147   2.811  26.901
80009W        W80873  14.034   1.345  26.755
80010W        W80874  12.365   1.210  26.820
80011W        W80875  12.468   1.140  28.405
80012W        W80876  13.592   2.543  28.245
80013W        W80877  12.002   1.063  28.205
80014W        W80878  12.146   3.456  27.040
80015W        W80879  11.599   3.418  28.753
80016W        W80880  11.600   3.079  25.654
80017W        W80881  14.128   2.333  26.686
80018W        W80882  11.564   1.285  28.338
80019W        W80883  14.517   1.197  25.861
80020W        W80884  12.243   2.382  26.159
80021W        W80885  13.072   1.572  28.419
80022W        W80886  13.235   1.263  27.906
80023W        W80887  11.814   1.724  27.888
80024W        W80888  14.006   3.461  27.976
80025W        W80889  13.724   0.302  28.806
80026W        W80890  11.375   0.398  28.528
80027W        W80891  11.820   1.453  27.438
80028W        W80892  12.233   1.156  25.541
80029W        W80893  11.066   2.735  28.372
80030W        W80894  12.601   1.633  27.550
80031W        W80895  12.387   0.694  25.714
80032W        W80896  11.557   1.502  26.603
80033W        W80897  11.283   3.496  28.007
80034W        W80898  14.127   1.712  26.017
80035W        W80899  14.156   0.554  28.698
80036W        W80900  13.655   2.555  26.684
80037W        W80901  11.129   1.634  28.770
80038W        W80902  14.166   0.227  26.003
80039W        W80903  13.760   2.531  26.170
80040W        W80904  12.397   1.502  26.320
80041W        W80905  13.811   0.571  25.713
80042W        W80906  13.807   1.188  28.009
80043W        W80907  11.366   1.481  27.107
80044W        W80908  11.795   2.521  26.815
80045W        W80909  13.573   1.161  26.676
80046W        W80910  12.520   0.649  27.400
80047W        W80911  14.545   2.550  27.956
80048W        W80912  14.455   0.650  27.580
80049W        W80913  11.041   3.267  27.154
80050W        W80914  11.393   2.508  26.458
80051W        W80915  11.533   0.188   0.132
80052W        W80916  12.691   2.838  28.995
80053W        W80917  14.445   1.999  26.920
80054W        W80918  13.771   2.081  25.904
80055W        W80919  13.180   3.739  27.916
80056W        W80920  13.851   2.331  28.917
80057W        W80921  12.643   0.130  26.326
80058W        W80922  13.303   0.964  27.096
80059W        W80923  11.228   2.388  27.463
80060W        W80924  12.301   0.542  26.227
80061W        W80925  12.044   1.933  28.774
80062W        W80926  13.112   0.974  26.613
80063W        W80927  13.339   2.391  27.838
80064W        W80928  11.491   3.035  28.324
80065W        W80929  12.184   2.870   0.090
80066W        W80930  11.914   0.849  25.998
80067W        W80931  13.487   0.993  26.186
80068W        W80932  13.376   2.994  28.464
80069W        W80933  12.235   1.593  27.163
80070W        W80934  11.719   3.151  27.882
80071W        W80935  14.317   3.426  25.668
80072W        W80936  11.364   2.077  28.710
80073W        W80937  13.283   2.266  27.319
80074W        W80938  11.679   2.050  26.612
80075W        W80939  12.231   3.052  27.966
80076W        W80940  12.601   0.450  26.913
80077W        W80941  11.002   2.294  26.046
80078W        W80942  12.686   1.321  25.722
80079W        W80943  11.214   1.848  26.775
80080W        W80944  12.486   0.513  28.249
80081W        W80945  14.311   0.388  25.547
80082W        W80946  14.303   2.062  28.757
80083W        W80947  13.100   3.333  28.746
80084W        W80948  14.572   2.389  28.459
80085W        W80949  14.065   3.038   0.023
80086W        W80950  11.773   3.633  27.477
80087W        W80951  14.602   2.271  26.492
80088W        W80952  13.215   1.447  26.913
80089W        W80953  12.880   0.017  26.778
80090W        W80954  12.086   3.017  26.708
80091W        W80955  12.348   0.861  27.877
80092W        W80956  12.137   0.339  27.158
80093W        W80957  11.114   3.389  25.967
80094W        W80958  12.788   2.264  26.794
80095W        W80959  11.956   3.256  28.344
80096W        W80960  11.298   1.933  26.278
80097W        W80961  11.170   0.719  27.168
80098W        W80962  12.780   2.487  27.272
80099W        W80963  10.994   0.333  26.222
80100W        W80964  13.549   1.626  28.167
80101W        W80965  13.585   1.056  25.669
80102W        W80966  14.120   2.581  27.421
80103W        W80967  12.857   3.004  27.283
80104W        W80968  12.227   3.346  26.302
80105W        W80969  13.370   0.147  25.640
80106W        W80970  11.365   3.318  27.536
80107W        W80971  13.351   1.154  28.920
80108W        W80972  11.437   0.674  28.992
80109W        W80973  11.129   1.345  26.366
80110W        W80974  12.031   1.384  25.972
80111W        W80975  13.503   1.604  28.711
80112W        W80976  12.030   1.980  27.475
80113W        W80977  13.398   0.147  26.782
80114W        W80978  12.646   3.454  27.190
80115W        W80979  13.794   2.999  28.137
80116W        W80980  13.366   3.190  27.264
80117W        W80981  13.347   2.149  26.821
80118W        W80982  12.795   0.560  26.070
80119W        W80983  14.525   0.148  26.711
80120W        W80984  12.019   1.661  25.538
80121W        W80985  14.397   1.000  26.716
80122W        W80986  12.901   2.155  25.935
80123W        W80987  14.037   2.341  28.429
80124W        W80988  13.696   2.826  25.705
80125W        W80989  12.195   0.745  28.604
80126W        W80990  12.189   1.368  27.827
80127W        W80991  14.257   2.795  28.330
80128W        W80992  13.299   0.731  28.591
80129W        W80993  11.056   1.352  28.362
80130W        W80994  12.956   1.694  27.929
80131W        W80995  11.326   2.325  26.951
80132W        W80996  11.382   1.707  27.574
80133W        W80997  13.745   2.087  28.044
80134W        W80998  13.617   3.392  28.739
80135W        W80999  13.403   1.178  28.387
80136W        W81000  13.677   3.057  26.883
80137W        W81001  12.755   2.973  28.002
80138W        W81002  12.078   3.211  27.500
80139W        W81003  14.032   2.501  27.945
80140W        W81004  12.954   2.363  28.945
80141W        W81005  11.732   2.387  27.330
80142W        W81006  13.809   2.176  27.043
80143W        W81007  13.595   3.268  27.720
80144W        W81008  11.504   2.822  27.551
80145W        W81009  12.416   1.055  28.935
80146W        W81010  12.810   3.165  26.304
80147W        W81011  12.391   2.863  26.311
80148W        W81012  11.729   1.243  25.400
80149W        W81013  10.995   7.295   3.408
80150W        W81014  11.344   6.149   2.807
80151W        W81015  14.226   5.778   0.792
80152W        W81016  14.326   6.938   2.577
80153W        W81017  12.337   7.003   0.317
80154W        W81018  12.142   5.082   1.056
80155W        W81019  11.745   4.851   1.451
80156W        W81020  12.608   5.677   0.633
80157W        W81021  12.443   6.974   3.046
80158W        W81022  10.993   4.389   2.971
80159W        W81023  11.653   3.654   2.818
80160W        W81024  13.484   4.138   1.728
80161W        W81025  13.141   4.590   0.426
80162W        W81026  13.680   4.477   3.257
80163W        W81027  11.085   4.069   2.561
80164W        W81028  11.176   6.819   3.529
80165W        W81029  12.559   6.073   0.298
80166W        W81030  11.000   4.832   1.935
80167W        W81031  12.058   4.943   3.120
80168W        W81032  14.643   4.485   1.755
80169W        W81033  14.116   5.726   2.503
80170W        W81034  12.597   5.098   1.455
80171W        W81035  13.146   6.502   1.941
80172W        W81036  11.543   5.706   2.084
80173W        W81037  10.816   5.309   1.887
80174W        W81038  12.004   5.362   2.792
80175W        W81039  14.189   5.204   3.233
80176W        W81040  11.786   6.498   1.686
80177W        W81041  12.938   6.330   2.626
80178W        W81042  12.283   4.832   1.907
80179W        W81043  12.367   5.638   1.590
80180W        W81044  13.214   6.561   3.423
80181W        W81045  12.563   5.732   3.414
80182W        W81046  12.507   5.576   2.908
80183W        W81047  10.867   4.721   3.347
80184W        W81048  13.641   6.375   3.177
80185W        W81049  11.414   3.862   1.016
80186W        W81050  11.830   6.151   2.124
80187W        W81051  14.427   5.998   1.646
80188W        W81052  13.958   4.314   1.977
80189W        W81053  14.233   4.524   0.124
80190W        W81054  14.577   5.140   2.471
80191W        W81055  12.455   6.910   2.148
80192W        W81056  14.430   6.251   0.829
80193W        W81057  11.486   7.279   0.633
80194W        W81058  11.799   7.131   1.084
80195W        W81059  11.552   3.925   2.360
80196W        W81060  14.151   5.025   2.744
80197W        W81061  13.590   5.322   1.291
80198W        W81062  13.557   5.013   0.416
80199W        W81063  12.734   6.236   2.141
80200W        W81064  12.707   4.445   1.377
80201W        W81065  13.111   6.776   2.425
80202W        W81066  14.092   5.396   1.097
80203W        W81067  12.600   3.951   0.828
80204W        W81068  11.515   6.782   0.748
80205W        W81069  11.099   4.192   1.285
80206W        W81070  13.643   4.857   1.718
80207W        W81071  11.268   6.531   1.709
80208W        W81072  12.598   6.745   0.708
80209W        W81073  13.920   4.916   0.037
80210W        W81074  11.020   6.542   2.203
80211W        W81075  11.792   6.402   2.579
80212W        W81076  12.005   5.589   1.205
80213W        W81077  12.000   4.084   2.134
80214W        W81078  14.577   3.740   1.752
80215W        W81079  11.670   5.721   0.307
80216W        W81080  11.421   4.815   0.323
80217W        W81081  11.237   6.635   1.191
80218W        W81082  12.318   5.993   1.200
80219W        W81083  13.889   6.921   2.859
80220W        W81084  12.683   4.450   0.640
80221W        W81085  14.347   6.825   1.515
80222W        W81086  13.742   4.991   3.136
80223W        W81087  14.537   6.382   1.329
80224W        W81088  13.092   5.850   2.675
80225W        W81089  11.078   5.358   1.044
80226W        W81090  11.905   5.760   2.457
80227W        W81091  13.255   4.999   0.855
80228W        W81092  13.056   5.414   1.111
80229W        W81093  11.370   4.861   2.333
80230W        W81094  11.356   4.818   3.092
80231W        W81095  11.267   3.769   1.561
80232W        W81096  12.942   4.197   1.802
80233W        W81097  12.710   4.270   3.252
80234W        W81098  13.294   4.140   0.730
80235W        W81099  14.361   6.787   3.093
80236W        W81100  14.164   6.304   3.238
80237W        W81101  13.802   4.621   2.755
80238W        W81102  13.480   4.261   1.209
80239W        W81103  13.767   5.468   3.403
80240W        W81104  11.525   6.955   1.526
80241W        W81105  12.240   4.732   0.649
80242W        W81106  11.848   3.956   3.225
80243W        W81107  13.981   4.560   0.998
80244W        W81108  14.324   4.956   0.947
80245W        W81109  11.990   7.076   3.261
80246W        W81110  12.126   3.691   0.689
80247W        W81111  14.288   4.130   1.603
80248W        W81112  14.596   6.527   0.229
80249W        W81113  11.180   5.661   1.699
80250W        W81114  13.302   4.197   0.080
80251W        W81115  14.397   6.459   1.875
80252W        W81116  14.373   3.737   2.417
80253W        W81117  12.883   5.186   2.998
80254W        W81118  12.676   6.176   0.801
80255W        W81119  13.263   5.519   3.715
80256W        W81120  13.128   3.747   1.550
80257W        W81121  11.451   4.643   1.814
80258W        W81122  11.379   5.688   2.569
80259W        W81123  13.061   6.851   1.514
80260W        W81124  14.282   4.735   2.312
80261W        W81125  12.954   7.063   2.840
80262W        W81126  14.284   5.691   0.299
80263W        W81127  12.513   5.484   1.108
80264W        W81128  14.457   3.795   2.945
80265W        W81129  12.598   5.908   2.526
80266W        W81130  12.782   4.755   1.800
80267W        W81131  13.782   5.043   0.892
80268W        W81132  14.009   4.779   0.527
80269W        W81133  14.115   6.573   1.084
80270W        W81134  13.542   6.086   1.722
80271W        W81135  13.494   5.444   0.732
80272W        W81136  12.871   5.520   1.591
80273W        W81137  13.950   5.274   1.770
80274W        W81138  11.296   4.364   2.211
80275W        W81139  13.876   5.458   2.894
80276W        W81140  14.383   6.963   2.051
80277W        W81141  12.235   6.459   1.453
80278W        W81142  13.450   7.136   2.670
80279W        W81143  13.338   4.544   2.520
80280W        W81144  12.531   7.253   2.610
80281W        W81145  14.254   4.126   1.082
80282W        W81146  14.048   5.245   2.284
80283W        W81147  10.856   4.603   2.385
80284W        W81148  13.876   4.445   1.486
80285W        W81149  14.182   4.661   3.104
80286W        W81150  13.132   6.313   1.445
80287W        W81151  12.335   6.883   1.154
80288W        W81152  11.446   4.085   0.515
80289W        W81153  12.745   3.719   1.958
80290W        W81154  11.824   7.070   0.305
80291W        W81155  12.087   5.465   0.701
80292W        W81156  12.641   6.081   3.003
80293W        W81157  12.337   4.361   1.003
80294W        W81158  13.843   3.908   1.429
80295W        W81159  13.505   7.180   1.620
80296W        W81160  12.932   7.005   1.983
80297W        W81161  12.295   5.908   2.104
80298W        W81162  14.089   6.603   2.263
80299W        W81163  11.875   4.093   0.941
80300W        W81164  12.246   6.416   1.961
80301W        W81165  11.821   4.205   0.129
80302W        W81166  12.636   4.964   2.303
80303W        W81167  13.546   3.741   2.245
80304W        W81168  11.023   5.660   2.204
80305W        W81169  12.670   5.333   0.187
80306W        W81170  12.001   3.732   0.196
80307W        W81171  12.612   4.812   1.021
80308W        W81172  13.652   4.134   2.852
80309W        W81173  12.160   5.987   2.838
80310W        W81174  12.992   5.673   3.154
80311W        W81175  13.487   5.786   3.084
80312W        W81176  12.833   3.924   3.608
80313W        W81177  11.931   4.483   1.798
80314W        W81178  11.616   4.328   1.381
80315W        W81179  11.280   7.146   1.106
80316W        W81180  12.795   6.585   3.083
80317W        W81181  11.394   6.172   0.461
80318W        W81182  13.377   5.516   1.738
80319W        W81183  13.538   5.192   2.104
80320W        W81184  12.754   5.682   2.091
80321W        W81185  13.415   5.985   0.082
80322W        W81186  12.998   4.062   1.154
80323W        W81187  14.591   4.496   0.875
80324W        W81188  11.125   7.010   2.981
80325W        W81189  11.326   6.130   2.290
80326W        W81190  11.010   7.049   0.682
80327W        W81191  12.854   4.495   2.249
80328W        W81192  12.252   6.475   0.442
80329W        W81193  14.236   6.687   0.570
80330W        W81194  13.008   5.346   0.579
80331W        W81195  11.882   4.619   1.023
80332W        W81196  12.956   4.610  28.925
80333W        W81197  13.136   6.180   3.086
80334W        W81198  13.790   4.072   0.853
80335W        W81199  10.983   3.987   0.283
80336W        W81200  12.301   6.328   2.457
80337W        W81201  12.037   6.015   1.673
80338W        W81202  12.025   6.107   0.179
80339W        W81203  11.060   6.536   0.696
80340W        W81204  11.636   5.265   3.153
80341W        W81205  12.335   3.917   3.418
80342W        W81206  13.216   3.819   2.894
80343W        W81207  12.251   3.736   1.187
80344W        W81208  13.067   3.652   0.676
80345W        W81209  11.128   3.871   2.065
80346W        W81210  11.246   4.696   1.334
80347W        W81211  14.079   3.784   1.960
80348W        W81212  11.404   4.395   0.914
80349W        W81213  13.949   4.029   2.415
80350W        W81214  14.380   5.197   0.170
80351W        W81215  11.556   4.110   1.844
80352W        W81216  12.836   4.712   2.739
80353W        W81217  11.071   4.462   0.460
80354W        W81218  11.695   5.785   2.960
80355W        W81219  12.999   5.204   1.986
80356W        W81220  12.850   7.085   0.294
80357W        W81221  11.138   5.723   0.230
80358W        W81222  11.791   6.317   3.086
80359W        W81223  11.304   5.217   2.747
80360W        W81224  12.343   5.461   2.409
80361W        W81225  13.949   3.706   2.826
80362W        W81226  14.443   5.479   2.830
80363W        W81227  14.523   5.353   0.628
80364W        W81228  13.102   5.827   0.784
80365W        W81229  13.959   7.165   0.231
80366W        W81230  12.908   5.151   3.564
80367W        W81231  11.365   6.328   3.603
80368W        W81232  14.493   4.050   3.476
80369W        W81233  14.175   4.768   1.805
80370W        W81234  12.417   7.150   3.554
80371W        W81235  12.497   3.816   0.339
80372W        W81236  14.225   6.195   0.350
80373W        W81237  11.739   4.468   3.087
80374W        W81238  12.270   6.495   2.945
80375W        W81239  14.256   4.356   2.671
80376W        W81240  13.799   7.351   0.852
80377W        W81241  13.729   5.699   2.072
80378W        W81242  11.883   4.135   2.715
80379W        W81243  12.456   5.232   3.286
80380W        W81244  11.806   6.349   0.719
80381W        W81245  13.749   5.775   1.018
80382W        W81246  11.421   4.467   2.690
80383W        W81247  12.696   6.502   1.224
80384W        W81248  14.500   5.028   1.477
80385W        W81249  12.723   3.770   3.097
80386W        W81250  13.654   6.459   2.038
80387W        W81251  13.922   6.858   1.846
80388W        W81252  13.046   6.245   0.413
80389W        W81253  11.010   6.159   3.245
80390W        W81254  11.794   4.550   2.312
80391W        W81255  11.761   3.821   1.414
80392W        W81256  13.256   4.741   2.026
80393W        W81257  12.242   5.643   0.246
80394W        W81258  14.241   5.660   2.000
80395W        W81259  11.304   6.553   3.110
80396W        W81260  14.223   7.059   0.953
80397W        W81261  12.119   4.190   1.419
80398W        W81262  11.715   5.584   1.621
80399W        W81263  12.088   7.297   2.308
80400W        W81264  14.115   7.238   3.189
80401W        W81265  13.234   5.577   2.250
80402W        W81266  11.350   5.301   0.495
80403W        W81267  14.612   6.718   0.941
80404W        W81268  14.179   4.288   0.594
80405W        W81269  12.201   3.703   2.959
80406W        W81270  13.994   6.435   1.559
80407W        W81271  13.999   4.954   1.355
80408W        W81272  12.248   4.698   1.409
80409W        W81273  12.437   5.063   2.777
80410W        W81274  13.460   6.219   2.714
80411W        W81275  12.139   4.598   2.754
80412W        W81276  12.029   6.947   1.539
80413W        W81277  11.495   7.186   3.297
80414W        W81278  11.735   6.569   0.252
80415W        W81279  14.130   6.058   1.226
80416W        W81280  11.720   4.901   2.729
80417W        W81281  14.508   4.818   0.482
80418W        W81282  12.202   5.992   0.666
80419W        W81283  13.296   5.397   2.776
80420W        W81284  13.153   5.025   2.444
80421W        W81285  11.674   5.292   2.382
80422W        W81286  13.869   7.094   2.332
80423W        W81287  13.727   3.928   3.415
80424W        W81288  11.379   4.050   3.028
80425W        W81289  11.791   4.993   1.965
80426W        W81290  12.119   4.622   0.160
80427W        W81291  10.901   6.437   2.748
80428W        W81292  12.491   5.285   1.930
80429W        W81293  12.553   4.313   0.126
80430W        W81294  11.610   5.352   0.963
80431W        W81295  11.112   7.112   2.467
80432W        W81296  13.999   5.319   0.524
80433W        W81297  14.108   4.141   3.125
80434W        W81298  13.638   6.242   1.235
80435W        W81299  11.062   5.222   3.219
80436W        W81300  14.089   3.767   0.554
80437W        W81301  13.912   6.211   0.766
80438W        W81302  12.517   5.172   0.666
80439W        W81303  13.609   3.895   0.390
80440W        W81304  13.768   4.742   2.224
80441W        W81305  11.385   5.227   1.445
80442W        W81306  11.796   6.127   1.246
80443W        W81307  13.527   4.774   1.230
80444W        W81308  12.432   4.327   1.810
80445W        W81309  14.371   6.177   2.347
80446W        W81310  14.441   4.168   2.129
80447W        W81311  11.010   6.962   1.528
80448W        W81312  11.361   6.194   0.962
80449W        W81313  11.430   3.938   3.552
80450W        W81314  12.217   6.654   3.442
80451W        W81315  14.348   5.516   1.517
80452W        W81316  13.789   5.801   0.459
80453W        W81317  13.041   7.309   2.380
80454W        W81318  13.820   5.973   3.468
80455W        W81319  12.578   3.446   0.689
80456W        W81320  13.197   4.549   1.538
80457W        W81321  10.990   6.110   1.893
80458W        W81322  12.202   4.206   0.517
80459W        W81323  12.098   5.633   3.233
80460W        W81324  13.077   4.544   1.000
80461W        W81325  13.333   6.088   2.231
80462W        W81326  11.333   6.658   2.604
80463W        W81327  11.677   6.702   3.420
80464W        W81328  11.766   4.499   0.545
80465W        W81329  13.548   4.585   0.746
80466W        W81330  13.286   6.670   2.911
80467W        W81331  12.096   5.201   1.572
80468W        W81332  11.640   7.017   2.393
80469W        W81333  14.468   7.035   0.206
80470W        W81334  11.174   5.696   3.049
80471W        W81335  13.059   5.956   1.801
80472W        W81336  11.749   5.843   0.824
80473W        W81337  12.115   6.840   2.566
80474W        W81338  12.615   3.944   1.484
80475W        W81339  10.909   6.048   0.555
80476W        W81340  12.629   4.821   0.276
80477W        W81341  11.407   5.747   1.237
80478W        W81342  12.412   4.156   2.843
80479W        W81343  14.100   4.035   0.131
80480W        W81344  14.192   5.734   3.212
80481W        W81345  13.009   7.043   3.353
80482W        W81346  14.447   6.027   2.840
80483W        W81347  13.926   6.781   3.377
80484W        W81348  11.673   7.256   1.940
80485W        W81349  14.608   5.882   1.162
80486W        W81350  13.168   5.070   1.511
80487W        W81351  12.802   3.579   1.147
80488W        W81352  11.802   6.633   1.172
80489W        W81353  12.322   4.491   2.291
80490W        W81354  12.190   3.798   1.743
80491W        W81355  11.322   6.945   0.251
80492W        W81356  12.825   5.907   1.241
80493W        W81357  11.714   6.828   2.907
80494W        W81358  11.274   5.736   0.735
80495W        W81359  11.052   4.321   1.774
80496W        W81360  12.572   6.104   1.660
80497W        W81361  10.989   4.066   0.795
80498W        W81362  13.656   5.089   2.599
80499W        W81363  13.742   4.387   0.317
80500W        W81364  14.020   6.108   1.938
80501W        W81365  12.669   6.608   1.745
80502W        W81366  12.041   6.854   0.725
80503W        W81367  13.342   3.496   0.188
80504W        W81368  11.242   6.976   1.986
80505W        W81369  13.233   4.745   3.417
80506W        W81370  11.336   4.434   3.417
80507W        W81371  11.352   4.908   0.864
80508W        W81372  11.810   5.022   0.613
80509W        W81373  13.316   5.269   3.264
80510W        W81374  12.014   5.472   2.018
80511W        W81375  13.427   3.753   1.088
80512W        W81376  12.571   7.094   1.575
80513W        W81377  13.626   6.658   2.507
80514W        W81378  13.524   6.643   1.581
80515W        W81379  13.328   5.814   1.324
80516W        W81380  12.925   4.076   0.396
80517W        W81381  14.516   3.721   1.240
80518W        W81382  12.192   5.124   0.256
80519W        W81383  14.368   4.567   1.332
80520W        W81384  12.973   5.753   0.267
80521W        W81385  13.907   6.007   2.896
80522W        W81386  13.739   6.347   0.268
80523W        W81387  12.211   4.410   3.252
80524W        W81388  12.108   4.990   2.379
80525W        W81389  14.107   6.462   2.752
80526W        W81390  13.192   4.373   3.021
80527W        W81391  10.926   4.876   2.823
80528W        W81392  12.830   5.411   2.533
80529W        W81393  11.110   6.147   1.399
80530W        W81394  11.328   5.243   1.978
80531W        W81395  13.600   5.743   2.566
80532W        W81396  13.515   7.044   3.198
80533W        W81397  13.299   4.875   2.919
80534W        W81398  13.887   6.979   1.342
80535W        W81399  12.618   6.730   2.610
80536W        W81400  11.967   6.846   2.039
80537W        W81401  13.851   6.162   2.405
80538W        W81402  12.810   6.187   3.478
80539W        W81403  11.509   6.064   1.713
80540W        W81404  13.865   5.731   1.539
80541W        W81405  13.447   6.930   2.069
80542W        W81406  11.542   6.577   2.140
80543W        W81407  12.717   4.775   3.258
80544W        W81408  12.828   7.033   1.091
80545W        W81409  12.236   6.142   3.334
80546W        W81410  12.247   6.428   0.949
80547W        W81411  11.701   5.223   0.119
80548W        W81412  10.895   7.328   7.111
80549W        W81413  11.370   6.214   6.563
80550W        W81414  14.039   5.864   4.461
80551W        W81415  14.338   7.014   6.358
80552W        W81416  11.930   6.962   3.771
80553W        W81417  12.310   5.096   4.846
80554W        W81418  11.908   4.976   5.202
80555W        W81419  12.736   5.402   4.556
80556W        W81420  12.409   6.977   6.736
80557W        W81421  11.046   4.418   6.637
80558W        W81422  11.740   3.651   6.505
80559W        W81423  13.671   4.120   5.505
80560W        W81424  13.177   4.847   3.936
80561W        W81425  13.722   4.545   6.867
80562W        W81426  11.120   4.130   6.201
80563W        W81427  11.132   6.889   7.219
80564W        W81428  12.421   6.301   3.792
80565W        W81429  11.094   4.835   5.678
80566W        W81430  12.184   4.981   6.805
80567W        W81431  14.490   4.612   5.482
80568W        W81432  14.133   5.714   6.204
80569W        W81433  12.782   4.904   5.425
80570W        W81434  13.150   6.489   5.679
80571W        W81435  11.646   5.727   5.832
80572W        W81436  10.837   5.301   5.595
80573W        W81437  12.126   5.384   6.478
80574W        W81438  14.311   5.201   6.864
80575W        W81439  11.832   6.447   5.268
80576W        W81440  12.865   6.361   6.407
80577W        W81441  12.291   4.976   5.564
80578W        W81442  12.514   5.803   5.284
80579W        W81443  13.259   6.696   7.095
80580W        W81444  12.612   5.731   7.178
80581W        W81445  12.601   5.539   6.657
80582W        W81446  10.878   4.741   6.999
80583W        W81447  13.679   6.547   6.746
80584W        W81448  11.387   3.859   4.750
80585W        W81449  11.939   6.178   5.841
80586W        W81450  14.288   6.093   5.251
80587W        W81451  14.115   4.349   5.694
80588W        W81452  14.025   4.306   3.615
80589W        W81453  14.630   5.037   6.025
80590W        W81454  12.522   6.904   5.822
80591W        W81455  14.044   6.311   4.133
80592W        W81456  11.244   7.147   4.330
80593W        W81457  11.643   7.143   4.711
80594W        W81458  11.624   3.998   6.114
80595W        W81459  14.225   5.196   6.323
80596W        W81460  13.641   5.355   5.025
80597W        W81461  13.562   5.075   3.666
80598W        W81462  12.693   6.428   5.899
80599W        W81463  12.870   4.439   5.175
80600W        W81464  13.029   6.761   6.112
80601W        W81465  14.123   5.416   4.780
80602W        W81466  12.885   4.038   4.547
80603W        W81467  11.497   6.707   4.449
80604W        W81468  11.080   4.267   4.818
80605W        W81469  13.618   4.943   5.378
80606W        W81470  11.297   6.543   5.393
80607W        W81471  12.364   6.793   3.946
80608W        W81472  13.999   4.816   3.562
80609W        W81473  11.146   6.590   5.919
80610W        W81474  11.865   6.243   6.371
80611W        W81475  12.365   5.622   4.834
80612W        W81476  12.049   4.131   5.810
80613W        W81477  14.601   3.775   5.504
80614W        W81478  11.756   5.970   3.465
80615W        W81479  11.431   4.478   3.923
80616W        W81480  11.433   6.469   4.907
80617W        W81481  12.173   6.123   4.987
80618W        W81482  13.881   7.003   6.601
80619W        W81483  12.912   4.556   4.276
80620W        W81484  14.121   7.034   5.304
80621W        W81485  13.826   5.049   6.728
80622W        W81486  14.524   6.529   5.058
80623W        W81487  13.148   5.853   6.478
80624W        W81488  10.626   5.470   4.739
80625W        W81489  12.054   5.774   6.137
80626W        W81490  13.137   4.988   4.458
80627W        W81491  13.192   5.383   4.782
80628W        W81492  11.418   4.888   6.133
80629W        W81493  11.448   4.843   6.726
80630W        W81494  11.275   3.855   5.248
80631W        W81495  13.268   4.180   5.828
80632W        W81496  12.903   4.337   6.980
80633W        W81497  13.225   4.262   4.014
80634W        W81498  14.315   6.932   6.892
80635W        W81499  13.387   3.742   6.736
80636W        W81500  14.148   6.439   7.028
80637W        W81501  13.791   4.321   6.418
80638W        W81502  13.594   4.251   4.937
80639W        W81503  13.886   5.386   7.136
80640W        W81504  11.540   6.937   5.172
80641W        W81505  12.394   4.508   4.221
80642W        W81506  11.866   4.009   6.861
80643W        W81507  13.866   4.597   4.643
80644W        W81508  14.163   4.989   4.476
80645W        W81509  11.955   6.954   6.987
80646W        W81510  11.862   3.695   4.261
80647W        W81511  14.341   4.156   5.260
80648W        W81512  14.292   6.526   3.685
80649W        W81513  11.223   5.688   5.525
80650W        W81514  13.283   4.222   3.511
80651W        W81515  14.396   6.651   5.534
80652W        W81516  14.363   3.811   6.041
80653W        W81517  12.951   5.137   6.770
80654W        W81518  12.500   6.046   4.583
80655W        W81519  13.444   5.524   7.425
80656W        W81520  13.436   3.682   5.266
80657W        W81521  11.516   4.684   5.420
80658W        W81522  11.164   5.686   6.080
80659W        W81523  13.185   6.913   5.170
80660W        W81524  14.188   4.763   5.997
80661W        W81525  12.908   7.081   6.514
80662W        W81526  14.105   5.803   3.941
80663W        W81527  12.711   5.326   5.086
80664W        W81528  14.479   3.894   6.562
80665W        W81529  12.682   5.889   6.265
80666W        W81530  13.159   4.722   5.752
80667W        W81531  13.659   5.100   4.566
80668W        W81532  13.815   4.926   4.086
80669W        W81533  13.866   6.676   4.465
80670W        W81534  13.753   6.101   5.383
80671W        W81535  13.432   5.278   4.142
80672W        W81536  13.017   5.628   5.360
80673W        W81537  14.058   5.443   5.320
80674W        W81538  11.384   4.433   5.875
80675W        W81539  13.974   5.547   6.660
80676W        W81540  14.366   7.075   5.799
80677W        W81541  12.299   6.620   5.114
80678W        W81542  13.435   7.084   6.324
80679W        W81543  13.330   4.490   6.225
80680W        W81544  12.548   7.278   6.204
80681W        W81545  14.120   4.169   4.786
80682W        W81546  14.045   5.343   5.838
80683W        W81547  10.959   4.631   6.146
80684W        W81548  13.899   4.516   5.254
80685W        W81549  14.156   4.691   6.508
80686W        W81550  13.184   6.272   5.205
80687W        W81551  12.520   6.986   4.844
80688W        W81552  11.478   3.976   4.053
80689W        W81553  12.988   3.890   5.503
80690W        W81554  11.420   7.188   3.808
80691W        W81555  12.421   5.678   4.223
80692W        W81556  12.726   6.029   6.761
80693W        W81557  12.628   4.464   4.711
80694W        W81558  13.893   3.867   5.123
80695W        W81559  13.607   7.138   5.415
80696W        W81560  12.986   6.983   5.641
80697W        W81561  12.413   5.875   5.788
80698W        W81562  14.247   6.612   6.048
80699W        W81563  11.857   4.051   4.641
80700W        W81564  12.322   6.291   5.503
80701W        W81565  11.822   4.308   3.600
80702W        W81566  12.699   4.987   5.949
80703W        W81567  13.531   3.712   5.785
80704W        W81568  10.740   5.770   5.789
80705W        W81569  12.474   5.362   3.788
80706W        W81570  11.913   3.830   3.739
80707W        W81571  12.889   4.881   4.898
80708W        W81572  13.462   3.950   6.266
80709W        W81573  12.262   5.918   6.566
80710W        W81574  13.045   5.614   6.926
80711W        W81575  13.535   5.733   6.866
80712W        W81576  12.917   4.014   7.360
80713W        W81577  12.008   4.546   5.497
80714W        W81578  11.557   4.311   5.008
80715W        W81579  11.153   6.912   4.777
80716W        W81580  12.786   6.626   6.846
80717W        W81581  11.529   6.256   4.163
80718W        W81582  13.530   5.483   5.512
80719W        W81583  13.568   5.089   5.852
80720W        W81584  12.896   5.699   5.850
80721W        W81585  13.309   6.014   3.538
80722W        W81586  13.130   4.012   5.010
80723W        W81587  14.362   4.487   4.452
80724W        W81588  11.102   7.073   6.696
80725W        W81589  11.431   6.161   6.031
80726W        W81590  10.721   7.010   4.348
80727W        W81591  12.826   4.487   6.102
80728W        W81592  11.949   6.662   4.223
80729W        W81593  13.996   6.849   3.975
80730W        W81594  12.913   5.286   4.076
80731W        W81595  12.115   4.533   4.662
80732W        W81596  12.862   4.475   3.702
80733W        W81597  13.209   6.235   6.837
80734W        W81598  13.685   4.143   4.441
80735W        W81599  11.044   3.672   3.932
80736W        W81600  12.330   6.234   6.170
80737W        W81601  12.008   5.859   5.427
80738W        W81602  11.903   6.385   3.768
80739W        W81603  11.034   6.466   4.513
80740W        W81604  11.743   5.274   6.830
80741W        W81605  12.427   4.021   7.047
80742W        W81606  12.977   4.028   6.348
80743W        W81607  12.199   3.718   4.849
80744W        W81608  13.290   3.829   4.272
80745W        W81609  11.267   3.915   5.765
80746W        W81610  11.137   4.724   5.077
80747W        W81611  14.099   3.833   5.596
80748W        W81612  11.445   4.304   4.449
80749W        W81613  13.877   4.033   6.001
80750W        W81614  14.080   5.276   3.773
80751W        W81615  11.635   4.176   5.499
80752W        W81616  12.851   4.658   6.586
80753W        W81617  10.972   4.187   3.896
80754W        W81618  11.593   5.772   6.359
80755W        W81619  13.090   5.241   5.728
80756W        W81620  12.744   7.175   3.953
80757W        W81621  10.957   5.660   3.557
80758W        W81622  11.806   5.944   6.794
80759W        W81623  11.380   5.299   6.455
80760W        W81624  12.467   5.456   6.094
80761W        W81625  13.955   3.812   6.468
80762W        W81626  14.487   5.575   6.566
80763W        W81627  14.418   5.529   4.363
80764W        W81628  13.138   5.672   4.336
80765W        W81629  13.853   7.267   3.639
80766W        W81630  12.976   5.269   7.321
80767W        W81631  11.475   6.222   7.077
80768W        W81632  14.615   4.199   7.117
80769W        W81633  14.102   4.940   5.513
80770W        W81634  12.437   7.115   7.235
80771W        W81635  12.337   3.785   4.048
80772W        W81636  13.759   6.423   3.703
80773W        W81637  11.937   4.511   6.725
80774W        W81638  12.354   6.428   6.644
80775W        W81639  14.284   4.270   6.244
80776W        W81640  13.641   7.225   4.114
80777W        W81641  13.787   5.831   5.839
80778W        W81642  12.041   4.177   6.349
80779W        W81643  12.527   5.235   7.070
80780W        W81644  11.809   6.288   4.596
80781W        W81645  13.600   5.634   4.588
80782W        W81646  11.523   4.436   6.398
80783W        W81647  12.668   6.243   5.053
80784W        W81648  14.430   5.094   5.134
80785W        W81649  12.868   3.844   6.828
80786W        W81650  13.606   6.336   5.850
80787W        W81651  13.920   6.770   5.696
80788W        W81652  12.714   6.698   3.583
80789W        W81653  11.028   6.454   6.921
80790W        W81654  11.868   4.578   6.032
80791W        W81655  11.766   3.840   5.113
80792W        W81656  13.660   4.572   5.787
80793W        W81657  12.188   5.829   3.758
80794W        W81658  14.293   5.781   5.683
80795W        W81659  11.469   6.721   6.773
80796W        W81660  13.875   7.242   4.614
80797W        W81661  12.104   4.231   5.076
80798W        W81662  11.691   5.434   5.407
80799W        W81663  12.140   7.234   5.897
80800W        W81664  14.001   7.353   6.979
80801W        W81665  13.359   5.575   6.018
80802W        W81666  11.243   4.920   3.621
80803W        W81667  14.180   6.827   4.827
80804W        W81668  13.958   4.435   4.128
80805W        W81669  12.254   3.777   6.600
80806W        W81670  14.019   6.528   5.221
80807W        W81671  13.957   4.966   4.987
80808W        W81672  12.392   4.677   5.136
80809W        W81673  12.557   5.074   6.444
80810W        W81674  13.447   6.283   6.367
80811W        W81675  12.310   4.632   6.391
80812W        W81676  12.056   7.084   5.120
80813W        W81677  11.507   7.194   7.024
80814W        W81678  11.519   6.709   3.928
80815W        W81679  14.138   6.294   4.756
80816W        W81680  11.845   4.921   6.427
80817W        W81681  14.307   4.789   3.986
80818W        W81682  12.134   6.171   4.200
80819W        W81683  13.359   5.368   6.548
80820W        W81684  13.187   4.991   6.194
80821W        W81685  11.761   5.324   6.123
80822W        W81686  13.884   7.141   6.067
80823W        W81687  13.786   3.913   7.007
80824W        W81688  11.367   3.983   6.634
80825W        W81689  11.794   4.994   5.723
80826W        W81690  12.297   4.810   3.564
80827W        W81691  11.038   6.617   6.430
80828W        W81692  12.602   5.382   5.595
80829W        W81693  12.344   4.307   3.750
80830W        W81694  11.855   5.487   4.922
80831W        W81695  11.154   7.075   6.170
80832W        W81696  13.928   5.407   4.253
80833W        W81697  14.156   4.222   6.800
80834W        W81698  13.641   6.329   4.934
80835W        W81699  11.155   5.230   6.943
80836W        W81700  14.198   3.990   4.311
80837W        W81701  13.637   6.165   4.442
80838W        W81702  12.606   4.922   4.456
80839W        W81703  13.683   4.047   3.921
80840W        W81704  13.723   4.820   6.263
80841W        W81705  11.246   5.183   5.296
80842W        W81706  11.687   5.990   5.025
80843W        W81707  13.440   4.814   4.916
80844W        W81708  12.467   4.274   5.464
80845W        W81709  14.465   6.108   6.110
80846W        W81710  14.597   4.203   5.796
80847W        W81711  11.010   7.001   5.251
80848W        W81712  11.348   6.035   4.630
80849W        W81713  11.434   3.926   7.179
80850W        W81714  12.326   6.618   7.136
80851W        W81715  14.538   5.636   5.230
80852W        W81716  13.597   5.775   4.063
80853W        W81717  13.047   7.281   6.050
80854W        W81718  13.813   5.886   7.263
80855W        W81719  12.583   3.605   4.497
80856W        W81720  13.358   4.492   5.331
80857W        W81721  11.045   6.159   5.646
80858W        W81722  12.356   4.072   4.495
80859W        W81723  12.162   5.593   6.946
80860W        W81724  13.156   4.448   4.716
80861W        W81725  13.105   6.121   6.030
80862W        W81726  11.529   6.619   6.269
80863W        W81727  11.896   6.449   6.870
80864W        W81728  11.974   4.183   4.129
80865W        W81729  13.467   4.614   4.314
80866W        W81730  13.227   6.695   6.581
80867W        W81731  12.213   5.388   5.264
80868W        W81732  11.691   7.030   6.032
80869W        W81733  14.312   7.034   3.610
80870W        W81734  11.313   5.724   6.806
80871W        W81735  13.324   5.953   5.609
80872W        W81736  11.995   5.825   4.558
80873W        W81737  12.084   6.661   6.036
80874W        W81738  12.592   4.021   5.002
80875W        W81739  10.990   6.017   4.234
80876W        W81740  12.644   4.872   3.936
80877W        W81741  11.345   5.600   4.990
80878W        W81742  12.550   4.197   6.555
80879W        W81743  14.151   3.845   3.810
80880W        W81744  14.267   5.789   7.006
80881W        W81745  12.920   7.104   7.025
80882W        W81746  14.436   6.113   6.626
80883W        W81747  13.834   6.879   7.117
80884W        W81748  11.761   7.223   5.546
80885W        W81749  14.438   5.869   4.790
80886W        W81750  13.188   5.156   5.233
80887W        W81751  12.828   3.550   5.140
80888W        W81752  11.878   6.720   4.827
80889W        W81753  12.365   4.570   5.879
80890W        W81754  12.202   3.835   5.392
80891W        W81755  11.019   6.748   4.032
80892W        W81756  12.877   5.792   4.886
80893W        W81757  11.952   6.827   6.496
80894W        W81758  11.082   5.574   4.517
80895W        W81759  11.123   4.332   5.420
80896W        W81760  12.830   6.101   5.539
80897W        W81761  11.045   3.968   4.373
80898W        W81762  13.753   5.334   6.251
80899W        W81763  13.588   4.558   3.778
80900W        W81764  14.105   6.260   5.713
80901W        W81765  12.731   6.609   5.405
80902W        W81766  12.140   7.055   4.512
80903W        W81767  13.312   3.741   3.723
80904W        W81768  11.313   7.000   5.663
80905W        W81769  13.298   4.710   7.143
80906W        W81770  11.488   4.382   6.930
80907W        W81771  10.982   5.057   4.652
80908W        W81772  11.973   4.666   3.939
80909W        W81773  13.409   5.200   7.027
80910W        W81774  12.090   5.440   5.747
80911W        W81775  13.555   3.747   4.749
80912W        W81776  12.526   7.084   5.344
80913W        W81777  13.747   6.673   6.221
80914W        W81778  13.547   6.603   5.389
80915W        W81779  13.406   5.815   5.073
80916W        W81780  12.717   4.126   4.072
80917W        W81781  14.595   3.777   4.977
80918W        W81782  12.005   5.243   3.555
80919W        W81783  14.320   4.606   4.979
80920W        W81784  12.817   5.766   3.866
80921W        W81785  13.913   6.077   6.732
80922W        W81786  13.518   6.885   3.704
80923W        W81787  12.426   4.537   6.905
80924W        W81788  12.188   5.027   6.068
80925W        W81789  14.147   6.556   6.544
80926W        W81790  13.320   4.265   6.685
80927W        W81791  10.998   4.955   6.532
80928W        W81792  12.931   5.416   6.281
80929W        W81793  11.190   6.066   5.151
80930W        W81794  11.368   5.278   5.791
80931W        W81795  13.647   5.817   6.362
80932W        W81796  13.435   7.118   6.840
80933W        W81797  13.354   4.824   6.644
80934W        W81798  13.698   6.888   4.974
80935W        W81799  12.541   6.750   6.301
80936W        W81800  12.089   6.810   5.550
80937W        W81801  13.960   6.200   6.216
80938W        W81802  12.757   6.244   7.215
80939W        W81803  11.545   6.108   5.517
80940W        W81804  13.919   5.849   4.966
80941W        W81805  13.450   6.889   5.844
80942W        W81806  11.649   6.592   5.753
80943W        W81807  12.798   4.805   7.140
80944W        W81808  12.636   6.820   4.369
80945W        W81809  12.276   6.105   7.042
80946W        W81810  12.286   6.517   4.602
80947W        W81811  11.728   4.800   3.484
80948W        W81812  10.932   7.357  10.746
80949W        W81813  11.434   6.123  10.321
80950W        W81814  14.258   5.743   8.035
80951W        W81815  14.536   6.959   9.878
80952W        W81816  11.996   6.980   7.496
80953W        W81817  12.130   4.968   8.549
80954W        W81818  11.774   4.812   8.980
80955W        W81819  12.551   5.604   8.119
80956W        W81820  12.444   6.901  10.374
80957W        W81821  11.076   4.363  10.347
80958W        W81822  11.863   3.369  10.199
80959W        W81823  13.529   4.115   9.045
80960W        W81824  13.300   4.980   7.624
80961W        W81825  13.496   4.630  10.616
80962W        W81826  11.189   4.055   9.902
80963W        W81827  11.137   6.900  10.880
80964W        W81828  12.438   6.389   7.595
80965W        W81829  10.881   4.866   9.488
80966W        W81830  12.111   4.899  10.637
80967W        W81831  14.147   4.782   9.060
80968W        W81832  14.228   5.780   9.870
80969W        W81833  12.629   5.090   9.042
80970W        W81834  13.189   6.402   9.343
80971W        W81835  11.588   5.734   9.604
80972W        W81836  10.778   5.357   9.368
80973W        W81837  12.102   5.309  10.319
80974W        W81838  14.279   5.132  10.533
80975W        W81839  11.782   6.438   9.080
80976W        W81840  12.966   6.286  10.064
80977W        W81841  12.266   4.876   9.390
80978W        W81842  12.434   5.607   9.067
80979W        W81843  13.494   6.719  10.839
80980W        W81844  12.686   5.683  10.852
80981W        W81845  12.621   5.524  10.342
80982W        W81846  10.890   4.671  10.710
80983W        W81847  13.716   6.358  10.512
80984W        W81848  11.484   3.901   8.532
80985W        W81849  11.847   6.189   9.607
80986W        W81850  14.279   6.049   8.911
80987W        W81851  13.870   4.439   9.338
80988W        W81852  13.958   4.361   7.276
80989W        W81853  14.599   5.107   9.735
80990W        W81854  12.484   6.817   9.475
80991W        W81855  14.554   6.163   8.070
80992W        W81856  11.401   7.208   8.046
80993W        W81857  11.778   7.185   8.438
80994W        W81858  11.707   3.781   9.912
80995W        W81859  14.118   4.966  10.019
80996W        W81860  13.462   5.276   8.450
80997W        W81861  13.824   5.248   7.643
80998W        W81862  12.739   6.271   9.581
80999W        W81863  12.749   4.451   8.878
81000W        W81864  13.205   6.660   9.812
81001W        W81865  14.082   5.583   8.596
81002W        W81866  13.140   4.011   8.227
81003W        W81867  11.621   6.753   8.183
81004W        W81868  11.162   4.298   8.620
81005W        W81869  13.579   4.964   8.964
81006W        W81870  11.271   6.559   9.151
81007W        W81871  12.439   6.890   7.725
81008W        W81872  13.768   4.887   7.260
81009W        W81873  11.076   6.594   9.640
81010W        W81874  11.788   6.413  10.094
81011W        W81875  12.024   5.656   8.763
81012W        W81876  12.127   4.016   9.645
81013W        W81877  14.509   3.842   9.240
81014W        W81878  11.681   5.649   7.194
81015W        W81879  11.569   4.394   7.429
81016W        W81880  11.418   6.525   8.645
81017W        W81881  12.132   6.213   8.768
81018W        W81882  14.076   6.979  10.122
81019W        W81883  12.841   4.602   8.013
81020W        W81884  14.194   7.152   8.887
81021W        W81885  13.749   5.018  10.366
81022W        W81886  14.510   6.356   8.549
81023W        W81887  13.151   5.763  10.117
81024W        W81888  10.916   5.266   8.470
81025W        W81889  11.867   5.892  10.017
81026W        W81890  13.137   4.979   8.170
81027W        W81891  12.942   5.388   8.413
81028W        W81892  11.396   4.950   9.829
81029W        W81893  11.381   4.795  10.521
81030W        W81894  11.387   3.699   8.989
81031W        W81895  13.062   4.236   9.280
81032W        W81896  12.774   4.202  10.506
81033W        W81897  13.284   4.080   7.721
81034W        W81898  14.464   6.871  10.439
81035W        W81899  13.153   3.836  10.454
81036W        W81900  14.194   6.193  10.658
81037W        W81901  13.744   4.385  10.225
81038W        W81902  13.526   4.221   8.508
81039W        W81903  13.884   5.395  10.712
81040W        W81904  11.586   6.921   8.948
81041W        W81905  12.368   4.514   7.871
81042W        W81906  11.835   3.937  10.484
81043W        W81907  13.854   4.523   8.191
81044W        W81908  14.180   4.921   8.166
81045W        W81909  12.114   7.252  10.537
81046W        W81910  11.949   3.718   7.864
81047W        W81911  14.257   4.257   8.962
81048W        W81912  14.667   6.433   7.431
81049W        W81913  11.071   5.718   9.130
81050W        W81914  13.392   4.213   7.201
81051W        W81915  14.434   6.551   9.048
81052W        W81916  14.271   3.807   9.725
81053W        W81917  12.968   5.013  10.505
81054W        W81918  12.624   6.137   8.148
81055W        W81919  13.330   5.649  11.022
81056W        W81920  13.117   3.737   9.157
81057W        W81921  11.437   4.649   9.400
81058W        W81922  11.325   5.706  10.055
81059W        W81923  12.952   6.868   8.841
81060W        W81924  14.251   4.766   9.566
81061W        W81925  12.933   6.951  10.168
81062W        W81926  14.175   5.616   7.502
81063W        W81927  12.471   5.356   8.618
81064W        W81928  14.432   3.714  10.213
81065W        W81929  12.702   5.865   9.906
81066W        W81930  12.886   4.726   9.305
81067W        W81931  13.637   4.948   8.029
81068W        W81932  14.012   4.772   7.708
81069W        W81933  14.114   6.594   8.263
81070W        W81934  13.627   6.342   9.071
81071W        W81935  13.425   5.414   7.956
81072W        W81936  12.925   5.511   8.928
81073W        W81937  13.980   5.324   9.025
81074W        W81938  11.618   4.233   9.656
81075W        W81939  13.985   5.436  10.183
81076W        W81940  14.375   6.985   9.355
81077W        W81941  12.281   6.667   8.960
81078W        W81942  13.422   7.077  10.050
81079W        W81943  13.327   4.361   9.785
81080W        W81944  12.529   7.200   9.938
81081W        W81945  14.100   4.151   8.419
81082W        W81946  14.124   5.332   9.659
81083W        W81947  11.039   4.543   9.846
81084W        W81948  13.792   4.502   8.828
81085W        W81949  14.160   4.643  10.445
81086W        W81950  13.124   6.315   8.838
81087W        W81951  12.475   6.920   8.575
81088W        W81952  11.510   3.965   7.685
81089W        W81953  12.706   3.901   9.499
81090W        W81954  11.500   7.143   7.540
81091W        W81955  12.089   5.408   8.277
81092W        W81956  12.810   5.985  10.439
81093W        W81957  12.681   4.097   8.466
81094W        W81958  13.901   3.875   8.786
81095W        W81959  13.749   7.253   9.150
81096W        W81960  12.995   6.887   9.380
81097W        W81961  12.390   5.873   9.494
81098W        W81962  14.129   6.674   9.700
81099W        W81963  11.983   4.056   8.469
81100W        W81964  12.260   6.358   9.354
81101W        W81965  12.053   4.346   7.220
81102W        W81966  12.645   4.880   9.748
81103W        W81967  13.459   3.936   9.512
81104W        W81968  11.066   5.760   9.624
81105W        W81969  12.496   5.394   7.566
81106W        W81970  11.913   3.850   7.357
81107W        W81971  12.655   4.854   8.574
81108W        W81972  13.459   3.927  10.042
81109W        W81973  12.328   5.925  10.260
81110W        W81974  13.085   5.537  10.574
81111W        W81975  13.558   5.619  10.391
81112W        W81976  12.764   3.837  10.863
81113W        W81977  11.969   4.464   9.316
81114W        W81978  11.671   4.305   8.825
81115W        W81979  11.289   7.023   8.523
81116W        W81980  12.778   6.514  10.509
81117W        W81981  12.151   6.080   7.885
81118W        W81982  13.455   5.462   8.926
81119W        W81983  13.680   5.491   9.401
81120W        W81984  12.866   5.666   9.432
81121W        W81985  13.668   6.376   7.224
81122W        W81986  13.096   4.089   8.767
81123W        W81987  14.398   4.447   8.097
81124W        W81988  11.143   7.061  10.371
81125W        W81989  11.356   6.179   9.801
81126W        W81990  10.922   7.146   8.169
81127W        W81991  12.809   4.386   9.706
81128W        W81992  12.007   6.586   7.841
81129W        W81993  14.425   6.606   7.857
81130W        W81994  12.933   5.348   7.844
81131W        W81995  12.325   4.463   8.446
81132W        W81996  13.046   4.503   7.539
81133W        W81997  13.303   6.041  10.569
81134W        W81998  13.691   4.040   8.055
81135W        W81999  11.060   3.756   7.534
81136W        W82000  12.292   6.218   9.855
81137W        W82001  11.973   5.946   9.182
81138W        W82002  11.957   6.313   7.385
81139W        W82003  11.092   6.638   8.225
81140W        W82004  11.681   5.192  10.671
81141W        W82005  12.288   3.764  10.658
81142W        W82006  12.942   3.979   9.995
81143W        W82007  12.352   3.710   8.604
81144W        W82008  13.537   3.608   7.804
81145W        W82009  11.394   3.801   9.499
81146W        W82010  11.054   4.636   9.031
81147W        W82011  13.984   3.936   9.297
81148W        W82012  11.627   4.179   8.124
81149W        W82013  13.857   4.126   9.771
81150W        W82014  14.248   5.078   7.358
81151W        W82015  11.779   4.008   9.225
81152W        W82016  12.827   4.613  10.168
81153W        W82017  11.075   4.259   7.691
81154W        W82018  11.699   5.636  10.418
81155W        W82019  13.169   5.179   9.258
81156W        W82020  12.822   7.229   7.559
81157W        W82021  11.081   5.611   7.309
81158W        W82022  11.924   6.096  10.513
81159W        W82023  11.381   5.244  10.253
81160W        W82024  12.282   5.558   9.905
81161W        W82025  13.912   3.714  10.125
81162W        W82026  14.485   5.408  10.124
81163W        W82027  14.333   5.264   7.825
81164W        W82028  13.043   5.792   8.115
81165W        W82029  13.832   7.348   7.565
81166W        W82030  12.966   5.245  10.982
81167W        W82031  11.524   6.199  10.822
81168W        W82032  14.524   4.237  10.767
81169W        W82033  13.826   4.994   9.404
81170W        W82034  12.543   7.086  10.857
81171W        W82035  12.389   3.905   7.565
81172W        W82036  14.243   6.125   7.417
81173W        W82037  11.799   4.489  10.498
81174W        W82038  12.279   6.428  10.324
81175W        W82039  14.204   4.438   9.974
81176W        W82040  14.067   6.979   7.879
81177W        W82041  13.666   6.001   9.448
81178W        W82042  11.948   4.235  10.070
81179W        W82043  12.508   5.208  10.730
81180W        W82044  11.769   6.259   8.346
81181W        W82045  13.651   5.748   8.332
81182W        W82046  11.488   4.495  10.090
81183W        W82047  12.620   6.382   8.643
81184W        W82048  14.379   5.112   8.749
81185W        W82049  12.678   3.687  10.344
81186W        W82050  13.645   6.522   9.550
81187W        W82051  13.937   6.767   9.190
81188W        W82052  12.782   6.738   7.362
81189W        W82053  11.059   6.298  10.653
81190W        W82054  11.835   4.679   9.767
81191W        W82055  11.890   3.693   8.841
81192W        W82056  13.409   4.682   9.387
81193W        W82057  12.154   5.788   7.435
81194W        W82058  14.139   5.755   9.336
81195W        W82059  11.412   6.631  10.502
81196W        W82060  14.124   7.206   8.350
81197W        W82061  12.184   4.159   8.920
81198W        W82062  11.598   5.591   9.098
81199W        W82063  12.204   7.245   9.531
81200W        W82064  14.133   7.263  10.549
81201W        W82065  13.264   5.482   9.690
81202W        W82066  11.318   4.802   7.226
81203W        W82067  14.452   6.855   8.544
81204W        W82068  14.053   4.272   7.775
81205W        W82069  12.197   3.762  10.141
81206W        W82070  14.021   6.470   8.759
81207W        W82071  13.905   5.049   8.577
81208W        W82072  12.289   4.672   8.932
81209W        W82073  12.534   5.040  10.231
81210W        W82074  13.474   6.171  10.086
81211W        W82075  12.229   4.640  10.215
81212W        W82076  12.058   7.122   8.871
81213W        W82077  11.626   7.080  10.662
81214W        W82078  11.614   6.698   7.274
81215W        W82079  14.078   6.076   8.408
81216W        W82080  11.783   4.923  10.213
81217W        W82081  14.413   4.547   7.457
81218W        W82082  12.203   5.914   8.363
81219W        W82083  13.263   5.261  10.171
81220W        W82084  13.149   4.970   9.730
81221W        W82085  11.757   5.366   9.916
81222W        W82086  13.974   7.215   9.645
81223W        W82087  13.645   4.005  10.562
81224W        W82088  11.369   3.814  10.313
81225W        W82089  11.771   5.067   9.443
81226W        W82090  12.304   4.820   7.314
81227W        W82091  11.066   6.454  10.155
81228W        W82092  12.497   5.317   9.496
81229W        W82093  12.561   4.385   7.404
81230W        W82094  11.685   5.276   8.689
81231W        W82095  11.172   7.228   9.860
81232W        W82096  13.923   5.362   8.146
81233W        W82097  14.153   4.108  10.413
81234W        W82098  13.593   6.190   8.589
81235W        W82099  11.108   5.206  10.694
81236W        W82100  14.127   3.756   7.807
81237W        W82101  14.066   6.212   7.894
81238W        W82102  12.594   5.083   8.129
81239W        W82103  13.740   3.976   7.519
81240W        W82104  13.761   4.662   9.792
81241W        W82105  11.142   5.223   8.960
81242W        W82106  11.633   6.029   8.791
81243W        W82107  13.488   4.753   8.489
81244W        W82108  12.488   4.337   9.299
81245W        W82109  14.423   6.235   9.777
81246W        W82110  14.347   4.266   9.492
81247W        W82111  11.032   6.987   8.964
81248W        W82112  11.262   6.103   8.364
81249W        W82113  11.418   3.889  10.817
81250W        W82114  12.364   6.615  10.824
81251W        W82115  14.490   5.584   8.960
81252W        W82116  13.787   5.756   7.804
81253W        W82117  13.024   7.248   9.744
81254W        W82118  13.766   5.895  10.773
81255W        W82119  12.697   3.662   8.171
81256W        W82120  13.266   4.553   8.917
81257W        W82121  10.933   6.186   9.326
81258W        W82122  12.320   4.011   8.086
81259W        W82123  12.207   5.655  10.665
81260W        W82124  13.040   4.501   8.461
81261W        W82125  13.192   6.006   9.669
81262W        W82126  11.421   6.795  10.011
81263W        W82127  11.902   6.617  10.613
81264W        W82128  11.978   4.213   7.722
81265W        W82129  13.352   4.483   8.052
81266W        W82130  13.281   6.611  10.356
81267W        W82131  12.110   5.206   9.021
81268W        W82132  11.726   7.093   9.727
81269W        W82133  14.268   7.078   7.393
81270W        W82134  11.219   5.745  10.612
81271W        W82135  13.260   5.899   9.145
81272W        W82136  11.690   5.740   8.369
81273W        W82137  12.084   6.682   9.770
81274W        W82138  12.655   3.954   8.984
81275W        W82139  10.930   5.874   7.782
81276W        W82140  12.715   4.916   7.632
81277W        W82141  11.277   5.651   8.673
81278W        W82142  12.479   4.185  10.092
81279W        W82143  14.231   3.911   7.310
81280W        W82144  14.294   5.668  10.536
81281W        W82145  13.028   6.983  10.672
81282W        W82146  14.489   6.053  10.252
81283W        W82147  14.026   6.731  10.674
81284W        W82148  11.751   7.322   9.268
81285W        W82149  14.526   5.840   8.502
81286W        W82150  13.104   5.027   8.755
81287W        W82151  12.885   3.615   8.669
81288W        W82152  11.913   6.696   8.608
81289W        W82153  12.299   4.498   9.736
81290W        W82154  12.252   3.743   9.236
81291W        W82155  11.137   6.834   7.748
81292W        W82156  12.677   5.837   8.588
81293W        W82157  11.920   6.912  10.197
81294W        W82158  11.212   5.617   8.161
81295W        W82159  11.275   4.185   9.169
81296W        W82160  12.744   6.020   9.078
81297W        W82161  11.125   4.016   8.154
81298W        W82162  13.657   5.176   9.857
81299W        W82163  13.577   4.511   7.592
81300W        W82164  14.096   6.285   9.344
81301W        W82165  12.729   6.521   9.135
81302W        W82166  12.155   6.953   8.174
81303W        W82167  13.350   3.712   7.311
81304W        W82168  11.324   7.022   9.395
81305W        W82169  13.088   4.730  10.924
81306W        W82170  11.349   4.389  10.812
81307W        W82171  10.976   4.728   8.357
81308W        W82172  12.211   5.021   7.785
81309W        W82173  13.416   5.153  10.741
81310W        W82174  12.023   5.507   9.448
81311W        W82175  13.418   3.713   8.678
81312W        W82176  12.541   7.128   9.065
81313W        W82177  13.703   6.638  10.053
81314W        W82178  13.420   6.821   9.074
81315W        W82179  13.213   5.814   8.622
81316W        W82180  12.773   4.120   7.854
81317W        W82181  14.429   3.817   8.705
81318W        W82182  12.042   5.258   7.305
81319W        W82183  14.214   4.624   8.575
81320W        W82184  12.617   5.894   7.679
81321W        W82185  13.943   5.953  10.278
81322W        W82186  14.058   6.606   7.506
81323W        W82187  12.257   4.269  10.584
81324W        W82188  12.168   5.055   9.860
81325W        W82189  14.181   6.473  10.213
81326W        W82190  13.232   4.311  10.295
81327W        W82191  10.997   4.900  10.207
81328W        W82192  12.814   5.355   9.902
81329W        W82193  11.139   6.145   8.859
81330W        W82194  11.312   5.319   9.443
81331W        W82195  13.676   5.724   9.885
81332W        W82196  13.656   7.068  10.496
81333W        W82197  13.374   4.764  10.130
81334W        W82198  13.783   6.931   8.696
81335W        W82199  12.593   6.634   9.947
81336W        W82200  11.965   6.855   9.308
81337W        W82201  13.923   6.206   9.840
81338W        W82202  12.923   6.150  10.924
81339W        W82203  11.444   6.088   9.278
81340W        W82204  13.791   5.854   8.950
81341W        W82205  13.492   7.014   9.546
81342W        W82206  11.588   6.610   9.560
81343W        W82207  12.585   4.680  10.631
81344W        W82208  12.654   6.689   8.148
81345W        W82209  12.423   6.120  10.741
81346W        W82210  12.235   6.445   8.296
81347W        W82211  11.814   4.808   7.120
81348W        W82212  10.954   7.316  14.394
81349W        W82213  11.423   6.220  13.849
81350W        W82214  14.155   5.837  11.773
81351W        W82215  14.471   6.868  13.634
81352W        W82216  12.028   6.970  10.998
81353W        W82217  12.292   5.207  11.952
81354W        W82218  11.745   5.230  12.721
81355W        W82219  12.596   5.594  11.752
81356W        W82220  12.467   6.939  14.004
81357W        W82221  10.914   4.323  13.922
81358W        W82222  11.619   3.577  13.779
81359W        W82223  13.378   4.315  12.614
81360W        W82224  13.285   5.006  11.340
81361W        W82225  13.574   4.550  14.227
81362W        W82226  11.052   4.142  13.465
81363W        W82227  11.123   6.840  14.547
81364W        W82228  12.455   6.313  11.256
81365W        W82229  11.000   4.781  12.952
81366W        W82230  12.165   4.875  14.101
81367W        W82231  14.243   4.660  12.677
81368W        W82232  14.172   5.683  13.485
81369W        W82233  12.657   5.069  12.616
81370W        W82234  13.227   6.373  12.881
81371W        W82235  11.582   5.662  13.038
81372W        W82236  10.837   5.257  12.846
81373W        W82237  12.142   5.320  13.858
81374W        W82238  14.286   5.082  14.115
81375W        W82239  11.865   6.554  12.622
81376W        W82240  13.033   6.276  13.714
81377W        W82241  12.240   5.001  12.925
81378W        W82242  12.449   5.702  12.634
81379W        W82243  13.280   6.635  14.429
81380W        W82244  12.670   5.731  14.458
81381W        W82245  12.599   5.555  13.907
81382W        W82246  10.942   4.713  14.247
81383W        W82247  13.715   6.351  14.202
81384W        W82248  11.341   3.790  12.083
81385W        W82249  12.023   6.315  13.112
81386W        W82250  14.392   6.088  12.581
81387W        W82251  13.778   4.576  12.918
81388W        W82252  13.919   4.376  10.806
81389W        W82253  14.591   5.153  13.316
81390W        W82254  12.682   6.884  13.129
81391W        W82255  14.296   6.573  11.514
81392W        W82256  11.382   7.255  11.667
81393W        W82257  11.767   7.165  12.042
81394W        W82258  11.571   4.052  13.554
81395W        W82259  14.164   5.106  13.585
81396W        W82260  13.494   5.319  12.120
81397W        W82261  13.691   5.280  11.171
81398W        W82262  12.874   6.284  13.235
81399W        W82263  12.567   4.420  12.289
81400W        W82264  13.246   6.639  13.391
81401W        W82265  13.981   5.451  12.121
81402W        W82266  13.143   4.010  11.783
81403W        W82267  11.612   6.780  11.741
81404W        W82268  11.084   4.205  12.217
81405W        W82269  13.465   4.840  12.601
81406W        W82270  11.352   6.552  12.729
81407W        W82271  12.431   6.835  11.313
81408W        W82272  13.876   4.890  10.851
81409W        W82273  11.157   6.596  13.240
81410W        W82274  11.909   6.330  13.621
81411W        W82275  12.248   5.701  12.144
81412W        W82276  11.997   4.050  13.255
81413W        W82277  14.537   3.829  12.875
81414W        W82278  11.780   5.761  10.922
81415W        W82279  11.477   4.480  11.323
81416W        W82280  11.507   6.566  12.219
81417W        W82281  12.277   6.216  12.148
81418W        W82282  14.020   6.863  13.913
81419W        W82283  12.946   4.627  11.428
81420W        W82284  14.116   7.128  12.536
81421W        W82285  13.793   4.988  14.025
81422W        W82286  14.622   6.484  12.318
81423W        W82287  13.164   5.789  13.651
81424W        W82288  11.027   5.397  12.073
81425W        W82289  11.942   5.876  13.371
81426W        W82290  13.111   5.110  11.841
81427W        W82291  13.095   5.639  11.959
81428W        W82292  11.353   4.930  13.452
81429W        W82293  11.419   4.873  14.059
81430W        W82294  11.334   3.810  12.587
81431W        W82295  12.901   4.189  12.795
81432W        W82296  12.712   4.234  14.009
81433W        W82297  13.184   4.181  11.301
81434W        W82298  14.495   6.705  14.142
81435W        W82299  13.099   3.834  14.035
81436W        W82300  14.219   6.225  14.266
81437W        W82301  13.716   4.342  13.782
81438W        W82302  13.467   4.263  12.102
81439W        W82303  13.938   5.355  14.391
81440W        W82304  11.591   6.976  12.511
81441W        W82305  12.475   4.403  11.474
81442W        W82306  11.716   3.988  14.106
81443W        W82307  13.864   4.545  11.871
81444W        W82308  14.157   4.992  11.843
81445W        W82309  12.004   7.108  14.222
81446W        W82310  11.861   3.624  11.457
81447W        W82311  14.244   4.151  12.527
81448W        W82312  14.400   6.516  11.009
81449W        W82313  11.164   5.660  12.696
81450W        W82314  13.218   4.229  10.800
81451W        W82315  14.454   6.543  12.821
81452W        W82316  14.218   3.808  13.266
81453W        W82317  12.988   5.071  14.079
81454W        W82318  12.774   6.103  11.773
81455W        W82319  13.312   5.731  14.559
81456W        W82320  13.032   3.705  12.623
81457W        W82321  11.479   4.766  12.766
81458W        W82322  11.427   5.783  13.549
81459W        W82323  13.187   6.906  12.385
81460W        W82324  14.148   4.896  13.120
81461W        W82325  13.041   7.027  13.858
81462W        W82326  14.149   5.693  11.044
81463W        W82327  12.681   5.413  12.227
81464W        W82328  14.467   3.850  13.742
81465W        W82329  12.690   5.909  13.550
81466W        W82330  12.597   4.606  12.811
81467W        W82331  13.630   4.992  11.744
81468W        W82332  13.938   4.843  11.379
81469W        W82333  13.919   6.763  11.790
81470W        W82334  13.681   6.164  12.633
81471W        W82335  13.455   5.445  11.607
81472W        W82336  12.942   5.557  12.643
81473W        W82337  13.908   5.602  12.625
81474W        W82338  11.382   4.466  13.191
81475W        W82339  13.960   5.453  13.894
81476W        W82340  14.450   6.982  13.093
81477W        W82341  12.357   6.604  12.492
81478W        W82342  13.544   7.038  13.691
81479W        W82343  13.303   4.435  13.437
81480W        W82344  12.636   7.204  13.561
81481W        W82345  14.175   4.133  11.974
81482W        W82346  13.940   5.375  13.136
81483W        W82347  10.927   4.637  13.436
81484W        W82348  13.834   4.457  12.409
81485W        W82349  14.151   4.654  13.826
81486W        W82350  13.179   6.207  12.394
81487W        W82351  12.467   6.923  12.105
81488W        W82352  11.543   3.983  11.295
81489W        W82353  12.654   3.706  12.985
81490W        W82354  11.549   7.155  11.174
81491W        W82355  12.115   5.516  11.553
81492W        W82356  12.719   6.048  14.046
81493W        W82357  12.639   4.078  11.895
81494W        W82358  13.824   3.932  12.306
81495W        W82359  13.581   7.185  12.675
81496W        W82360  13.155   6.895  12.906
81497W        W82361  12.417   5.929  13.099
81498W        W82362  14.205   6.572  13.303
81499W        W82363  11.714   4.010  11.786
81500W        W82364  12.486   6.438  12.956
81501W        W82365  11.829   4.224  10.929
81502W        W82366  12.681   4.914  13.246
81503W        W82367  13.320   4.043  13.061
81504W        W82368  11.080   5.631  13.216
81505W        W82369  12.517   5.383  11.240
81506W        W82370  11.888   3.718  10.964
81507W        W82371  12.699   4.903  12.122
81508W        W82372  13.429   3.937  13.596
81509W        W82373  12.252   5.941  13.803
81510W        W82374  13.044   5.620  14.130
81511W        W82375  13.532   5.719  14.044
81512W        W82376  12.708   3.865  14.387
81513W        W82377  11.865   4.463  12.936
81514W        W82378  11.557   4.301  12.486
81515W        W82379  11.246   7.015  12.114
81516W        W82380  12.858   6.568  14.113
81517W        W82381  11.826   6.013  11.399
81518W        W82382  13.456   5.370  12.692
81519W        W82383  13.559   5.012  13.070
81520W        W82384  12.931   5.763  13.138
81521W        W82385  13.464   6.190  11.064
81522W        W82386  13.007   4.129  12.289
81523W        W82387  14.352   4.531  11.665
81524W        W82388  11.175   7.013  13.987
81525W        W82389  11.511   6.221  13.303
81526W        W82390  10.890   7.064  11.714
81527W        W82391  12.774   4.395  13.260
81528W        W82392  11.973   6.604  11.388
81529W        W82393  14.149   7.062  11.407
81530W        W82394  12.982   5.437  11.452
81531W        W82395  12.146   4.210  12.018
81532W        W82396  12.738   4.349  11.018
81533W        W82397  13.226   6.135  14.186
81534W        W82398  13.722   4.062  11.707
81535W        W82399  11.050   3.824  11.220
81536W        W82400  12.403   6.312  13.454
81537W        W82401  12.182   6.134  12.655
81538W        W82402  12.003   6.276  10.993
81539W        W82403  11.120   6.595  11.859
81540W        W82404  11.752   5.260  14.187
81541W        W82405  12.196   3.828  14.164
81542W        W82406  12.942   4.037  13.582
81543W        W82407  12.294   3.717  12.088
81544W        W82408  13.453   3.717  11.436
81545W        W82409  11.325   3.946  13.089
81546W        W82410  11.086   4.684  12.438
81547W        W82411  13.794   4.081  12.795
81548W        W82412  11.162   4.114  11.656
81549W        W82413  13.757   4.207  13.291
81550W        W82414  14.208   5.185  11.104
81551W        W82415  11.754   3.972  12.828
81552W        W82416  12.888   4.644  13.707
81553W        W82417  10.996   4.345  11.188
81554W        W82418  11.806   5.699  13.876
81555W        W82419  13.058   5.135  12.925
81556W        W82420  12.852   7.149  11.272
81557W        W82421  10.835   5.952  10.967
81558W        W82422  11.898   6.159  14.104
81559W        W82423  11.433   5.319  13.784
81560W        W82424  12.343   5.540  13.448
81561W        W82425  13.915   3.820  13.677
81562W        W82426  14.512   5.429  13.790
81563W        W82427  14.441   5.544  11.442
81564W        W82428  13.232   5.902  11.492
81565W        W82429  13.867   7.137  10.976
81566W        W82430  12.988   5.311  14.545
81567W        W82431  11.480   6.220  14.389
81568W        W82432  14.598   4.085  14.182
81569W        W82433  13.917   5.084  12.703
81570W        W82434  12.454   7.211  14.493
81571W        W82435  12.327   3.571  11.200
81572W        W82436  14.016   6.183  11.141
81573W        W82437  11.796   4.499  13.986
81574W        W82438  12.358   6.442  13.943
81575W        W82439  14.193   4.241  13.547
81576W        W82440  13.682   7.270  11.498
81577W        W82441  13.748   5.841  13.051
81578W        W82442  12.070   4.132  13.751
81579W        W82443  12.539   5.220  14.290
81580W        W82444  11.869   6.323  11.817
81581W        W82445  13.650   5.833  11.871
81582W        W82446  11.353   4.491  13.718
81583W        W82447  12.732   6.470  12.138
81584W        W82448  14.315   5.081  12.359
81585W        W82449  12.617   3.744  13.890
81586W        W82450  13.664   6.465  13.107
81587W        W82451  13.996   6.802  12.903
81588W        W82452  12.834   6.659  11.032
81589W        W82453  11.042   6.436  14.236
81590W        W82454  11.827   4.507  13.467
81591W        W82455  11.816   3.853  12.330
81592W        W82456  13.155   4.628  12.978
81593W        W82457  12.249   5.829  11.149
81594W        W82458  14.264   5.767  12.963
81595W        W82459  11.530   6.668  14.130
81596W        W82460  14.045   7.257  11.924
81597W        W82461  12.116   4.238  12.533
81598W        W82462  11.888   5.707  12.557
81599W        W82463  12.244   7.268  13.224
81600W        W82464  14.150   7.217  14.244
81601W        W82465  13.346   5.469  13.218
81602W        W82466  11.224   4.842  11.051
81603W        W82467  14.297   6.846  12.156
81604W        W82468  13.985   4.337  11.345
81605W        W82469  12.131   3.628  13.674
81606W        W82470  14.068   6.503  12.477
81607W        W82471  13.833   4.938  12.227
81608W        W82472  12.234   4.767  12.464
81609W        W82473  12.576   5.049  13.779
81610W        W82474  13.526   6.158  13.761
81611W        W82475  12.365   4.568  13.729
81612W        W82476  12.108   7.062  12.492
81613W        W82477  11.515   7.142  14.377
81614W        W82478  11.592   6.668  11.023
81615W        W82479  14.226   6.357  11.992
81616W        W82480  11.799   4.951  13.729
81617W        W82481  14.303   4.641  11.046
81618W        W82482  12.276   6.003  11.663
81619W        W82483  13.288   5.328  13.781
81620W        W82484  13.172   4.972  13.400
81621W        W82485  11.809   5.383  13.431
81622W        W82486  14.013   7.027  13.423
81623W        W82487  13.602   3.961  14.108
81624W        W82488  11.245   3.928  13.937
81625W        W82489  11.776   4.932  13.162
81626W        W82490  12.225   4.567  11.020
81627W        W82491  11.026   6.549  13.745
81628W        W82492  12.597   5.385  13.021
81629W        W82493  12.304   4.064  11.083
81630W        W82494  11.829   5.365  12.162
81631W        W82495  11.252   7.134  13.483
81632W        W82496  13.967   5.390  11.590
81633W        W82497  14.107   4.176  14.067
81634W        W82498  13.697   6.373  12.140
81635W        W82499  11.125   5.280  14.213
81636W        W82500  14.168   3.876  11.491
81637W        W82501  13.865   6.256  11.629
81638W        W82502  12.663   5.047  11.610
81639W        W82503  13.639   4.057  11.091
81640W        W82504  13.793   4.700  13.435
81641W        W82505  11.247   5.185  12.510
81642W        W82506  11.789   6.140  12.300
81643W        W82507  13.364   4.759  12.113
81644W        W82508  12.400   4.147  12.946
81645W        W82509  14.434   6.128  13.362
81646W        W82510  14.211   4.283  13.036
81647W        W82511  11.034   6.963  12.579
81648W        W82512  11.391   6.146  11.948
81649W        W82513  11.320   3.948  14.460
81650W        W82514  12.498   6.686  14.470
81651W        W82515  14.385   5.588  12.440
81652W        W82516  13.733   5.797  11.341
81653W        W82517  13.122   7.171  13.352
81654W        W82518  13.821   5.875  14.430
81655W        W82519  12.577   3.534  11.679
81656W        W82520  12.995   4.637  12.473
81657W        W82521  11.126   6.114  12.948
81658W        W82522  12.246   3.921  11.595
81659W        W82523  12.210   5.652  14.244
81660W        W82524  12.964   4.495  11.930
81661W        W82525  13.357   6.085  13.287
81662W        W82526  11.506   6.686  13.609
81663W        W82527  12.020   6.602  14.318
81664W        W82528  11.962   4.307  11.416
81665W        W82529  13.408   4.516  11.638
81666W        W82530  13.355   6.620  13.925
81667W        W82531  12.214   5.287  12.486
81668W        W82532  11.814   7.041  13.402
81669W        W82533  14.373   7.012  10.947
81670W        W82534  11.330   5.754  14.071
81671W        W82535  13.301   5.869  12.814
81672W        W82536  11.812   5.814  11.888
81673W        W82537  12.278   6.807  13.459
81674W        W82538  12.568   3.950  12.476
81675W        W82539  10.961   6.155  11.629
81676W        W82540  12.626   4.876  11.112
81677W        W82541  11.434   5.685  12.236
81678W        W82542  12.463   3.988  13.439
81679W        W82543  14.150   3.948  10.983
81680W        W82544  14.281   5.702  14.225
81681W        W82545  12.936   7.030  14.384
81682W        W82546  14.486   5.950  13.831
81683W        W82547  14.033   6.700  14.407
81684W        W82548  11.789   7.228  12.920
81685W        W82549  14.527   5.952  12.113
81686W        W82550  13.101   5.138  12.376
81687W        W82551  12.824   3.657  12.130
81688W        W82552  11.998   6.701  12.130
81689W        W82553  12.279   4.561  13.224
81690W        W82554  12.183   3.734  12.710
81691W        W82555  11.211   6.815  11.389
81692W        W82556  12.727   5.930  12.255
81693W        W82557  11.956   6.782  13.844
81694W        W82558  11.220   5.711  11.721
81695W        W82559  11.122   4.293  12.765
81696W        W82560  12.801   6.076  12.749
81697W        W82561  10.868   3.691  11.724
81698W        W82562  13.677   5.179  13.533
81699W        W82563  13.542   4.574  11.136
81700W        W82564  14.078   6.235  12.946
81701W        W82565  12.851   6.587  12.625
81702W        W82566  12.132   7.002  11.707
81703W        W82567  13.264   3.726  10.949
81704W        W82568  11.322   7.018  12.984
81705W        W82569  13.156   4.750  14.442
81706W        W82570  11.354   4.394  14.234
81707W        W82571  10.901   4.927  11.899
81708W        W82572  12.197   4.968  11.388
81709W        W82573  13.429   5.270  14.283
81710W        W82574  12.092   5.510  12.995
81711W        W82575  13.350   3.748  12.198
81712W        W82576  12.623   7.053  12.621
81713W        W82577  13.751   6.589  13.585
81714W        W82578  13.573   6.667  12.636
81715W        W82579  13.487   5.775  12.349
81716W        W82580  12.726   3.945  11.381
81717W        W82581  14.429   3.745  12.222
81718W        W82582  12.064   5.300  11.006
81719W        W82583  14.280   4.592  12.177
81720W        W82584  12.728   5.868  11.325
81721W        W82585  13.968   5.961  13.907
81722W        W82586  13.889   6.670  11.197
81723W        W82587  12.240   4.345  14.185
81724W        W82588  12.207   5.031  13.432
81725W        W82589  14.206   6.403  13.785
81726W        W82590  13.221   4.315  13.939
81727W        W82591  10.987   4.997  13.810
81728W        W82592  12.857   5.381  13.481
81729W        W82593  11.293   6.112  12.461
81730W        W82594  11.321   5.208  13.028
81731W        W82595  13.662   5.700  13.544
81732W        W82596  13.619   7.023  14.219
81733W        W82597  13.378   4.796  13.822
81734W        W82598  13.741   6.948  12.237
81735W        W82599  12.750   6.682  13.608
81736W        W82600  12.156   6.834  12.953
81737W        W82601  13.921   6.137  13.426
81738W        W82602  12.843   6.233  14.530
81739W        W82603  11.659   6.118  12.814
81740W        W82604  14.003   5.962  12.261
81741W        W82605  13.582   6.982  13.165
81742W        W82606  11.673   6.671  13.099
81743W        W82607  12.644   4.711  14.188
81744W        W82608  12.783   6.803  11.700
81745W        W82609  12.343   6.164  14.375
81746W        W82610  12.352   6.524  11.746
81747W        W82611  11.729   4.743  10.947
81748W        W82612  10.910   7.412  17.971
81749W        W82613  11.364   6.269  17.523
81750W        W82614  14.175   5.957  15.244
81751W        W82615  14.418   6.852  17.266
81752W        W82616  12.073   6.941  14.705
81753W        W82617  12.299   5.395  15.714
81754W        W82618  11.849   5.153  16.090
81755W        W82619  12.811   5.686  15.468
81756W        W82620  12.438   6.899  17.638
81757W        W82621  10.941   4.318  17.566
81758W        W82622  11.689   3.711  17.433
81759W        W82623  13.549   4.033  16.395
81760W        W82624  13.230   5.014  14.913
81761W        W82625  13.562   4.644  18.037
81762W        W82626  11.117   4.022  17.178
81763W        W82627  11.131   6.976  18.156
81764W        W82628  12.434   6.340  14.864
81765W        W82629  11.127   4.777  16.656
81766W        W82630  12.145   4.991  17.767
81767W        W82631  14.380   4.650  16.537
81768W        W82632  14.204   5.720  17.156
81769W        W82633  12.868   5.004  16.238
81770W        W82634  13.205   6.464  16.656
81771W        W82635  11.516   5.727  16.914
81772W        W82636  10.885   5.218  16.545
81773W        W82637  12.121   5.370  17.400
81774W        W82638  14.361   5.173  17.860
81775W        W82639  11.877   6.469  16.362
81776W        W82640  13.036   6.269  17.338
81777W        W82641  12.467   4.795  16.518
81778W        W82642  12.544   5.656  16.298
81779W        W82643  13.264   6.567  18.107
81780W        W82644  12.652   5.691  18.109
81781W        W82645  12.629   5.522  17.593
81782W        W82646  10.868   4.576  18.021
81783W        W82647  13.732   6.329  17.848
81784W        W82648  11.394   3.902  15.672
81785W        W82649  11.889   6.188  16.829
81786W        W82650  14.338   6.190  16.120
81787W        W82651  13.918   4.451  16.701
81788W        W82652  13.816   4.221  14.518
81789W        W82653  14.606   5.239  17.029
81790W        W82654  12.569   6.910  16.778
81791W        W82655  14.406   6.418  15.404
81792W        W82656  11.394   7.212  15.376
81793W        W82657  11.798   7.208  15.771
81794W        W82658  11.658   3.975  17.007
81795W        W82659  14.247   5.006  17.390
81796W        W82660  13.721   5.498  15.866
81797W        W82661  13.618   5.378  14.786
81798W        W82662  12.780   6.296  16.873
81799W        W82663  12.703   4.518  16.124
81800W        W82664  13.194   6.700  17.103
81801W        W82665  14.159   5.661  15.695
81802W        W82666  13.009   3.965  15.475
81803W        W82667  11.637   6.791  15.504
81804W        W82668  10.981   4.216  15.858
81805W        W82669  13.349   4.854  16.344
81806W        W82670  11.336   6.493  16.435
81807W        W82671  12.440   6.834  15.044
81808W        W82672  13.687   4.925  14.563
81809W        W82673  11.065   6.594  16.873
81810W        W82674  11.830   6.412  17.279
81811W        W82675  12.491   5.866  15.835
81812W        W82676  12.134   4.080  16.842
81813W        W82677  14.426   3.738  16.515
81814W        W82678  11.743   5.766  14.408
81815W        W82679  11.237   4.372  14.751
81816W        W82680  11.546   6.540  15.968
81817W        W82681  12.210   6.278  15.947
81818W        W82682  13.927   6.838  17.584
81819W        W82683  12.829   4.794  15.211
81820W        W82684  14.143   7.249  16.202
81821W        W82685  13.850   4.960  17.720
81822W        W82686  14.674   6.478  15.873
81823W        W82687  13.176   5.762  17.342
81824W        W82688  11.076   5.398  15.942
81825W        W82689  12.068   5.752  17.037
81826W        W82690  13.061   5.190  15.508
81827W        W82691  13.269   5.675  15.685
81828W        W82692  11.459   4.843  17.072
81829W        W82693  11.519   4.946  17.584
81830W        W82694  11.266   3.764  16.157
81831W        W82695  13.058   4.087  16.663
81832W        W82696  12.764   4.252  17.800
81833W        W82697  13.055   4.326  15.072
81834W        W82698  14.383   6.795  17.809
81835W        W82699  13.163   3.903  17.838
81836W        W82700  14.270   6.283  17.922
81837W        W82701  13.783   4.429  17.627
81838W        W82702  13.386   4.256  15.752
81839W        W82703  13.873   5.392  18.022
81840W        W82704  11.666   6.957  16.256
81841W        W82705  12.513   4.422  15.006
81842W        W82706  11.815   4.050  17.822
81843W        W82707  13.715   4.642  15.700
81844W        W82708  14.056   5.061  15.605
81845W        W82709  12.079   7.236  17.851
81846W        W82710  11.804   3.581  15.153
81847W        W82711  14.160   4.216  16.315
81848W        W82712  14.501   6.484  14.621
81849W        W82713  11.195   5.627  16.401
81850W        W82714  13.256   4.206  14.455
81851W        W82715  14.371   6.593  16.429
81852W        W82716  14.315   3.769  17.048
81853W        W82717  12.958   5.130  17.725
81854W        W82718  13.022   6.156  15.624
81855W        W82719  13.437   5.598  18.250
81856W        W82720  13.191   3.635  16.463
81857W        W82721  11.564   4.617  16.442
81858W        W82722  11.157   5.851  17.281
81859W        W82723  13.029   6.896  16.059
81860W        W82724  14.107   4.869  16.931
81861W        W82725  12.981   6.969  17.509
81862W        W82726  14.133   5.660  14.790
81863W        W82727  12.780   5.403  15.905
81864W        W82728  14.455   3.726  17.558
81865W        W82729  12.694   5.907  17.222
81866W        W82730  12.942   4.617  16.596
81867W        W82731  13.549   5.110  15.574
81868W        W82732  13.707   4.948  15.114
81869W        W82733  14.000   6.711  15.521
81870W        W82734  13.540   6.185  16.384
81871W        W82735  13.429   5.465  15.243
81872W        W82736  13.020   5.487  16.381
81873W        W82737  13.972   5.468  16.337
81874W        W82738  11.341   4.338  16.819
81875W        W82739  14.020   5.442  17.548
81876W        W82740  14.400   7.005  16.748
81877W        W82741  12.337   6.689  16.228
81878W        W82742  13.499   7.042  17.375
81879W        W82743  13.321   4.248  17.122
81880W        W82744  12.595   7.175  17.216
81881W        W82745  13.902   4.175  15.864
81882W        W82746  13.943   5.359  16.844
81883W        W82747  11.006   4.556  17.121
81884W        W82748  13.694   4.502  16.218
81885W        W82749  14.276   4.657  17.795
81886W        W82750  13.121   6.356  16.134
81887W        W82751  12.476   6.963  15.815
81888W        W82752  11.523   3.960  14.923
81889W        W82753  12.554   3.732  16.798
81890W        W82754  11.651   7.152  14.923
81891W        W82755  12.342   5.673  15.245
81892W        W82756  12.727   6.023  17.705
81893W        W82757  12.629   4.101  15.827
81894W        W82758  14.050   3.728  16.159
81895W        W82759  13.608   7.249  16.338
81896W        W82760  13.069   6.966  16.619
81897W        W82761  12.494   5.885  16.749
81898W        W82762  14.161   6.577  16.908
81899W        W82763  11.951   3.969  15.569
81900W        W82764  12.324   6.429  16.659
81901W        W82765  11.788   4.258  14.540
81902W        W82766  12.723   4.874  16.984
81903W        W82767  13.512   3.816  16.882
81904W        W82768  10.988   5.599  16.871
81905W        W82769  12.517   5.376  14.809
81906W        W82770  11.875   3.747  14.575
81907W        W82771  12.691   4.909  15.756
81908W        W82772  13.514   3.944  17.474
81909W        W82773  12.235   5.890  17.513
81910W        W82774  13.083   5.630  17.835
81911W        W82775  13.572   5.763  17.765
81912W        W82776  12.834   3.921  18.230
81913W        W82777  12.061   4.490  16.509
81914W        W82778  11.491   4.265  16.043
81915W        W82779  11.313   7.006  15.873
81916W        W82780  12.851   6.532  17.758
81917W        W82781  12.084   6.125  15.173
81918W        W82782  13.514   5.320  16.465
81919W        W82783  13.595   4.941  16.793
81920W        W82784  12.956   5.631  16.871
81921W        W82785  13.476   6.212  14.653
81922W        W82786  13.084   3.909  16.019
81923W        W82787  14.176   4.518  15.530
81924W        W82788  11.164   7.036  17.637
81925W        W82789  11.405   6.230  17.006
81926W        W82790  10.925   7.029  15.527
81927W        W82791  12.815   4.363  17.036
81928W        W82792  11.944   6.631  15.102
81929W        W82793  14.162   6.680  15.005
81930W        W82794  12.969   5.447  15.039
81931W        W82795  12.426   4.511  15.535
81932W        W82796  12.762   4.366  14.550
81933W        W82797  13.218   6.138  17.817
81934W        W82798  13.618   3.918  15.438
81935W        W82799  11.011   3.725  14.799
81936W        W82800  12.310   6.223  17.124
81937W        W82801  12.116   6.006  16.415
81938W        W82802  11.928   6.251  14.680
81939W        W82803  10.847   6.522  15.493
81940W        W82804  11.696   5.438  17.686
81941W        W82805  12.336   3.903  18.090
81942W        W82806  12.959   3.992  17.383
81943W        W82807  12.264   3.723  15.934
81944W        W82808  13.165   3.706  15.048
81945W        W82809  11.264   3.841  16.723
81946W        W82810  11.131   4.647  16.143
81947W        W82811  13.975   3.904  16.674
81948W        W82812  11.210   4.189  15.266
81949W        W82813  13.869   4.122  17.125
81950W        W82814  14.089   5.139  14.836
81951W        W82815  11.700   4.106  16.508
81952W        W82816  12.887   4.663  17.458
81953W        W82817  10.793   4.160  14.947
81954W        W82818  11.701   5.892  17.383
81955W        W82819  13.102   5.102  16.715
81956W        W82820  12.784   7.191  14.891
81957W        W82821  11.023   5.951  14.438
81958W        W82822  11.886   6.250  17.747
81959W        W82823  11.363   5.364  17.267
81960W        W82824  12.513   5.461  17.086
81961W        W82825  13.960   3.706  17.412
81962W        W82826  14.538   5.496  17.467
81963W        W82827  14.455   5.526  15.282
81964W        W82828  13.201   5.917  15.181
81965W        W82829  13.876   7.171  14.676
81966W        W82830  12.997   5.306  18.227
81967W        W82831  11.466   6.251  18.039
81968W        W82832  14.628   4.242  17.983
81969W        W82833  13.961   4.932  16.453
81970W        W82834  12.471   7.073  18.152
81971W        W82835  12.292   3.637  14.928
81972W        W82836  14.007   6.251  14.737
81973W        W82837  11.848   4.556  17.683
81974W        W82838  12.359   6.397  17.602
81975W        W82839  14.204   4.468  17.308
81976W        W82840  13.770   7.024  15.171
81977W        W82841  13.723   5.788  16.668
81978W        W82842  11.980   4.182  17.348
81979W        W82843  12.540   5.199  18.038
81980W        W82844  11.840   6.334  15.580
81981W        W82845  13.711   5.852  15.476
81982W        W82846  11.470   4.378  17.342
81983W        W82847  12.682   6.483  15.879
81984W        W82848  14.258   5.164  16.069
81985W        W82849  12.682   3.738  17.758
81986W        W82850  13.698   6.505  16.727
81987W        W82851  13.950   6.873  16.490
81988W        W82852  12.890   6.682  14.800
81989W        W82853  11.057   6.546  17.870
81990W        W82854  11.811   4.485  16.951
81991W        W82855  11.781   3.838  16.065
81992W        W82856  13.420   4.463  16.675
81993W        W82857  12.232   5.823  14.747
81994W        W82858  14.293   5.730  16.657
81995W        W82859  11.542   6.691  17.754
81996W        W82860  14.066   7.235  15.569
81997W        W82861  12.242   4.178  16.158
81998W        W82862  11.696   5.492  16.480
81999W        W82863  12.082   7.239  17.048
82000W        W82864  14.047   7.178  17.929
82001W        W82865  13.413   5.409  16.965
82002W        W82866  11.299   4.864  14.567
82003W        W82867  14.276   6.801  15.943
82004W        W82868  13.740   4.383  15.245
82005W        W82869  12.182   3.748  17.599
82006W        W82870  13.901   6.476  16.144
82007W        W82871  13.728   5.023  16.035
82008W        W82872  12.230   4.710  16.049
82009W        W82873  12.524   5.041  17.424
82010W        W82874  13.534   6.149  17.411
82011W        W82875  12.360   4.540  17.455
82012W        W82876  12.136   7.161  16.167
82013W        W82877  11.583   7.177  17.956
82014W        W82878  11.621   6.691  14.647
82015W        W82879  14.036   6.199  15.697
82016W        W82880  11.955   4.863  17.289
82017W        W82881  13.995   4.599  14.841
82018W        W82882  12.555   6.132  15.390
82019W        W82883  13.409   5.348  17.530
82020W        W82884  13.210   4.750  17.069
82021W        W82885  11.806   5.296  16.996
82022W        W82886  13.966   7.019  17.085
82023W        W82887  13.670   4.033  17.959
82024W        W82888  11.317   3.972  17.669
82025W        W82889  11.896   4.995  16.578
82026W        W82890  12.285   4.650  14.580
82027W        W82891  10.934   6.623  17.372
82028W        W82892  12.636   5.267  16.635
82029W        W82893  12.301   4.084  14.621
82030W        W82894  12.060   5.623  16.104
82031W        W82895  11.063   7.082  17.128
82032W        W82896  13.937   5.441  15.244
82033W        W82897  14.187   4.129  17.723
82034W        W82898  13.509   6.131  15.862
82035W        W82899  11.142   5.321  17.728
82036W        W82900  14.011   4.010  14.941
82037W        W82901  13.813   6.325  15.215
82038W        W82902  12.591   5.233  15.329
82039W        W82903  13.498   4.052  14.899
82040W        W82904  13.703   4.607  17.160
82041W        W82905  11.348   5.108  16.277
82042W        W82906  11.758   6.071  16.024
82043W        W82907  13.228   4.779  15.855
82044W        W82908  12.557   4.250  16.574
82045W        W82909  14.434   6.181  17.058
82046W        W82910  14.361   4.237  16.841
82047W        W82911  10.941   6.979  16.238
82048W        W82912  11.307   6.312  15.579
82049W        W82913  11.378   4.038  18.175
82050W        W82914  12.462   6.556  18.097
82051W        W82915  14.424   5.680  16.156
82052W        W82916  13.692   5.859  14.963
82053W        W82917  13.109   7.204  17.070
82054W        W82918  13.927   5.897  18.101
82055W        W82919  12.706   3.585  15.245
82056W        W82920  13.188   4.375  16.213
82057W        W82921  11.064   6.084  16.641
82058W        W82922  12.448   4.015  15.345
82059W        W82923  12.195   5.543  17.887
82060W        W82924  12.930   4.457  15.601
82061W        W82925  13.359   6.048  16.935
82062W        W82926  11.411   6.703  17.260
82063W        W82927  12.026   6.730  17.904
82064W        W82928  12.016   4.059  15.044
82065W        W82929  13.322   4.692  15.344
82066W        W82930  13.351   6.603  17.601
82067W        W82931  12.368   5.189  16.193
82068W        W82932  11.576   7.122  17.059
82069W        W82933  14.379   6.989  14.631
82070W        W82934  11.329   5.813  17.766
82071W        W82935  13.038   5.997  16.520
82072W        W82936  12.027   5.855  15.631
82073W        W82937  12.194   6.723  17.080
82074W        W82938  12.651   3.802  16.285
82075W        W82939  10.891   6.029  15.275
82076W        W82940  12.732   4.890  14.695
82077W        W82941  11.542   5.608  16.010
82078W        W82942  12.463   4.037  17.247
82079W        W82943  14.194   3.861  14.469
82080W        W82944  14.344   5.686  17.908
82081W        W82945  12.961   6.979  18.025
82082W        W82946  14.492   6.003  17.524
82083W        W82947  13.968   6.690  18.117
82084W        W82948  11.748   7.312  16.629
82085W        W82949  14.550   5.986  15.691
82086W        W82950  13.271   5.265  15.999
82087W        W82951  12.732   3.607  15.757
82088W        W82952  11.997   6.751  15.868
82089W        W82953  12.328   4.540  16.954
82090W        W82954  12.140   3.753  16.455
82091W        W82955  11.332   6.770  15.083
82092W        W82956  12.953   5.870  16.036
82093W        W82957  11.894   6.910  17.443
82094W        W82958  11.213   5.808  15.652
82095W        W82959  11.112   4.201  16.375
82096W        W82960  12.594   6.162  16.285
82097W        W82961  10.839   3.898  15.454
82098W        W82962  13.751   5.114  17.245
82099W        W82963  13.463   4.552  14.822
82100W        W82964  14.062   6.184  16.558
82101W        W82965  12.782   6.604  16.425
82102W        W82966  12.136   7.033  15.418
82103W        W82967  13.196   3.696  14.522
82104W        W82968  11.297   6.986  16.631
82105W        W82969  13.064   4.756  18.050
82106W        W82970  11.366   4.462  17.847
82107W        W82971  10.990   4.792  15.670
82108W        W82972  12.332   4.919  15.018
82109W        W82973  13.428   5.137  18.004
82110W        W82974  12.177   5.473  16.618
82111W        W82975  13.578   3.756  15.954
82112W        W82976  12.641   7.114  16.309
82113W        W82977  13.699   6.589  17.215
82114W        W82978  13.467   6.743  16.316
82115W        W82979  13.421   5.739  16.197
82116W        W82980  12.730   3.963  14.896
82117W        W82981  14.553   3.796  16.022
82118W        W82982  12.112   5.160  14.556
82119W        W82983  14.135   4.667  16.036
82120W        W82984  12.716   5.893  14.950
82121W        W82985  13.996   5.962  17.580
82122W        W82986  13.684   6.677  14.780
82123W        W82987  12.252   4.359  17.921
82124W        W82988  12.256   5.056  16.932
82125W        W82989  14.161   6.420  17.424
82126W        W82990  13.264   4.363  17.655
82127W        W82991  11.010   4.834  17.565
82128W        W82992  12.986   5.248  17.227
82129W        W82993  11.243   6.085  16.092
82130W        W82994  11.354   5.246  16.763
82131W        W82995  13.699   5.698  17.242
82132W        W82996  13.552   6.980  17.909
82133W        W82997  13.381   4.841  17.554
82134W        W82998  13.783   6.970  15.944
82135W        W82999  12.677   6.639  17.246
82136W        W83000  12.069   6.906  16.613
82137W        W83001  13.904   6.134  17.049
82138W        W83002  12.836   6.187  18.178
82139W        W83003  11.562   6.009  16.487
82140W        W83004  13.909   5.920  16.122
82141W        W83005  13.539   6.997  16.814
82142W        W83006  11.666   6.658  16.815
82143W        W83007  12.596   4.736  17.867
82144W        W83008  12.775   6.777  15.437
82145W        W83009  12.312   6.065  18.007
82146W        W83010  12.302   6.557  15.496
82147W        W83011  11.784   4.765  14.423
82148W        W83012  11.035   7.313  21.704
82149W        W83013  11.508   6.203  21.171
82150W        W83014  14.209   5.951  18.826
82151W        W83015  14.450   6.867  20.812
82152W        W83016  11.972   7.024  18.326
82153W        W83017  12.250   5.034  19.534
82154W        W83018  11.837   4.837  19.785
82155W        W83019  12.728   5.608  19.042
82156W        W83020  12.561   6.993  21.195
82157W        W83021  11.021   4.283  21.240
82158W        W83022  11.661   3.539  21.033
82159W        W83023  13.575   4.054  19.902
82160W        W83024  13.270   4.944  18.493
82161W        W83025  13.660   4.343  21.510
82162W        W83026  11.075   4.020  20.801
82163W        W83027  11.244   6.827  21.756
82164W        W83028  12.449   6.261  18.541
82165W        W83029  11.075   4.778  20.293
82166W        W83030  12.204   4.898  21.388
82167W        W83031  14.406   4.598  19.980
82168W        W83032  14.164   5.642  20.689
82169W        W83033  12.698   4.980  19.882
82170W        W83034  13.238   6.436  20.108
82171W        W83035  11.520   5.716  20.475
82172W        W83036  10.786   5.223  20.274
82173W        W83037  12.121   5.463  21.156
82174W        W83038  14.214   5.115  21.380
82175W        W83039  11.817   6.508  19.878
82176W        W83040  12.905   6.269  20.969
82177W        W83041  12.524   4.684  20.288
82178W        W83042  12.498   5.481  19.935
82179W        W83043  13.287   6.539  21.585
82180W        W83044  12.842   5.657  21.826
82181W        W83045  12.620   5.581  21.104
82182W        W83046  10.672   4.618  21.669
82183W        W83047  13.722   6.466  21.311
82184W        W83048  11.317   3.841  19.347
82185W        W83049  12.124   6.342  20.250
82186W        W83050  14.374   6.033  19.754
82187W        W83051  13.988   4.377  20.210
82188W        W83052  13.991   4.398  18.133
82189W        W83053  14.648   5.085  20.648
82190W        W83054  12.599   7.183  20.366
82191W        W83055  14.429   6.436  18.954
82192W        W83056  11.349   7.202  18.978
82193W        W83057  11.753   7.138  19.330
82194W        W83058  11.547   3.845  20.597
82195W        W83059  14.194   5.071  20.864
82196W        W83060  13.646   5.395  19.436
82197W        W83061  13.733   5.224  18.496
82198W        W83062  12.836   6.192  20.318
82199W        W83063  12.808   4.456  19.786
82200W        W83064  13.207   6.483  20.603
82201W        W83065  14.163   5.467  19.382
82202W        W83066  13.191   3.961  19.129
82203W        W83067  11.538   6.739  19.069
82204W        W83068  10.935   4.118  19.556
82205W        W83069  13.503   5.017  19.793
82206W        W83070  11.307   6.510  20.033
82207W        W83071  12.362   6.783  18.570
82208W        W83072  14.030   4.920  18.189
82209W        W83073  11.153   6.581  20.542
82210W        W83074  11.997   6.508  20.746
82211W        W83075  12.404   5.710  19.484
82212W        W83076  11.978   4.030  20.358
82213W        W83077  14.467   3.785  20.065
82214W        W83078  11.821   5.850  18.055
82215W        W83079  11.324   4.517  18.363
82216W        W83080  11.446   6.527  19.529
82217W        W83081  12.174   6.181  19.467
82218W        W83082  14.036   6.924  21.108
82219W        W83083  12.958   4.576  18.769
82220W        W83084  14.172   7.014  19.728
82221W        W83085  13.761   5.021  21.145
82222W        W83086  14.536   6.480  19.479
82223W        W83087  13.142   5.764  20.992
82224W        W83088  10.642   5.395  19.339
82225W        W83089  11.996   5.952  20.571
82226W        W83090  13.235   4.959  19.013
82227W        W83091  13.149   5.405  19.271
82228W        W83092  11.455   4.836  20.645
82229W        W83093  11.365   4.680  21.118
82230W        W83094  11.284   3.711  19.839
82231W        W83095  13.095   4.153  20.137
82232W        W83096  12.813   4.148  21.490
82233W        W83097  13.169   4.110  18.647
82234W        W83098  14.488   6.713  21.329
82235W        W83099  13.172   3.717  21.335
82236W        W83100  14.173   6.230  21.532
82237W        W83101  13.745   4.303  21.021
82238W        W83102  13.561   4.219  19.397
82239W        W83103  13.837   5.336  21.635
82240W        W83104  11.561   6.943  19.840
82241W        W83105  12.464   4.506  18.904
82242W        W83106  11.828   3.902  21.372
82243W        W83107  13.942   4.549  19.101
82244W        W83108  14.277   5.010  19.154
82245W        W83109  12.034   7.136  21.556
82246W        W83110  11.805   3.749  18.802
82247W        W83111  14.237   4.160  19.805
82248W        W83112  14.451   6.501  18.387
82249W        W83113  11.062   5.640  20.143
82250W        W83114  13.215   4.283  18.170
82251W        W83115  14.452   6.477  19.999
82252W        W83116  14.319   3.815  20.590
82253W        W83117  12.942   4.976  21.198
82254W        W83118  12.764   6.184  18.970
82255W        W83119  13.363   5.482  21.818
82256W        W83120  13.131   3.662  19.934
82257W        W83121  11.498   4.585  20.075
82258W        W83122  11.207   5.932  20.829
82259W        W83123  13.111   6.889  19.756
82260W        W83124  14.269   4.742  20.466
82261W        W83125  13.088   7.163  20.917
82262W        W83126  14.395   5.993  18.332
82263W        W83127  12.679   5.271  19.438
82264W        W83128  14.464   3.843  21.148
82265W        W83129  12.741   5.849  20.696
82266W        W83130  13.036   4.665  20.224
82267W        W83131  13.756   5.003  18.986
82268W        W83132  14.169   4.874  18.683
82269W        W83133  14.071   6.680  19.255
82270W        W83134  13.593   6.104  19.935
82271W        W83135  13.522   5.449  18.917
82272W        W83136  13.003   5.488  19.759
82273W        W83137  14.002   5.383  19.881
82274W        W83138  11.346   4.332  20.493
82275W        W83139  13.983   5.485  21.127
82276W        W83140  14.382   6.910  20.236
82277W        W83141  12.309   6.548  19.809
82278W        W83142  13.594   7.116  20.880
82279W        W83143  13.367   4.368  20.631
82280W        W83144  12.626   7.361  20.841
82281W        W83145  14.173   4.102  19.293
82282W        W83146  14.147   5.244  20.374
82283W        W83147  10.962   4.529  20.761
82284W        W83148  13.828   4.504  19.734
82285W        W83149  14.116   4.646  21.137
82286W        W83150  13.168   6.331  19.584
82287W        W83151  12.435   6.873  19.409
82288W        W83152  11.344   4.065  18.700
82289W        W83153  12.766   3.752  20.288
82290W        W83154  11.495   7.167  18.481
82291W        W83155  12.285   5.362  19.097
82292W        W83156  12.823   5.953  21.369
82293W        W83157  12.698   4.140  19.243
82294W        W83158  13.989   3.740  19.665
82295W        W83159  13.541   7.113  19.964
82296W        W83160  13.010   6.881  20.273
82297W        W83161  12.421   5.861  20.292
82298W        W83162  14.169   6.524  20.516
82299W        W83163  11.759   4.074  19.209
82300W        W83164  12.553   6.645  20.324
82301W        W83165  11.805   4.401  18.193
82302W        W83166  12.817   4.824  20.699
82303W        W83167  13.442   3.802  20.354
82304W        W83168  10.910   5.577  20.628
82305W        W83169  12.564   5.383  18.564
82306W        W83170  11.871   3.897  18.316
82307W        W83171  12.626   4.710  19.369
82308W        W83172  13.458   3.862  20.891
82309W        W83173  12.273   5.971  21.043
82310W        W83174  13.037   5.458  21.393
82311W        W83175  13.524   5.587  21.325
82312W        W83176  12.835   3.832  21.898
82313W        W83177  12.015   4.551  20.208
82314W        W83178  11.448   4.250  19.641
82315W        W83179  11.236   6.994  19.448
82316W        W83180  12.794   6.560  21.422
82317W        W83181  11.967   6.128  18.704
82318W        W83182  13.483   5.572  19.935
82319W        W83183  13.648   5.191  20.233
82320W        W83184  12.889   5.624  20.261
82321W        W83185  13.491   6.124  18.270
82322W        W83186  13.099   4.067  19.621
82323W        W83187  14.448   4.455  19.014
82324W        W83188  11.215   7.042  21.267
82325W        W83189  11.566   6.235  20.653
82326W        W83190  10.867   7.079  19.089
82327W        W83191  12.839   4.316  20.570
82328W        W83192  11.876   6.645  18.691
82329W        W83193  14.086   6.713  18.667
82330W        W83194  13.060   5.376  18.728
82331W        W83195  12.235   4.322  19.383
82332W        W83196  12.713   4.424  18.293
82333W        W83197  13.329   6.043  21.442
82334W        W83198  13.783   4.086  18.953
82335W        W83199  10.979   3.739  18.528
82336W        W83200  12.441   6.255  20.641
82337W        W83201  12.081   5.919  19.917
82338W        W83202  11.982   6.369  18.256
82339W        W83203  11.041   6.596  19.186
82340W        W83204  11.656   5.272  21.239
82341W        W83205  12.305   3.903  21.594
82342W        W83206  12.921   3.955  20.940
82343W        W83207  12.190   3.794  19.386
82344W        W83208  13.517   3.698  18.776
82345W        W83209  11.106   3.806  20.335
82346W        W83210  11.110   4.627  19.702
82347W        W83211  13.972   3.831  20.171
82348W        W83212  11.226   4.338  19.175
82349W        W83213  13.826   4.075  20.584
82350W        W83214  14.180   5.532  18.402
82351W        W83215  11.548   4.070  20.106
82352W        W83216  12.831   4.475  21.095
82353W        W83217  10.901   4.244  18.475
82354W        W83218  11.712   5.764  20.960
82355W        W83219  13.123   5.165  20.142
82356W        W83220  12.810   7.130  18.592
82357W        W83221  10.638   5.459  18.243
82358W        W83222  11.976   6.388  21.257
82359W        W83223  11.324   5.410  20.874
82360W        W83224  12.315   5.529  20.678
82361W        W83225  13.972   3.802  20.997
82362W        W83226  14.521   5.433  21.035
82363W        W83227  14.532   5.545  18.800
82364W        W83228  13.193   5.849  18.997
82365W        W83229  13.799   7.105  18.391
82366W        W83230  12.984   5.125  21.803
82367W        W83231  11.667   6.337  21.675
82368W        W83232  14.600   4.244  21.727
82369W        W83233  14.001   4.888  20.028
82370W        W83234  12.649   7.060  21.699
82371W        W83235  12.294   3.690  18.567
82372W        W83236  13.978   6.272  18.428
82373W        W83237  11.932   4.389  21.196
82374W        W83238  12.430   6.512  21.069
82375W        W83239  14.250   4.243  20.859
82376W        W83240  13.748   6.959  18.946
82377W        W83241  13.795   5.712  20.326
82378W        W83242  11.964   3.986  20.868
82379W        W83243  12.585   5.227  21.468
82380W        W83244  11.750   6.262  19.153
82381W        W83245  13.795   5.822  19.140
82382W        W83246  11.508   4.208  20.976
82383W        W83247  12.642   6.392  19.421
82384W        W83248  14.429   5.046  19.681
82385W        W83249  12.663   3.678  21.311
82386W        W83250  13.670   6.384  20.362
82387W        W83251  13.917   6.765  20.115
82388W        W83252  12.845   6.639  18.433
82389W        W83253  11.156   6.374  21.512
82390W        W83254  11.833   4.464  20.674
82391W        W83255  11.744   3.838  19.675
82392W        W83256  13.561   4.669  20.211
82393W        W83257  12.253   5.778  18.434
82394W        W83258  14.315   5.701  20.174
82395W        W83259  11.633   6.768  21.401
82396W        W83260  14.094   7.229  19.256
82397W        W83261  12.105   4.137  19.862
82398W        W83262  11.563   5.613  19.965
82399W        W83263  12.158   7.364  20.596
82400W        W83264  14.269   7.206  21.476
82401W        W83265  13.324   5.482  20.501
82402W        W83266  11.235   4.927  18.037
82403W        W83267  14.514   6.945  19.245
82404W        W83268  14.110   4.350  18.636
82405W        W83269  12.195   3.595  21.095
82406W        W83270  14.036   6.439  19.721
82407W        W83271  13.940   4.989  19.524
82408W        W83272  12.327   4.606  19.809
82409W        W83273  12.466   5.114  20.961
82410W        W83274  13.446   6.192  20.948
82411W        W83275  12.346   4.622  20.979
82412W        W83276  12.064   7.009  19.757
82413W        W83277  11.545   7.225  21.625
82414W        W83278  11.569   6.707  18.264
82415W        W83279  14.157   6.161  19.303
82416W        W83280  11.861   4.867  20.996
82417W        W83281  14.432   4.602  18.304
82418W        W83282  12.325   5.920  19.003
82419W        W83283  13.331   5.261  20.994
82420W        W83284  13.319   4.950  20.583
82421W        W83285  11.813   5.311  20.710
82422W        W83286  13.995   7.002  20.581
82423W        W83287  13.656   3.837  21.425
82424W        W83288  11.310   3.846  21.275
82425W        W83289  11.744   5.030  20.264
82426W        W83290  12.251   4.756  18.247
82427W        W83291  11.045   6.398  21.007
82428W        W83292  12.598   5.194  20.370
82429W        W83293  12.252   4.256  18.451
82430W        W83294  12.009   5.438  19.738
82431W        W83295  11.292   7.165  20.775
82432W        W83296  14.039   5.423  18.885
82433W        W83297  14.145   4.180  21.395
82434W        W83298  13.663   6.260  19.415
82435W        W83299  11.157   5.148  21.293
82436W        W83300  14.193   3.852  18.749
82437W        W83301  13.845   6.325  18.922
82438W        W83302  12.730   5.050  18.970
82439W        W83303  13.643   4.187  18.463
82440W        W83304  13.793   4.723  20.696
82441W        W83305  11.343   5.071  19.917
82442W        W83306  11.690   6.073  19.628
82443W        W83307  13.530   4.733  19.365
82444W        W83308  12.533   4.193  20.146
82445W        W83309  14.420   6.076  20.607
82446W        W83310  14.470   4.256  20.379
82447W        W83311  10.981   6.921  19.895
82448W        W83312  11.222   6.115  19.310
82449W        W83313  11.383   3.906  21.848
82450W        W83314  12.289   6.706  21.545
82451W        W83315  14.529   5.551  19.730
82452W        W83316  13.770   5.797  18.601
82453W        W83317  13.033   7.482  20.495
82454W        W83318  13.754   5.852  21.711
82455W        W83319  12.570   3.679  19.036
82456W        W83320  13.313   4.516  19.783
82457W        W83321  11.158   6.106  20.336
82458W        W83322  12.213   4.044  18.939
82459W        W83323  12.390   5.700  21.554
82460W        W83324  13.089   4.475  19.289
82461W        W83325  13.324   5.994  20.433
82462W        W83326  11.493   6.683  20.919
82463W        W83327  11.768   6.826  21.894
82464W        W83328  11.807   4.269  18.703
82465W        W83329  13.450   4.475  18.916
82466W        W83330  13.274   6.680  21.072
82467W        W83331  12.214   5.056  20.062
82468W        W83332  11.799   7.016  20.682
82469W        W83333  14.327   7.002  18.301
82470W        W83334  11.291   5.715  21.289
82471W        W83335  13.095   5.962  19.933
82472W        W83336  11.926   5.750  19.300
82473W        W83337  12.337   6.906  20.720
82474W        W83338  12.588   3.924  19.716
82475W        W83339  10.731   5.967  18.957
82476W        W83340  12.733   4.915  18.441
82477W        W83341  11.119   5.491  19.655
82478W        W83342  12.434   4.081  21.068
82479W        W83343  14.277   3.991  18.261
82480W        W83344  14.222   5.690  21.523
82481W        W83345  13.086   6.993  21.431
82482W        W83346  14.355   5.940  21.096
82483W        W83347  14.053   6.742  21.617
82484W        W83348  11.737   7.264  20.239
82485W        W83349  14.537   5.828  19.269
82486W        W83350  13.072   4.942  19.526
82487W        W83351  12.905   3.608  19.444
82488W        W83352  11.954   6.659  19.400
82489W        W83353  12.323   4.302  20.599
82490W        W83354  12.276   3.698  20.112
82491W        W83355  11.131   6.815  18.690
82492W        W83356  12.880   5.906  19.437
82493W        W83357  12.039   6.877  21.118
82494W        W83358  11.064   5.621  19.148
82495W        W83359  11.071   4.232  20.040
82496W        W83360  12.578   6.056  19.840
82497W        W83361  10.922   3.959  19.011
82498W        W83362  13.756   5.262  20.706
82499W        W83363  13.719   4.691  18.535
82500W        W83364  14.077   6.149  20.169
82501W        W83365  12.798   6.515  19.899
82502W        W83366  12.131   6.971  19.003
82503W        W83367  13.345   3.779  18.295
82504W        W83368  11.311   6.996  20.286
82505W        W83369  13.196   4.602  21.544
82506W        W83370  11.482   4.282  21.484
82507W        W83371  10.883   4.914  19.284
82508W        W83372  12.286   4.969  18.720
82509W        W83373  13.390   5.079  21.485
82510W        W83374  12.002   5.514  20.258
82511W        W83375  13.474   3.708  19.508
82512W        W83376  12.571   6.991  19.903
82513W        W83377  13.730   6.611  20.815
82514W        W83378  13.562   6.616  19.782
82515W        W83379  13.384   5.835  19.502
82516W        W83380  12.668   4.069  18.701
82517W        W83381  14.519   3.786  19.547
82518W        W83382  12.107   5.258  18.308
82519W        W83383  14.269   4.594  19.488
82520W        W83384  12.799   5.843  18.582
82521W        W83385  13.852   5.980  21.212
82522W        W83386  13.602   6.631  18.503
82523W        W83387  12.370   4.405  21.454
82524W        W83388  12.162   4.924  20.573
82525W        W83389  14.164   6.422  21.036
82526W        W83390  13.267   4.216  21.207
82527W        W83391  10.843   4.763  21.195
82528W        W83392  12.896   5.343  20.750
82529W        W83393  11.237   6.010  19.825
82530W        W83394  11.294   5.257  20.392
82531W        W83395  13.623   5.724  20.830
82532W        W83396  13.605   6.967  21.387
82533W        W83397  13.366   4.704  21.050
82534W        W83398  13.702   6.989  19.472
82535W        W83399  12.812   6.750  20.784
82536W        W83400  12.115   6.900  20.253
82537W        W83401  13.920   6.108  20.705
82538W        W83402  12.904   6.202  21.800
82539W        W83403  11.653   6.108  20.158
82540W        W83404  13.908   5.835  19.648
82541W        W83405  13.504   6.867  20.421
82542W        W83406  11.677   6.638  20.358
82543W        W83407  12.705   4.736  21.622
82544W        W83408  12.690   6.727  18.964
82545W        W83409  12.401   6.214  21.512
82546W        W83410  12.257   6.449  19.018
82547W        W83411  11.750   4.901  18.071
82548W        W83412  11.159   7.158  25.460
82549W        W83413  11.399   6.158  24.921
82550W        W83414  14.020   5.660  22.622
82551W        W83415  14.518   6.830  24.689
82552W        W83416  11.842   7.040  22.368
82553W        W83417  12.242   5.303  23.005
82554W        W83418  12.021   4.913  23.666
82555W        W83419  12.796   5.554  22.717
82556W        W83420  12.528   6.950  24.979
82557W        W83421  11.017   4.415  24.935
82558W        W83422  11.602   3.611  24.799
82559W        W83423  13.545   4.005  23.568
82560W        W83424  13.188   4.834  22.192
82561W        W83425  13.735   4.357  25.301
82562W        W83426  11.067   4.087  24.543
82563W        W83427  11.310   6.686  25.592
82564W        W83428  12.558   6.318  22.398
82565W        W83429  11.089   4.795  23.998
82566W        W83430  12.124   5.006  25.096
82567W        W83431  14.268   4.485  23.683
82568W        W83432  14.123   5.685  24.510
82569W        W83433  12.851   4.940  23.513
82570W        W83434  13.089   6.439  24.094
82571W        W83435  11.391   5.802  24.140
82572W        W83436  10.786   5.181  23.818
82573W        W83437  12.066   5.407  24.760
82574W        W83438  14.230   5.083  25.134
82575W        W83439  11.840   6.614  23.684
82576W        W83440  13.017   6.294  24.599
82577W        W83441  12.459   4.656  23.735
82578W        W83442  12.662   5.713  23.697
82579W        W83443  13.037   6.556  25.435
82580W        W83444  12.515   5.653  25.467
82581W        W83445  12.535   5.463  24.983
82582W        W83446  10.985   4.738  25.364
82583W        W83447  13.788   6.474  25.107
82584W        W83448  11.338   3.868  23.047
82585W        W83449  12.061   6.438  24.281
82586W        W83450  14.405   6.064  23.681
82587W        W83451  13.842   4.281  23.915
82588W        W83452  14.021   4.400  21.861
82589W        W83453  14.623   5.085  24.396
82590W        W83454  12.665   7.044  24.137
82591W        W83455  14.236   6.271  22.587
82592W        W83456  11.406   7.103  22.653
82593W        W83457  11.739   7.087  23.102
82594W        W83458  11.544   3.953  24.399
82595W        W83459  14.190   4.921  24.622
82596W        W83460  13.574   5.422  23.322
82597W        W83461  13.598   5.029  21.971
82598W        W83462  12.759   6.066  24.204
82599W        W83463  12.737   4.475  23.308
82600W        W83464  13.300   6.766  24.454
82601W        W83465  14.021   5.435  23.094
82602W        W83466  13.171   4.074  22.738
82603W        W83467  11.709   6.690  22.785
82604W        W83468  10.972   4.222  23.213
82605W        W83469  13.447   5.002  23.598
82606W        W83470  11.305   6.593  23.756
82607W        W83471  12.242   6.976  22.023
82608W        W83472  13.841   4.801  21.587
82609W        W83473  11.100   6.616  24.236
82610W        W83474  11.837   6.332  24.724
82611W        W83475  12.560   5.676  23.180
82612W        W83476  11.994   4.025  24.161
82613W        W83477  14.445   3.833  23.668
82614W        W83478  11.911   5.904  21.420
82615W        W83479  11.493   4.382  21.993
82616W        W83480  11.523   6.620  23.275
82617W        W83481  12.350   6.180  23.288
82618W        W83482  14.063   6.895  24.967
82619W        W83483  12.938   4.487  22.483
82620W        W83484  14.125   7.223  23.566
82621W        W83485  13.771   4.922  24.919
82622W        W83486  14.600   6.618  23.333
82623W        W83487  13.106   5.766  24.719
82624W        W83488  10.885   5.378  22.963
82625W        W83489  11.864   5.952  24.338
82626W        W83490  13.527   4.914  22.580
82627W        W83491  13.190   5.629  23.037
82628W        W83492  11.374   4.850  24.445
82629W        W83493  11.494   4.874  24.957
82630W        W83494  11.339   3.790  23.556
82631W        W83495  13.205   4.178  23.917
82632W        W83496  12.803   4.221  25.174
82633W        W83497  13.241   4.043  22.222
82634W        W83498  14.471   6.870  25.270
82635W        W83499  13.157   3.831  25.144
82636W        W83500  14.259   6.380  25.334
82637W        W83501  13.761   4.353  24.775
82638W        W83502  13.585   4.183  23.054
82639W        W83503  13.927   5.336  25.486
82640W        W83504  11.529   7.035  23.576
82641W        W83505  12.424   4.461  22.414
82642W        W83506  11.796   4.008  25.088
82643W        W83507  13.897   4.476  22.717
82644W        W83508  14.385   5.055  23.151
82645W        W83509  12.146   7.113  25.270
82646W        W83510  11.919   3.664  22.440
82647W        W83511  14.053   4.099  23.446
82648W        W83512  14.518   6.516  21.820
82649W        W83513  11.056   5.704  23.726
82650W        W83514  13.274   4.085  21.710
82651W        W83515  14.483   6.600  23.846
82652W        W83516  14.318   3.774  24.339
82653W        W83517  12.987   5.197  25.079
82654W        W83518  12.919   6.046  22.815
82655W        W83519  13.458   5.522  25.636
82656W        W83520  13.087   3.750  23.630
82657W        W83521  11.528   4.614  23.783
82658W        W83522  11.210   5.808  24.611
82659W        W83523  13.213   6.928  23.443
82660W        W83524  14.132   4.594  24.227
82661W        W83525  13.107   7.135  24.763
82662W        W83526  14.143   5.540  22.009
82663W        W83527  12.737   5.180  23.072
82664W        W83528  14.471   3.750  24.843
82665W        W83529  12.602   5.755  24.573
82666W        W83530  12.927   4.656  23.949
82667W        W83531  13.979   4.986  22.821
82668W        W83532  13.887   4.699  22.257
82669W        W83533  14.168   6.443  23.074
82670W        W83534  13.581   6.101  23.870
82671W        W83535  13.591   5.377  22.793
82672W        W83536  13.023   5.428  23.473
82673W        W83537  13.895   5.311  23.735
82674W        W83538  11.312   4.381  24.202
82675W        W83539  13.900   5.451  24.976
82676W        W83540  14.454   7.059  24.118
82677W        W83541  12.356   6.627  23.599
82678W        W83542  13.610   7.047  24.759
82679W        W83543  13.308   4.394  24.479
82680W        W83544  12.636   7.274  24.591
82681W        W83545  14.072   4.053  22.936
82682W        W83546  14.166   5.130  24.141
82683W        W83547  10.924   4.595  24.456
82684W        W83548  13.719   4.494  23.473
82685W        W83549  14.167   4.591  25.020
82686W        W83550  13.199   6.377  23.590
82687W        W83551  12.459   6.938  23.185
82688W        W83552  11.509   3.977  22.350
82689W        W83553  12.746   3.775  24.041
82690W        W83554  11.409   7.151  22.118
82691W        W83555  12.424   5.632  22.360
82692W        W83556  12.599   5.995  25.037
82693W        W83557  12.686   4.139  22.906
82694W        W83558  13.815   3.705  23.248
82695W        W83559  13.613   7.239  23.714
82696W        W83560  13.266   6.914  23.959
82697W        W83561  12.324   5.788  24.115
82698W        W83562  14.263   6.575  24.312
82699W        W83563  11.790   4.035  22.807
82700W        W83564  12.541   6.541  24.118
82701W        W83565  11.947   4.285  21.715
82702W        W83566  12.672   4.825  24.364
82703W        W83567  13.477   3.737  24.039
82704W        W83568  10.917   5.629  24.231
82705W        W83569  12.862   5.348  22.251
82706W        W83570  11.881   3.797  21.899
82707W        W83571  12.642   4.703  22.842
82708W        W83572  13.462   3.918  24.713
82709W        W83573  12.164   5.938  24.770
82710W        W83574  12.971   5.679  25.222
82711W        W83575  13.475   5.717  25.117
82712W        W83576  12.795   3.899  25.562
82713W        W83577  12.003   4.401  23.802
82714W        W83578  11.467   4.276  23.367
82715W        W83579  11.234   7.034  23.148
82716W        W83580  12.759   6.496  25.005
82717W        W83581  12.105   6.071  22.371
82718W        W83582  13.418   5.531  23.792
82719W        W83583  13.579   5.128  24.088
82720W        W83584  12.807   5.548  24.146
82721W        W83585  13.304   5.953  22.003
82722W        W83586  13.108   4.116  23.265
82723W        W83587  14.413   4.376  22.730
82724W        W83588  11.217   6.931  24.998
82725W        W83589  11.423   6.249  24.405
82726W        W83590  10.893   7.152  22.726
82727W        W83591  12.844   4.261  24.282
82728W        W83592  12.080   6.585  22.439
82729W        W83593  14.078   6.785  22.678
82730W        W83594  13.355   5.316  22.323
82731W        W83595  12.228   4.394  22.922
82732W        W83596  12.959   4.408  21.969
82733W        W83597  13.124   6.148  25.085
82734W        W83598  13.710   3.998  22.559
82735W        W83599  11.052   3.675  22.223
82736W        W83600  12.488   6.309  24.582
82737W        W83601  12.168   6.212  23.834
82738W        W83602  12.118   6.418  21.943
82739W        W83603  11.194   6.644  22.824
82740W        W83604  11.693   5.321  25.138
82741W        W83605  12.293   4.015  25.251
82742W        W83606  12.956   4.000  24.707
82743W        W83607  12.234   3.828  23.064
82744W        W83608  13.081   3.626  22.486
82745W        W83609  11.135   3.901  24.072
82746W        W83610  10.960   4.730  23.502
82747W        W83611  13.958   3.771  23.838
82748W        W83612  11.287   4.280  22.747
82749W        W83613  13.825   4.001  24.336
82750W        W83614  14.150   5.021  21.925
82751W        W83615  11.581   4.104  23.870
82752W        W83616  12.845   4.520  24.750
82753W        W83617  11.039   4.192  22.272
82754W        W83618  11.689   5.749  24.810
82755W        W83619  13.087   5.158  23.935
82756W        W83620  12.684   7.256  22.180
82757W        W83621  10.529   5.315  21.937
82758W        W83622  11.838   6.118  25.193
82759W        W83623  11.369   5.315  24.710
82760W        W83624  12.399   5.296  24.391
82761W        W83625  13.950   3.731  24.747
82762W        W83626  14.459   5.382  24.786
82763W        W83627  14.512   5.547  22.996
82764W        W83628  13.311   5.773  22.555
82765W        W83629  13.849   7.208  21.778
82766W        W83630  13.081   5.122  25.576
82767W        W83631  11.368   6.137  25.439
82768W        W83632  14.600   4.108  25.378
82769W        W83633  13.884   4.805  23.838
82770W        W83634  12.643   7.088  25.487
82771W        W83635  12.337   3.788  22.135
82772W        W83636  14.055   6.073  22.083
82773W        W83637  11.896   4.554  24.979
82774W        W83638  12.256   6.400  25.030
82775W        W83639  14.228   4.217  24.597
82776W        W83640  14.051   7.125  22.270
82777W        W83641  13.761   5.664  24.132
82778W        W83642  11.964   4.175  24.640
82779W        W83643  12.562   5.135  25.389
82780W        W83644  11.963   6.244  22.878
82781W        W83645  13.704   5.845  23.007
82782W        W83646  11.482   4.391  24.695
82783W        W83647  12.762   6.506  23.278
82784W        W83648  14.307   5.002  23.648
82785W        W83649  12.665   3.733  25.047
82786W        W83650  13.611   6.536  24.135
82787W        W83651  13.981   6.886  23.975
82788W        W83652  12.601   6.595  21.948
82789W        W83653  11.042   6.471  25.218
82790W        W83654  11.807   4.519  24.280
82791W        W83655  11.850   3.940  23.418
82792W        W83656  13.435   4.632  23.995
82793W        W83657  12.461   6.006  21.984
82794W        W83658  14.247   5.639  23.977
82795W        W83659  11.561   6.571  25.144
82796W        W83660  13.995   7.306  22.862
82797W        W83661  12.292   4.249  23.406
82798W        W83662  12.189   5.772  23.578
82799W        W83663  12.233   7.328  24.265
82800W        W83664  14.162   7.301  25.279
82801W        W83665  13.290   5.490  24.300
82802W        W83666  11.186   4.695  21.598
82803W        W83667  14.284   6.960  23.124
82804W        W83668  14.129   4.202  22.331
82805W        W83669  12.144   3.682  24.737
82806W        W83670  14.111   6.695  23.517
82807W        W83671  13.896   4.990  23.339
82808W        W83672  12.360   4.832  23.257
82809W        W83673  12.581   4.958  24.863
82810W        W83674  13.508   6.211  24.751
82811W        W83675  12.268   4.614  24.624
82812W        W83676  12.038   7.058  23.521
82813W        W83677  11.661   7.018  25.376
82814W        W83678  11.488   6.671  22.314
82815W        W83679  14.196   5.922  23.207
82816W        W83680  11.867   4.955  24.594
82817W        W83681  14.426   4.600  22.098
82818W        W83682  12.412   5.974  22.781
82819W        W83683  13.386   5.296  24.764
82820W        W83684  13.192   4.916  24.383
82821W        W83685  11.732   5.446  24.348
82822W        W83686  14.066   7.031  24.474
82823W        W83687  13.681   3.866  25.205
82824W        W83688  11.285   3.967  25.005
82825W        W83689  11.701   5.005  24.076
82826W        W83690  12.247   4.701  21.880
82827W        W83691  11.070   6.480  24.718
82828W        W83692  12.583   5.116  23.943
82829W        W83693  12.477   4.242  21.942
82830W        W83694  11.913   5.367  23.429
82831W        W83695  11.263   7.174  24.530
82832W        W83696  13.884   5.223  22.357
82833W        W83697  14.148   4.088  25.091
82834W        W83698  13.817   6.258  23.418
82835W        W83699  11.169   5.215  25.213
82836W        W83700  14.092   3.682  22.300
82837W        W83701  13.740   6.086  22.522
82838W        W83702  13.018   5.021  22.645
82839W        W83703  13.717   4.017  22.028
82840W        W83704  13.693   4.759  24.437
82841W        W83705  11.107   5.283  23.427
82842W        W83706  11.836   6.166  23.415
82843W        W83707  13.589   4.715  23.044
82844W        W83708  12.710   4.209  23.758
82845W        W83709  14.368   6.070  24.238
82846W        W83710  14.435   4.210  24.095
82847W        W83711  10.994   7.010  23.604
82848W        W83712  11.443   6.180  23.042
82849W        W83713  11.494   4.015  25.500
82850W        W83714  12.509   6.587  25.472
82851W        W83715  14.332   5.497  23.498
82852W        W83716  13.692   5.678  22.200
82853W        W83717  13.096   7.297  24.273
82854W        W83718  13.878   5.848  25.440
82855W        W83719  12.602   3.640  22.709
82856W        W83720  13.209   4.551  23.514
82857W        W83721  11.049   6.160  23.993
82858W        W83722  12.273   4.005  22.594
82859W        W83723  12.088   5.668  25.203
82860W        W83724  13.121   4.551  22.962
82861W        W83725  13.328   6.012  24.301
82862W        W83726  11.508   6.717  24.640
82863W        W83727  11.990   6.590  25.420
82864W        W83728  11.983   4.188  22.220
82865W        W83729  13.445   4.433  22.485
82866W        W83730  13.273   6.649  24.953
82867W        W83731  12.426   5.289  23.497
82868W        W83732  11.832   7.059  24.453
82869W        W83733  14.399   7.004  21.918
82870W        W83734  11.276   5.699  25.119
82871W        W83735  13.096   5.926  23.845
82872W        W83736  12.035   5.781  23.097
82873W        W83737  12.302   6.850  24.509
82874W        W83738  12.646   3.868  23.372
82875W        W83739  10.731   5.836  22.794
82876W        W83740  12.682   4.836  22.155
82877W        W83741  11.739   5.718  23.794
82878W        W83742  12.464   4.140  24.760
82879W        W83743  14.232   3.934  21.889
82880W        W83744  14.337   5.599  25.244
82881W        W83745  13.135   7.059  25.282
82882W        W83746  14.499   5.922  24.777
82883W        W83747  14.013   6.826  25.496
82884W        W83748  11.764   7.247  23.986
82885W        W83749  14.736   5.792  23.378
82886W        W83750  13.239   5.082  23.118
82887W        W83751  12.987   3.670  23.042
82888W        W83752  12.031   6.643  23.198
82889W        W83753  12.367   4.378  24.170
82890W        W83754  12.290   3.878  23.758
82891W        W83755  11.008   6.870  22.316
82892W        W83756  12.920   5.995  23.337
82893W        W83757  11.959   6.812  24.906
82894W        W83758  11.543   5.724  23.311
82895W        W83759  11.100   4.288  23.731
82896W        W83760  12.683   6.236  23.722
82897W        W83761  10.919   3.921  22.694
82898W        W83762  13.825   5.266  24.504
82899W        W83763  13.498   4.492  21.970
82900W        W83764  14.032   6.344  23.902
82901W        W83765  12.840   6.735  23.742
82902W        W83766  12.139   6.988  22.788
82903W        W83767  13.315   3.619  21.908
82904W        W83768  11.294   7.039  24.026
82905W        W83769  13.357   4.700  25.411
82906W        W83770  11.454   4.435  25.213
82907W        W83771  10.985   4.847  22.987
82908W        W83772  12.512   5.134  22.571
82909W        W83773  13.488   5.183  25.251
82910W        W83774  12.103   5.352  23.938
82911W        W83775  13.471   3.662  22.866
82912W        W83776  12.515   7.121  23.664
82913W        W83777  13.808   6.603  24.599
82914W        W83778  13.620   6.686  23.651
82915W        W83779  13.413   5.904  23.429
82916W        W83780  12.744   4.027  22.375
82917W        W83781  14.351   3.687  23.163
82918W        W83782  12.456   5.268  21.956
82919W        W83783  14.146   4.557  23.171
82920W        W83784  12.869   5.889  22.299
82921W        W83785  13.963   5.977  24.928
82922W        W83786  14.155   6.613  22.178
82923W        W83787  12.390   4.532  25.134
82924W        W83788  12.187   4.864  24.163
82925W        W83789  14.240   6.399  24.804
82926W        W83790  13.287   4.315  25.001
82927W        W83791  11.002   4.924  24.830
82928W        W83792  12.884   5.291  24.585
82929W        W83793  11.325   6.123  23.554
82930W        W83794  11.277   5.304  24.009
82931W        W83795  13.622   5.730  24.623
82932W        W83796  13.668   7.155  25.252
82933W        W83797  13.266   4.808  24.888
82934W        W83798  13.765   7.019  23.259
82935W        W83799  12.800   6.760  24.552
82936W        W83800  12.149   6.886  24.008
82937W        W83801  13.864   6.131  24.367
82938W        W83802  12.792   6.100  25.501
82939W        W83803  11.650   6.214  23.940
82940W        W83804  13.898   5.792  23.608
82941W        W83805  13.617   7.149  24.246
82942W        W83806  11.638   6.691  24.147
82943W        W83807  12.866   4.728  25.255
82944W        W83808  12.514   6.857  22.458
82945W        W83809  12.276   6.116  25.475
82946W        W83810  12.408   6.514  22.864
82947W        W83811  11.718   4.745  21.507
82948W        W83812  11.087   7.253  28.872
82949W        W83813  11.469   6.196  28.507
82950W        W83814  14.178   5.702  26.322
82951W        W83815  14.374   6.950  28.201
82952W        W83816  12.122   6.968  25.752
82953W        W83817  12.106   5.048  26.557
82954W        W83818  11.693   4.876  26.852
82955W        W83819  12.553   5.591  26.364
82956W        W83820  12.451   6.930  28.339
82957W        W83821  11.186   4.493  28.534
82958W        W83822  11.670   3.689  28.286
82959W        W83823  13.684   4.085  27.298
82960W        W83824  13.199   4.753  25.945
82961W        W83825  13.828   4.422  28.812
82962W        W83826  11.228   4.039  28.110
82963W        W83827  11.280   6.591  28.855
82964W        W83828  12.575   5.893  25.933
82965W        W83829  11.109   4.861  27.536
82966W        W83830  11.969   4.947  28.763
82967W        W83831  14.349   4.543  27.384
82968W        W83832  14.305   5.745  28.084
82969W        W83833  12.627   4.986  27.213
82970W        W83834  13.216   6.501  27.561
82971W        W83835  11.556   5.766  27.832
82972W        W83836  10.835   5.299  27.392
82973W        W83837  12.037   5.300  28.363
82974W        W83838  14.273   5.096  28.695
82975W        W83839  11.797   6.430  27.159
82976W        W83840  13.050   6.341  28.213
82977W        W83841  12.284   4.673  27.500
82978W        W83842  12.406   5.598  27.190
82979W        W83843  13.296   6.500   0.000
82980W        W83844  12.597   5.738  28.885
82981W        W83845  12.710   5.498  28.445
82982W        W83846  10.995   4.774   0.012
82983W        W83847  13.789   6.386  28.744
82984W        W83848  11.360   3.922  26.716
82985W        W83849  11.945   6.148  27.674
82986W        W83850  14.446   6.075  27.186
82987W        W83851  13.781   4.311  27.764
82988W        W83852  14.197   4.429  25.518
82989W        W83853  14.729   5.151  27.974
82990W        W83854  12.455   6.935  27.622
82991W        W83855  14.393   6.232  26.350
82992W        W83856  11.444   7.353  26.304
82993W        W83857  11.800   7.155  26.634
82994W        W83858  11.707   3.989  27.858
82995W        W83859  14.228   5.009  28.185
82996W        W83860  13.441   5.305  26.806
82997W        W83861  13.574   5.043  25.752
82998W        W83862  12.828   6.197  27.722
82999W        W83863  12.559   4.451  27.098
83000W        W83864  13.329   6.718  28.012
83001W        W83865  13.869   5.276  26.511
83002W        W83866  13.088   4.047  26.455
83003W        W83867  11.567   6.848  26.301
83004W        W83868  11.071   4.339  26.741
83005W        W83869  13.564   5.012  27.227
83006W        W83870  11.293   6.508  27.234
83007W        W83871  12.552   6.873  26.002
83008W        W83872  13.887   4.828  25.418
83009W        W83873  11.094   6.623  27.888
83010W        W83874  11.857   6.234  28.169
83011W        W83875  12.156   5.692  26.726
83012W        W83876  12.242   4.045  27.875
83013W        W83877  14.419   3.718  27.158
83014W        W83878  11.665   5.707  25.493
83015W        W83879  11.421   4.497  25.723
83016W        W83880  11.484   6.557  26.737
83017W        W83881  12.323   6.185  26.765
83018W        W83882  13.955   6.832  28.531
83019W        W83883  12.882   4.531  26.280
83020W        W83884  14.173   7.210  27.101
83021W        W83885  13.827   4.863  28.520
83022W        W83886  14.557   6.441  26.807
83023W        W83887  13.161   5.793  28.264
83024W        W83888  10.832   5.476  26.499
83025W        W83889  12.054   5.768  27.994
83026W        W83890  13.180   4.932  26.463
83027W        W83891  12.973   5.384  26.592
83028W        W83892  11.560   4.855  27.812
83029W        W83893  11.470   4.829  28.812
83030W        W83894  11.349   3.693  27.167
83031W        W83895  13.267   4.185  27.641
83032W        W83896  12.870   4.153  28.729
83033W        W83897  13.246   4.226  25.997
83034W        W83898  14.456   6.762  28.692
83035W        W83899  13.274   3.780  28.566
83036W        W83900  14.327   6.265  28.822
83037W        W83901  13.888   4.394  28.292
83038W        W83902  13.747   4.291  26.800
83039W        W83903  13.935   5.429  28.999
83040W        W83904  11.611   6.909  27.094
83041W        W83905  12.399   4.583  26.114
83042W        W83906  11.865   3.879  28.725
83043W        W83907  13.930   4.518  26.395
83044W        W83908  14.221   4.936  26.369
83045W        W83909  12.077   7.120  28.853
83046W        W83910  11.931   3.709  26.133
83047W        W83911  14.173   4.169  27.075
83048W        W83912  14.451   6.646  25.763
83049W        W83913  11.146   5.711  27.325
83050W        W83914  13.276   4.188  25.492
83051W        W83915  14.455   6.556  27.421
83052W        W83916  14.483   3.664  27.858
83053W        W83917  12.842   5.076  28.719
83054W        W83918  12.719   6.095  26.409
83055W        W83919  13.430   5.485   0.210
83056W        W83920  13.294   3.715  27.379
83057W        W83921  11.772   4.601  27.326
83058W        W83922  11.172   5.824  28.339
83059W        W83923  13.155   6.862  27.170
83060W        W83924  14.218   4.556  27.914
83061W        W83925  12.969   6.913  28.312
83062W        W83926  14.251   5.624  25.762
83063W        W83927  12.506   5.278  26.795
83064W        W83928  14.429   3.718  28.388
83065W        W83929  12.723   5.773  27.998
83066W        W83930  12.955   4.621  27.390
83067W        W83931  13.647   4.893  26.226
83068W        W83932  14.083   4.766  25.905
83069W        W83933  14.063   6.610  26.506
83070W        W83934  13.495   6.095  27.375
83071W        W83935  13.472   5.382  26.178
83072W        W83936  12.933   5.408  27.107
83073W        W83937  13.935   5.376  27.359
83074W        W83938  11.372   4.395  27.665
83075W        W83939  14.042   5.469  28.443
83076W        W83940  14.421   7.042  27.641
83077W        W83941  12.300   6.574  27.123
83078W        W83942  13.544   7.148  28.437
83079W        W83943  13.403   4.471  28.100
83080W        W83944  12.682   7.251  28.007
83081W        W83945  14.147   4.049  26.518
83082W        W83946  14.028   5.374  27.880
83083W        W83947  11.099   4.655  28.019
83084W        W83948  13.869   4.590  27.205
83085W        W83949  14.291   4.589  28.601
83086W        W83950  13.104   6.290  27.097
83087W        W83951  12.422   6.924  26.657
83088W        W83952  11.583   4.079  26.005
83089W        W83953  12.810   3.779  27.544
83090W        W83954  11.607   7.160  25.858
83091W        W83955  12.065   5.475  26.252
83092W        W83956  12.729   6.024  28.456
83093W        W83957  12.603   4.150  26.600
83094W        W83958  13.878   3.796  26.885
83095W        W83959  13.701   7.272  27.246
83096W        W83960  12.975   6.955  27.675
83097W        W83961  12.393   5.879  27.618
83098W        W83962  14.196   6.599  27.852
83099W        W83963  11.799   4.044  26.490
83100W        W83964  12.364   6.409  27.601
83101W        W83965  11.917   4.355  25.458
83102W        W83966  12.644   4.939  27.742
83103W        W83967  13.669   3.793  27.747
83104W        W83968  11.035   5.692  27.852
83105W        W83969  12.489   5.364  25.894
83106W        W83970  11.974   3.879  25.643
83107W        W83971  12.487   4.656  26.626
83108W        W83972  13.552   3.999  28.191
83109W        W83973  12.275   5.765  28.456
83110W        W83974  13.100   5.668  28.777
83111W        W83975  13.605   5.676  28.670
83112W        W83976  12.903   3.729   0.012
83113W        W83977  12.128   4.197  27.368
83114W        W83978  11.629   4.348  26.875
83115W        W83979  11.287   7.057  26.702
83116W        W83980  12.750   6.546  28.607
83117W        W83981  11.730   5.882  26.165
83118W        W83982  13.419   5.514  27.297
83119W        W83983  13.579   5.208  27.701
83120W        W83984  12.717   5.454  27.575
83121W        W83985  13.302   5.995  25.540
83122W        W83986  12.966   4.130  27.197
83123W        W83987  14.441   4.461  26.351
83124W        W83988  11.173   6.934  28.480
83125W        W83989  11.347   6.188  28.014
83126W        W83990  10.934   7.333  26.350
83127W        W83991  12.946   4.537  27.895
83128W        W83992  12.213   6.452  25.893
83129W        W83993  14.322   6.949  26.182
83130W        W83994  12.990   5.231  26.078
83131W        W83995  11.982   4.553  26.471
83132W        W83996  12.857   4.423  25.682
83133W        W83997  13.350   6.138  28.593
83134W        W83998  13.684   4.062  26.289
83135W        W83999  11.114   3.871  25.813
83136W        W84000  12.385   6.174  28.068
83137W        W84001  12.084   6.008  27.185
83138W        W84002  11.814   6.167  25.721
83139W        W84003  11.104   6.655  26.356
83140W        W84004  11.574   5.289  28.610
83141W        W84005  12.404   3.830  28.843
83142W        W84006  13.014   4.118  28.224
83143W        W84007  12.235   3.772  26.627
83144W        W84008  13.335   3.721  26.118
83145W        W84009  11.262   3.850  27.634
83146W        W84010  11.282   4.639  27.117
83147W        W84011  14.127   3.917  27.532
83148W        W84012  11.473   4.438  26.381
83149W        W84013  14.091   3.983  28.042
83150W        W84014  14.383   5.119  25.627
83151W        W84015  11.621   4.107  27.344
83152W        W84016  12.811   4.583  28.408
83153W        W84017  10.936   4.354  25.878
83154W        W84018  11.697   5.735  28.355
83155W        W84019  13.105   5.108  27.513
83156W        W84020  12.965   7.233  25.951
83157W        W84021  11.166   5.565  25.613
83158W        W84022  11.944   6.091  28.664
83159W        W84023  11.354   5.375  28.142
83160W        W84024  12.378   5.381  27.974
83161W        W84025  13.892   3.705  28.426
83162W        W84026  14.571   5.417  28.383
83163W        W84027  14.488   5.320  26.113
83164W        W84028  13.045   5.733  26.218
83165W        W84029  13.857   7.270  25.729
83166W        W84030  13.112   5.059   0.158
83167W        W84031  11.553   6.163  28.995
83168W        W84032  14.575   4.129  28.894
83169W        W84033  14.038   4.925  27.568
83170W        W84034  12.577   6.986  28.846
83171W        W84035  12.396   3.726  25.923
83172W        W84036  14.185   6.130  25.865
83173W        W84037  11.700   4.401  28.655
83174W        W84038  12.222   6.488  28.454
83175W        W84039  14.479   4.236  28.262
83176W        W84040  13.830   7.061  26.254
83177W        W84041  13.711   5.734  27.662
83178W        W84042  11.961   4.149  28.287
83179W        W84043  12.359   5.286  28.772
83180W        W84044  11.847   6.381  26.283
83181W        W84045  13.737   5.752  26.643
83182W        W84046  11.550   4.433  28.157
83183W        W84047  12.718   6.519  26.826
83184W        W84048  14.499   5.024  27.106
83185W        W84049  12.769   3.704  28.504
83186W        W84050  13.696   6.492  27.725
83187W        W84051  13.982   6.844  27.452
83188W        W84052  12.726   6.389  25.936
83189W        W84053  11.051   6.106  28.814
83190W        W84054  11.927   4.457  27.810
83191W        W84055  11.828   3.845  26.969
83192W        W84056  13.440   4.683  27.605
83193W        W84057  12.103   5.735  25.794
83194W        W84058  14.212   5.789  27.559
83195W        W84059  11.762   6.577  28.705
83196W        W84060  14.121   7.319  26.589
83197W        W84061  12.145   4.255  26.845
83198W        W84062  11.679   5.683  27.033
83199W        W84063  12.150   7.206  27.942
83200W        W84064  14.206   7.225  28.749
83201W        W84065  13.217   5.585  27.784
83202W        W84066  11.305   5.026  25.676
83203W        W84067  14.419   6.931  26.683
83204W        W84068  14.089   4.247  25.997
83205W        W84069  12.216   3.715  28.378
83206W        W84070  14.130   6.633  27.018
83207W        W84071  14.015   5.061  26.957
83208W        W84072  12.167   4.780  27.012
83209W        W84073  12.498   5.004  28.312
83210W        W84074  13.677   6.356  28.231
83211W        W84075  12.115   4.634  28.376
83212W        W84076  12.100   7.039  27.036
83213W        W84077  11.577   7.077  28.763
83214W        W84078  11.735   6.659  25.862
83215W        W84079  14.112   6.150  26.790
83216W        W84080  11.680   4.906  28.306
83217W        W84081  14.598   4.813  25.996
83218W        W84082  12.214   6.005  26.285
83219W        W84083  13.195   5.307  28.427
83220W        W84084  13.260   4.953  28.015
83221W        W84085  11.807   5.319  27.898
83222W        W84086  13.955   7.267  27.727
83223W        W84087  13.685   3.904  28.862
83224W        W84088  11.358   3.982  28.611
83225W        W84089  11.765   5.106  27.416
83226W        W84090  12.245   4.748  25.588
83227W        W84091  11.039   6.433  28.382
83228W        W84092  12.257   5.204  27.503
83229W        W84093  12.363   4.234  25.720
83230W        W84094  11.651   4.926  26.305
83231W        W84095  11.222   7.141  28.020
83232W        W84096  13.977   5.261  26.007
83233W        W84097  14.148   4.086  28.619
83234W        W84098  13.603   6.200  26.878
83235W        W84099  11.198   5.250  28.981
83236W        W84100  14.085   3.738  26.043
83237W        W84101  13.885   6.146  26.312
83238W        W84102  12.572   5.058  26.316
83239W        W84103  13.683   3.996  25.761
83240W        W84104  13.773   4.811  27.994
83241W        W84105  11.341   5.165  27.130
83242W        W84106  11.804   6.108  26.726
83243W        W84107  13.618   4.802  26.751
83244W        W84108  12.616   4.257  27.576
83245W        W84109  14.524   6.194  27.918
83246W        W84110  14.527   4.177  27.760
83247W        W84111  11.003   6.940  27.136
83248W        W84112  11.358   6.177  26.416
83249W        W84113  11.486   3.808   0.088
83250W        W84114  12.689   6.570   0.152
83251W        W84115  14.358   5.552  27.109
83252W        W84116  13.793   5.751  25.965
83253W        W84117  13.243   7.247  28.019
83254W        W84118  13.940   5.945  28.984
83255W        W84119  12.669   3.673  26.362
83256W        W84120  13.374   4.478  27.122
83257W        W84121  11.092   6.155  27.570
83258W        W84122  12.232   4.120  26.228
83259W        W84123  11.932   5.599  28.829
83260W        W84124  12.987   4.461  26.782
83261W        W84125  13.366   6.097  27.877
83262W        W84126  11.515   6.635  28.230
83263W        W84127  12.194   6.638  28.965
83264W        W84128  11.907   4.496  25.959
83265W        W84129  13.396   4.468  26.429
83266W        W84130  13.380   6.660  28.520
83267W        W84131  12.026   5.285  27.020
83268W        W84132  11.697   6.980  27.900
83269W        W84133  14.376   7.164  25.722
83270W        W84134  11.407   5.722  28.796
83271W        W84135  13.012   5.851  27.379
83272W        W84136  11.678   5.362  26.623
83273W        W84137  12.120   6.662  27.973
83274W        W84138  12.481   3.936  27.073
83275W        W84139  10.999   5.967  26.083
83276W        W84140  12.693   4.887  25.829
83277W        W84141  11.198   5.567  26.844
83278W        W84142  12.498   4.147  28.352
83279W        W84143  14.163   3.923  25.579
83280W        W84144  14.389   5.632  28.807
83281W        W84145  13.099   6.998  28.816
83282W        W84146  14.579   5.971  28.451
83283W        W84147  14.095   6.682   0.053
83284W        W84148  11.744   7.270  27.472
83285W        W84149  14.541   5.857  26.719
83286W        W84150  13.110   4.930  26.987
83287W        W84151  12.888   3.741  26.831
83288W        W84152  11.992   6.631  26.713
83289W        W84153  12.438   4.522  27.994
83290W        W84154  12.284   3.711  27.482
83291W        W84155  11.134   7.002  25.977
83292W        W84156  12.707   5.790  26.825
83293W        W84157  11.936   6.932  28.378
83294W        W84158  11.306   5.646  26.352
83295W        W84159  11.119   4.162  27.234
83296W        W84160  12.599   6.130  27.210
83297W        W84161  11.119   4.079  26.280
83298W        W84162  13.646   5.253  28.219
83299W        W84163  13.649   4.512  25.814
83300W        W84164  14.008   6.275  27.388
83301W        W84165  12.761   6.599  27.358
83302W        W84166  12.078   6.850  26.250
83303W        W84167  13.299   3.679  25.609
83304W        W84168  11.328   6.954  27.536
83305W        W84169  13.451   4.696   0.006
83306W        W84170  11.329   4.339   0.030
83307W        W84171  11.226   4.830  26.633
83308W        W84172  12.115   5.004  26.027
83309W        W84173  13.517   5.174  28.807
83310W        W84174  11.936   5.620  27.490
83311W        W84175  13.358   3.976  26.901
83312W        W84176  12.620   7.051  27.136
83313W        W84177  13.813   6.888  28.044
83314W        W84178  13.605   6.597  27.213
83315W        W84179  13.241   5.797  26.897
83316W        W84180  12.739   4.086  26.062
83317W        W84181  14.475   3.645  26.656
83318W        W84182  12.078   5.269  25.549
83319W        W84183  14.259   4.613  26.821
83320W        W84184  12.955   5.609  25.726
83321W        W84185  14.030   5.980  28.479
83322W        W84186  13.985   6.602  25.990
83323W        W84187  12.192   4.288  28.754
83324W        W84188  12.118   4.925  27.940
83325W        W84189  14.201   6.431  28.330
83326W        W84190  13.372   4.298  28.586
83327W        W84191  11.152   5.000  28.429
83328W        W84192  12.882   5.279  28.026
83329W        W84193  11.317   6.075  26.938
83330W        W84194  11.342   5.326  27.626
83331W        W84195  13.677   5.775  28.167
83332W        W84196  13.622   6.919  28.912
83333W        W84197  13.282   4.802  28.518
83334W        W84198  13.796   6.980  26.815
83335W        W84199  12.673   6.626  27.979
83336W        W84200  11.974   6.798  27.485
83337W        W84201  13.995   6.114  27.909
83338W        W84202  12.928   6.147  28.916
83339W        W84203  11.554   6.035  27.387
83340W        W84204  13.885   5.833  27.143
83341W        W84205  13.492   6.976  27.601
83342W        W84206  11.576   6.510  27.679
83343W        W84207  12.456   4.739  28.779
83344W        W84208  12.861   6.826  26.412
83345W        W84209  12.416   6.205  28.829
83346W        W84210  12.416   6.498  26.368
83347W        W84211  11.740   4.846  25.423
83348W        W84212  11.025  10.993   3.357
83349W        W84213  11.409   9.787   2.860
83350W        W84214  14.169   9.519   0.818
83351W        W84215  14.400  10.591   2.651
83352W        W84216  12.295  10.598   0.398
83353W        W84217  12.091   8.768   1.081
83354W        W84218  11.734   8.691   1.609
83355W        W84219  12.669   9.285   0.735
83356W        W84220  12.541  10.557   3.008
83357W        W84221  11.030   8.032   2.892
83358W        W84222  11.514   7.297   2.785
83359W        W84223  13.449   7.706   1.608
83360W        W84224  13.145   8.343   0.449
83361W        W84225  13.547   8.297   3.279
83362W        W84226  11.119   7.623   2.557
83363W        W84227  11.230  10.538   3.486
83364W        W84228  12.560   9.674   0.385
83365W        W84229  11.071   8.529   2.029
83366W        W84230  12.169   8.530   3.108
83367W        W84231  14.298   8.251   1.764
83368W        W84232  14.225   9.406   2.520
83369W        W84233  12.630   8.871   1.538
83370W        W84234  13.163  10.087   1.834
83371W        W84235  11.576   9.392   2.311
83372W        W84236  10.834   8.990   1.957
83373W        W84237  12.180   9.039   2.843
83374W        W84238  14.303   8.770   3.191
83375W        W84239  11.873  10.090   1.763
83376W        W84240  13.047  10.009   2.740
83377W        W84241  12.564   8.558   1.942
83378W        W84242  12.433   9.354   1.646
83379W        W84243  13.418  10.254   3.449
83380W        W84244  12.595   9.389   3.377
83381W        W84245  12.764   9.184   2.886
83382W        W84246  10.943   8.320   3.320
83383W        W84247  13.774  10.074   3.124
83384W        W84248  11.547   7.591   1.037
83385W        W84249  11.880   9.811   2.213
83386W        W84250  14.362   9.700   1.549
83387W        W84251  13.905   7.868   1.780
83388W        W84252  14.219   8.125   0.057
83389W        W84253  14.349   8.901   2.497
83390W        W84254  12.495  10.630   2.146
83391W        W84255  14.267   9.997   0.627
83392W        W84256  11.600  10.898   0.669
83393W        W84257  11.843  10.771   1.200
83394W        W84258  11.639   7.565   2.369
83395W        W84259  14.063   8.443   2.608
83396W        W84260  13.712   8.948   1.334
83397W        W84261  13.613   8.690   0.355
83398W        W84262  12.792  10.014   2.189
83399W        W84263  12.826   8.385   1.509
83400W        W84264  13.212  10.337   2.409
83401W        W84265  14.173   9.086   1.109
83402W        W84266  12.928   7.921   0.968
83403W        W84267  11.674  10.403   0.811
83404W        W84268  11.140   7.838   1.237
83405W        W84269  13.819   8.397   1.705
83406W        W84270  11.346  10.175   1.736
83407W        W84271  12.648  10.294   0.753
83408W        W84272  13.902   8.500  28.940
83409W        W84273  11.054  10.237   2.196
83410W        W84274  11.764  10.122   2.641
83411W        W84275  11.970   9.141   1.445
83412W        W84276  12.154   7.781   2.106
83413W        W84277  14.416   7.308   1.675
83414W        W84278  11.634   9.158   0.188
83415W        W84279  11.457   8.278   0.395
83416W        W84280  11.328  10.210   1.204
83417W        W84281  12.183   9.604   1.271
83418W        W84282  13.936  10.558   2.895
83419W        W84283  12.686   8.300   0.705
83420W        W84284  14.257  10.710   1.525
83421W        W84285  13.835   8.628   3.025
83422W        W84286  14.511   9.967   1.105
83423W        W84287  13.179   9.490   2.691
83424W        W84288  11.055   8.902   1.170
83425W        W84289  12.011   9.460   2.570
83426W        W84290  13.354   8.837   0.986
83427W        W84291  12.919   9.045   1.136
83428W        W84292  11.400   8.468   2.418
83429W        W84293  11.455   8.407   2.917
83430W        W84294  11.263   7.430   1.552
83431W        W84295  12.987   7.734   2.015
83432W        W84296  12.848   7.897   3.215
83433W        W84297  13.331   7.862   0.622
83434W        W84298  14.359  10.411   3.176
83435W        W84299  13.216   7.462   3.079
83436W        W84300  14.214   9.907   3.298
83437W        W84301  13.784   7.976   2.928
83438W        W84302  13.406   7.989   1.162
83439W        W84303  13.892   9.020   3.387
83440W        W84304  11.642  10.588   1.637
83441W        W84305  12.232   8.286   0.925
83442W        W84306  11.742   7.626   3.120
83443W        W84307  14.065   8.290   0.868
83444W        W84308  14.394   8.686   0.863
83445W        W84309  12.140  10.664   3.363
83446W        W84310  11.974   7.470   0.738
83447W        W84311  14.358   7.792   1.531
83448W        W84312  14.571  10.201   0.260
83449W        W84313  11.094   9.357   1.699
83450W        W84314  13.366   7.834   0.094
83451W        W84315  14.527  10.197   1.589
83452W        W84316  14.285   7.397   2.307
83453W        W84317  12.954   8.755   3.127
83454W        W84318  12.662   9.790   0.879
83455W        W84319  13.480   9.249   3.639
83456W        W84320  13.024   7.374   1.630
83457W        W84321  11.492   8.297   1.859
83458W        W84322  11.176   9.376   2.670
83459W        W84323  13.070  10.503   1.493
83460W        W84324  13.955   8.175   2.179
83461W        W84325  13.015  10.659   2.788
83462W        W84326  14.255   9.505   0.317
83463W        W84327  12.408   9.156   1.153
83464W        W84328  14.430   7.380   2.811
83465W        W84329  12.705   9.687   2.566
83466W        W84330  12.984   8.253   1.992
83467W        W84331  13.834   8.743   0.861
83468W        W84332  14.116   8.555   0.417
83469W        W84333  14.094  10.290   1.009
83470W        W84334  13.694   9.846   1.617
83471W        W84335  13.358   9.099   0.568
83472W        W84336  12.967   9.219   1.688
83473W        W84337  14.038   8.901   1.720
83474W        W84338  11.278   7.991   2.242
83475W        W84339  14.006   9.093   2.868
83476W        W84340  14.463  10.596   1.993
83477W        W84341  12.344   9.913   1.637
83478W        W84342  13.500  10.770   2.634
83479W        W84343  13.100   8.055   2.451
83480W        W84344  12.603  10.895   2.585
83481W        W84345  14.272   7.822   1.015
83482W        W84346  13.956   9.081   2.200
83483W        W84347  10.878   8.263   2.430
83484W        W84348  13.929   8.069   1.314
83485W        W84349  14.202   8.252   3.088
83486W        W84350  13.232   9.800   1.378
83487W        W84351  12.607  10.489   1.243
83488W        W84352  11.440   7.778   0.526
83489W        W84353  12.584   7.417   2.125
83490W        W84354  11.730  10.548   0.280
83491W        W84355  11.830   8.997   0.656
83492W        W84356  12.867   9.664   3.067
83493W        W84357  12.498   8.000   1.287
83494W        W84358  13.949   7.523   1.349
83495W        W84359  13.626  10.865   1.666
83496W        W84360  13.007  10.571   2.005
83497W        W84361  12.403   9.629   2.114
83498W        W84362  14.202  10.283   2.309
83499W        W84363  11.992   7.851   1.102
83500W        W84364  12.287  10.144   2.105
83501W        W84365  11.902   8.011   0.096
83502W        W84366  12.721   8.418   2.403
83503W        W84367  13.435   7.449   2.068
83504W        W84368  11.071   9.380   2.192
83505W        W84369  12.700   9.036   0.298
83506W        W84370  12.035   7.535   0.231
83507W        W84371  12.608   8.637   1.081
83508W        W84372  13.430   7.654   2.572
83509W        W84373  12.382   9.527   2.919
83510W        W84374  13.104   9.257   3.271
83511W        W84375  13.563   9.310   3.037
83512W        W84376  12.865   7.563   3.618
83513W        W84377  11.995   8.262   1.810
83514W        W84378  11.596   7.947   1.439
83515W        W84379  11.348  10.725   1.114
83516W        W84380  12.967  10.184   3.206
83517W        W84381  11.689   9.521   0.560
83518W        W84382  13.535   9.105   1.792
83519W        W84383  13.636   8.676   2.080
83520W        W84384  12.923   9.415   2.190
83521W        W84385  13.414   9.719   0.144
83522W        W84386  12.973   7.883   1.489
83523W        W84387  14.572   8.203   0.785
83524W        W84388  11.268  10.753   2.968
83525W        W84389  11.338   9.844   2.357
83526W        W84390  10.992  10.857   0.767
83527W        W84391  12.602   7.900   2.362
83528W        W84392  12.223  10.071   0.588
83529W        W84393  14.387  10.506   0.648
83530W        W84394  12.932   8.773   0.675
83531W        W84395  11.839   8.347   1.252
83532W        W84396  12.938   8.124   0.028
83533W        W84397  13.343   9.792   3.164
83534W        W84398  13.792   7.863   0.843
83535W        W84399  11.068   7.428   0.342
83536W        W84400  12.244   9.930   2.568
83537W        W84401  11.983   9.568   1.767
83538W        W84402  12.067   9.698   0.257
83539W        W84403  11.166  10.346   0.711
83540W        W84404  11.754   8.817   3.020
83541W        W84405  12.222   7.528   3.266
83542W        W84406  12.918   7.662   2.724
83543W        W84407  12.223   7.393   1.274
83544W        W84408  12.923   7.439   0.714
83545W        W84409  11.229   7.490   2.073
83546W        W84410  11.311   8.410   1.365
83547W        W84411  13.938   7.365   1.873
83548W        W84412  11.508   8.093   0.939
83549W        W84413  13.851   7.680   2.272
83550W        W84414  14.433   8.978   0.238
83551W        W84415  11.664   7.777   1.905
83552W        W84416  12.863   8.282   2.876
83553W        W84417  10.995   7.934   0.298
83554W        W84418  11.640   9.311   2.899
83555W        W84419  13.033   8.782   1.956
83556W        W84420  12.817  10.653   0.383
83557W        W84421  11.131   9.289   0.232
83558W        W84422  11.928   9.763   2.968
83559W        W84423  11.334   8.890   2.728
83560W        W84424  12.465   9.252   2.474
83561W        W84425  13.910   7.445   2.735
83562W        W84426  14.525   9.162   2.900
83563W        W84427  14.533   9.160   0.703
83564W        W84428  13.134   9.479   0.882
83565W        W84429  13.933  10.812   0.235
83566W        W84430  13.054   8.873   3.637
83567W        W84431  11.588   9.651   3.329
83568W        W84432  14.647   7.800   3.303
83569W        W84433  14.181   8.612   2.111
83570W        W84434  12.633  10.740   3.500
83571W        W84435  12.518   7.492   0.386
83572W        W84436  13.908   9.905   0.268
83573W        W84437  11.888   8.114   3.013
83574W        W84438  12.555  10.035   2.949
83575W        W84439  14.187   7.901   2.595
83576W        W84440  13.745  10.921   0.745
83577W        W84441  13.781   9.535   2.025
83578W        W84442  12.012   7.816   2.609
83579W        W84443  12.479   8.919   3.249
83580W        W84444  11.854   9.898   0.912
83581W        W84445  13.702   9.284   0.941
83582W        W84446  11.509   7.921   2.725
83583W        W84447  12.779  10.024   1.337
83584W        W84448  14.488   8.686   1.544
83585W        W84449  12.704   7.402   3.147
83586W        W84450  13.639  10.085   2.069
83587W        W84451  13.961  10.500   1.918
83588W        W84452  13.009   9.925   0.512
83589W        W84453  11.057   9.916   3.229
83590W        W84454  11.766   8.120   2.280
83591W        W84455  11.765   7.451   1.482
83592W        W84456  13.462   7.985   2.067
83593W        W84457  12.226   9.224   0.390
83594W        W84458  14.302   9.464   2.006
83595W        W84459  11.398  10.261   3.063
83596W        W84460  14.204  10.841   1.032
83597W        W84461  12.104   7.820   1.593
83598W        W84462  11.631   9.184   1.830
83599W        W84463  12.142  11.009   2.362
83600W        W84464  14.107  10.901   3.238
83601W        W84465  13.336   9.096   2.269
83602W        W84466  11.314   8.827   0.425
83603W        W84467  14.563  10.489   1.142
83604W        W84468  14.201   7.937   0.520
83605W        W84469  12.045   7.318   2.814
83606W        W84470  14.027  10.227   1.499
83607W        W84471  14.073   8.591   1.288
83608W        W84472  12.308   8.458   1.461
83609W        W84473  12.557   8.697   2.795
83610W        W84474  13.542   9.873   2.705
83611W        W84475  12.359   8.210   2.751
83612W        W84476  12.214  10.467   1.568
83613W        W84477  11.641  10.852   3.311
83614W        W84478  11.708  10.040   0.424
83615W        W84479  14.008   9.801   1.206
83616W        W84480  11.917   8.481   2.635
83617W        W84481  14.636   8.542   0.408
83618W        W84482  12.213   9.566   0.760
83619W        W84483  13.245   8.995   2.778
83620W        W84484  13.227   8.565   2.379
83621W        W84485  11.795   8.974   2.511
83622W        W84486  13.960  10.764   2.382
83623W        W84487  13.701   7.537   3.211
83624W        W84488  11.236   7.595   3.069
83625W        W84489  11.814   8.634   2.127
83626W        W84490  12.200   8.362   0.379
83627W        W84491  10.998  10.106   2.738
83628W        W84492  12.586   9.063   2.023
83629W        W84493  12.441   7.958   0.146
83630W        W84494  11.585   8.835   1.132
83631W        W84495  11.266  10.931   2.492
83632W        W84496  14.052   9.072   0.565
83633W        W84497  14.194   7.735   3.094
83634W        W84498  13.605  10.140   1.181
83635W        W84499  11.230   8.764   3.229
83636W        W84500  14.247   7.437   0.592
83637W        W84501  13.771   9.876   0.760
83638W        W84502  12.381   8.781   0.634
83639W        W84503  13.763   7.632   0.375
83640W        W84504  13.587   8.215   2.526
83641W        W84505  11.264   8.871   1.655
83642W        W84506  11.692   9.760   1.388
83643W        W84507  13.586   8.462   1.246
83644W        W84508  12.510   8.072   1.833
83645W        W84509  14.467   9.857   2.412
83646W        W84510  14.346   7.851   2.077
83647W        W84511  11.114  10.633   1.582
83648W        W84512  11.382   9.695   0.974
83649W        W84513  11.382   7.638   3.577
83650W        W84514  12.493  10.257   3.426
83651W        W84515  14.435   9.193   1.538
83652W        W84516  13.740   9.452   0.449
83653W        W84517  13.096  10.944   2.344
83654W        W84518  13.776   9.599   3.396
83655W        W84519  12.431   7.240   0.811
83656W        W84520  13.330   8.237   1.620
83657W        W84521  10.994   9.812   1.919
83658W        W84522  12.428   7.794   0.801
83659W        W84523  12.049   9.323   3.257
83660W        W84524  13.088   8.405   1.053
83661W        W84525  13.255   9.812   2.289
83662W        W84526  11.355  10.424   2.575
83663W        W84527  12.106  10.241   3.053
83664W        W84528  11.918   7.983   0.611
83665W        W84529  13.544   8.327   0.763
83666W        W84530  13.397  10.351   2.930
83667W        W84531  12.175   8.839   1.803
83668W        W84532  11.722  10.717   2.397
83669W        W84533  14.442  10.700   0.186
83670W        W84534  11.159   9.392   3.184
83671W        W84535  13.304   9.571   1.838
83672W        W84536  11.814   9.362   1.020
83673W        W84537  12.170  10.481   2.554
83674W        W84538  12.568   7.609   1.655
83675W        W84539  11.007   9.599   0.632
83676W        W84540  12.685   8.523   0.249
83677W        W84541  11.431   9.289   1.338
83678W        W84542  12.437   7.712   2.844
83679W        W84543  14.198   7.609   0.097
83680W        W84544  14.226   9.390   3.246
83681W        W84545  13.100  10.665   3.300
83682W        W84546  14.484   9.692   2.889
83683W        W84547  13.920  10.455   3.433
83684W        W84548  11.723  10.992   1.957
83685W        W84549  14.597   9.458   1.131
83686W        W84550  13.211   8.766   1.476
83687W        W84551  12.704   7.519   1.181
83688W        W84552  11.841  10.258   1.279
83689W        W84553  12.248   8.277   2.254
83690W        W84554  12.165   7.346   1.811
83691W        W84555  11.242  10.725   0.346
83692W        W84556  12.781   9.508   1.290
83693W        W84557  11.764  10.579   2.895
83694W        W84558  11.359   9.193   0.815
83695W        W84559  11.172   7.909   1.750
83696W        W84560  12.805   9.715   1.768
83697W        W84561  11.064   7.551   0.829
83698W        W84562  13.680   8.813   2.570
83699W        W84563  13.755   8.154   0.325
83700W        W84564  14.131   9.955   1.927
83701W        W84565  12.667  10.275   1.766
83702W        W84566  12.173  10.510   0.907
83703W        W84567  13.367   7.312   0.169
83704W        W84568  11.317  10.662   2.054
83705W        W84569  13.095   8.339   3.511
83706W        W84570  11.411   8.037   3.259
83707W        W84571  11.265   8.538   0.849
83708W        W84572  11.788   8.489   0.745
83709W        W84573  13.431   8.845   3.257
83710W        W84574  12.068   9.213   2.128
83711W        W84575  13.224   7.503   1.163
83712W        W84576  12.662  10.771   1.677
83713W        W84577  13.726  10.309   2.512
83714W        W84578  13.546  10.362   1.642
83715W        W84579  13.336   9.294   1.336
83716W        W84580  12.845   7.885   0.462
83717W        W84581  14.512   7.409   1.178
83718W        W84582  12.261   8.819   0.077
83719W        W84583  14.445   8.247   1.273
83720W        W84584  13.027   9.423   0.351
83721W        W84585  13.955   9.638   2.899
83722W        W84586  13.882  10.381   0.547
83723W        W84587  12.337   8.019   3.254
83724W        W84588  12.282   8.781   2.355
83725W        W84589  14.165  10.104   2.791
83726W        W84590  13.278   7.984   2.938
83727W        W84591  10.953   8.544   2.850
83728W        W84592  12.860   8.926   2.436
83729W        W84593  11.178   9.781   1.439
83730W        W84594  11.355   8.934   2.188
83731W        W84595  13.682   9.382   2.532
83732W        W84596  13.594  10.768   3.206
83733W        W84597  13.337   8.502   2.871
83734W        W84598  13.780  10.638   1.238
83735W        W84599  12.675  10.348   2.549
83736W        W84600  12.000  10.553   2.019
83737W        W84601  13.951   9.831   2.405
83738W        W84602  12.799   9.840   3.561
83739W        W84603  11.489   9.688   1.873
83740W        W84604  13.933   9.382   1.529
83741W        W84605  13.513  10.618   2.119
83742W        W84606  11.607  10.251   2.167
83743W        W84607  12.628   8.427   3.320
83744W        W84608  13.055  10.535   0.968
83745W        W84609  12.284   9.801   3.345
83746W        W84610  12.306  10.076   1.128
83747W        W84611  11.788   8.659   0.252
83748W        W84612  10.993  10.958   7.011
83749W        W84613  11.390   9.811   6.573
83750W        W84614  14.055   9.534   4.407
83751W        W84615  14.429  10.677   6.385
83752W        W84616  11.968  10.627   3.859
83753W        W84617  12.273   8.755   4.805
83754W        W84618  11.624   8.672   5.252
83755W        W84619  12.711   9.454   4.227
83756W        W84620  12.358  10.600   6.524
83757W        W84621  10.961   8.003   6.659
83758W        W84622  11.570   7.219   6.508
83759W        W84623  13.539   7.724   5.388
83760W        W84624  13.194   8.520   3.991
83761W        W84625  13.613   8.150   6.956
83762W        W84626  11.116   7.686   6.283
83763W        W84627  11.136  10.479   7.160
83764W        W84628  12.510   9.995   4.137
83765W        W84629  11.087   8.363   5.715
83766W        W84630  12.100   8.638   6.847
83767W        W84631  14.294   8.291   5.483
83768W        W84632  14.266   9.369   6.138
83769W        W84633  12.733   8.780   5.307
83770W        W84634  13.202  10.094   5.719
83771W        W84635  11.521   9.347   5.847
83772W        W84636  10.822   8.784   5.577
83773W        W84637  12.006   8.998   6.471
83774W        W84638  14.231   8.843   6.878
83775W        W84639  11.850  10.071   5.284
83776W        W84640  12.983  10.022   6.348
83777W        W84641  12.343   8.589   5.652
83778W        W84642  12.583   9.275   5.331
83779W        W84643  13.220  10.259   6.744
83780W        W84644  12.613   9.265   7.189
83781W        W84645  12.706   9.223   6.648
83782W        W84646  10.919   8.343   7.071
83783W        W84647  13.742  10.209   6.759
83784W        W84648  11.238   7.436   4.812
83785W        W84649  11.909   9.798   5.821
83786W        W84650  14.377   9.768   5.288
83787W        W84651  13.823   8.217   5.753
83788W        W84652  13.873   7.943   3.465
83789W        W84653  14.576   8.883   6.098
83790W        W84654  12.436  10.498   5.739
83791W        W84655  14.076  10.020   4.165
83792W        W84656  11.397  10.912   4.334
83793W        W84657  11.811  10.856   4.712
83794W        W84658  11.645   7.537   6.073
83795W        W84659  14.126   8.795   6.356
83796W        W84660  13.558   9.119   5.004
83797W        W84661  13.583   8.751   3.732
83798W        W84662  12.761   9.911   5.883
83799W        W84663  12.710   8.067   5.123
83800W        W84664  13.964   9.109   4.678
83801W        W84665  13.194   7.668   4.547
83802W        W84666  11.605  10.443   4.466
83803W        W84667  10.915   7.824   5.024
83804W        W84668  13.447   8.719   5.334
83805W        W84669  11.304  10.188   5.384
83806W        W84670  12.454  10.466   3.909
83807W        W84671  13.974   8.470   3.506
83808W        W84672  11.092  10.255   5.889
83809W        W84673  11.833   9.911   6.324
83810W        W84674  12.254   9.322   4.943
83811W        W84675  12.097   7.753   5.905
83812W        W84676  14.396   7.487   5.348
83813W        W84677  11.573   9.125   3.387
83814W        W84678  11.186   8.108   3.740
83815W        W84679  11.482  10.174   4.897
83816W        W84680  12.276   9.831   5.062
83817W        W84681  13.966  10.639   6.588
83818W        W84682  12.849   8.201   4.225
83819W        W84683  14.210  10.669   5.339
83820W        W84684  13.747   8.779   6.716
83821W        W84685  14.554  10.202   5.004
83822W        W84686  13.144   9.531   6.553
83823W        W84687  10.900   8.934   4.714
83824W        W84688  11.961   9.409   6.134
83825W        W84689  13.073   8.614   4.472
83826W        W84690  13.074   9.183   4.550
83827W        W84691  11.433   8.487   6.069
83828W        W84692  11.445   8.508   6.842
83829W        W84693  11.329   7.416   5.320
83830W        W84694  13.023   7.879   5.541
83831W        W84695  12.775   7.923   6.775
83832W        W84696  13.137   7.953   3.885
83833W        W84697  14.582  10.479   6.855
83834W        W84698  13.094   7.509   6.758
83835W        W84699  14.206   9.896   7.040
83836W        W84700  13.743   7.987   6.488
83837W        W84701  13.595   7.879   4.874
83838W        W84702  13.859   9.042   7.162
83839W        W84703  11.614  10.604   5.201
83840W        W84704  12.359   8.151   4.088
83841W        W84705  11.725   7.668   6.878
83842W        W84706  13.853   8.169   4.520
83843W        W84707  14.074   8.643   4.509
83844W        W84708  12.014  10.819   6.826
83845W        W84709  11.744   7.179   4.203
83846W        W84710  14.040   7.875   5.359
83847W        W84711  14.307  10.237   3.703
83848W        W84712  11.154   9.335   5.421
83849W        W84713  13.337   7.852   3.431
83850W        W84714  14.466  10.242   5.529
83851W        W84715  14.272   7.468   6.107
83852W        W84716  12.893   8.779   6.871
83853W        W84717  12.847   9.874   4.515
83854W        W84718  13.417   9.196   7.428
83855W        W84719  13.133   7.392   5.392
83856W        W84720  11.549   8.236   5.539
83857W        W84721  11.298   9.359   6.327
83858W        W84722  13.199  10.543   5.412
83859W        W84723  14.212   8.514   5.939
83860W        W84724  12.940  10.593   6.403
83861W        W84725  14.063   9.340   3.758
83862W        W84726  12.693   9.044   4.867
83863W        W84727  14.406   7.471   6.619
83864W        W84728  12.738   9.546   6.237
83865W        W84729  12.781   8.346   5.565
83866W        W84730  13.525   8.857   4.553
83867W        W84731  13.689   8.539   4.183
83868W        W84732  13.910  10.348   4.541
83869W        W84733  13.837   9.741   5.391
83870W        W84734  13.309   9.048   4.091
83871W        W84735  13.124   9.168   5.324
83872W        W84736  14.072   9.114   5.177
83873W        W84737  11.394   7.973   5.952
83874W        W84738  13.997   9.229   6.572
83875W        W84739  14.426  10.671   5.814
83876W        W84740  12.333  10.323   5.231
83877W        W84741  13.531  10.765   6.322
83878W        W84742  13.412   8.078   6.104
83879W        W84743  12.574  10.827   6.110
83880W        W84744  14.063   7.722   4.713
83881W        W84745  13.997   9.002   5.896
83882W        W84746  10.983   8.196   6.184
83883W        W84747  13.674   8.251   5.249
83884W        W84748  14.076   8.353   6.666
83885W        W84749  13.188   9.980   5.219
83886W        W84750  12.504  10.607   4.839
83887W        W84751  11.316   7.615   4.114
83888W        W84752  12.665   7.419   5.716
83889W        W84753  11.502  10.850   3.819
83890W        W84754  12.387   9.117   4.447
83891W        W84755  12.700   9.755   6.729
83892W        W84756  12.701   7.736   4.715
83893W        W84757  13.904   7.450   5.115
83894W        W84758  13.697  10.756   5.465
83895W        W84759  12.938  10.514   5.878
83896W        W84760  12.423   9.490   5.796
83897W        W84761  14.302  10.264   6.094
83898W        W84762  11.660   7.618   4.535
83899W        W84763  12.325   9.985   5.608
83900W        W84764  11.877   7.942   3.515
83901W        W84765  12.701   8.600   6.046
83902W        W84766  13.488   7.419   5.828
83903W        W84767  11.030   9.194   5.913
83904W        W84768  12.535   9.045   3.745
83905W        W84769  11.855   7.430   3.609
83906W        W84770  12.740   8.522   4.869
83907W        W84771  13.418   7.594   6.321
83908W        W84772  12.263   9.522   6.536
83909W        W84773  13.089   9.273   7.008
83910W        W84774  13.564   9.292   6.834
83911W        W84775  12.744   7.570   7.165
83912W        W84776  12.057   8.151   5.558
83913W        W84777  11.433   7.885   5.067
83914W        W84778  11.278  10.681   4.816
83915W        W84779  12.703  10.278   6.734
83916W        W84780  12.048   9.759   4.177
83917W        W84781  13.678   9.155   5.505
83918W        W84782  13.582   8.705   5.826
83919W        W84783  12.923   9.405   5.749
83920W        W84784  13.324   9.755   3.677
83921W        W84785  13.123   7.775   5.049
83922W        W84786  14.354   8.050   4.459
83923W        W84787  11.197  10.655   6.632
83924W        W84788  11.402   9.805   6.046
83925W        W84789  10.916  10.872   4.488
83926W        W84790  12.906   8.112   6.002
83927W        W84791  12.066  10.280   4.251
83928W        W84792  13.868  10.459   3.941
83929W        W84793  12.822   8.947   4.150
83930W        W84794  12.435   8.163   4.663
83931W        W84795  12.675   8.054   3.681
83932W        W84796  13.407   9.791   6.929
83933W        W84797  13.679   7.696   4.367
83934W        W84798  10.934   7.287   3.939
83935W        W84799  12.317   9.835   6.140
83936W        W84800  12.088   9.495   5.421
83937W        W84801  12.125  10.094   3.757
83938W        W84802  11.028  10.351   4.499
83939W        W84803  11.690   8.968   6.888
83940W        W84804  12.157   7.417   6.943
83941W        W84805  12.903   7.695   6.317
83942W        W84806  12.284   7.451   4.851
83943W        W84807  13.176   7.474   4.061
83944W        W84808  11.171   7.478   5.818
83945W        W84809  11.165   8.341   5.205
83946W        W84810  13.985   7.428   5.646
83947W        W84811  11.200   7.897   4.580
83948W        W84812  13.833   7.759   6.022
83949W        W84813  14.095   8.829   3.846
83950W        W84814  11.683   7.735   5.564
83951W        W84815  12.863   8.344   6.466
83952W        W84816  10.831   7.794   3.954
83953W        W84817  11.748   9.420   6.596
83954W        W84818  13.074   8.793   5.707
83955W        W84819  12.854  10.808   3.960
83956W        W84820  10.882   9.052   3.500
83957W        W84821  11.845   9.863   6.835
83958W        W84822  11.373   8.863   6.464
83959W        W84823  12.409   9.148   6.199
83960W        W84824  13.911   7.494   6.469
83961W        W84825  14.495   9.131   6.552
83962W        W84826  14.301   9.076   4.280
83963W        W84827  13.207   9.574   4.186
83964W        W84828  13.805  10.917   3.662
83965W        W84829  12.964   8.922   7.375
83966W        W84830  11.398   9.871   7.103
83967W        W84831  14.598   7.912   7.157
83968W        W84832  13.947   8.677   5.481
83969W        W84833  12.471  10.663   7.031
83970W        W84834  12.234   7.298   4.045
83971W        W84835  13.822  10.007   3.687
83972W        W84836  11.841   8.184   6.826
83973W        W84837  12.265  10.060   6.595
83974W        W84838  14.222   7.916   6.350
83975W        W84839  13.734  10.899   4.181
83976W        W84840  13.789   9.493   5.878
83977W        W84841  11.895   7.855   6.419
83978W        W84842  12.476   8.761   7.183
83979W        W84843  11.908   9.930   4.661
83980W        W84844  13.551   9.371   4.510
83981W        W84845  11.437   8.127   6.462
83982W        W84846  12.733  10.084   4.986
83983W        W84847  14.331   8.669   5.145
83984W        W84848  12.587   7.457   6.683
83985W        W84849  13.668   9.981   5.873
83986W        W84850  13.987  10.378   5.711
83987W        W84851  12.936  10.349   3.700
83988W        W84852  11.031  10.101   6.795
83989W        W84853  11.867   8.211   6.045
83990W        W84854  11.788   7.512   5.075
83991W        W84855  13.299   8.312   5.661
83992W        W84856  12.413   9.588   3.818
83993W        W84857  14.190   9.384   5.598
83994W        W84858  11.511  10.286   6.808
83995W        W84859  14.045  11.026   4.599
83996W        W84860  12.225   7.892   5.116
83997W        W84861  11.674   9.178   5.391
83998W        W84862  12.073  10.777   6.015
83999W        W84863  14.280  10.902   6.885
84000W        W84864  13.361   9.189   5.908
84001W        W84865  11.045   8.625   3.723
84002W        W84866  14.283  10.608   4.817
84003W        W84867  13.993   8.025   4.024
84004W        W84868  12.079   7.355   6.423
84005W        W84869  14.073  10.182   5.215
84006W        W84870  13.839   8.680   4.970
84007W        W84871  12.338   8.408   5.182
84008W        W84872  12.497   8.755   6.522
84009W        W84873  13.496   9.929   6.422
84010W        W84874  12.233   8.283   6.470
84011W        W84875  12.115  10.781   5.162
84012W        W84876  11.538  10.778   7.006
84013W        W84877  11.745  10.350   3.441
84014W        W84878  14.142   9.941   4.758
84015W        W84879  11.779   8.537   6.446
84016W        W84880  14.340   8.100   3.575
84017W        W84881  12.369   9.648   4.563
84018W        W84882  13.239   9.002   6.570
84019W        W84883  13.222   8.596   6.177
84020W        W84884  11.695   8.937   6.082
84021W        W84885  13.975  10.763   6.052
84022W        W84886  13.576   7.634   6.825
84023W        W84887  11.236   7.570   6.774
84024W        W84888  11.836   8.619   5.715
84025W        W84889  12.211   8.356   3.619
84026W        W84890  10.888  10.345   6.354
84027W        W84891  12.604   9.005   5.755
84028W        W84892  12.300   7.713   3.744
84029W        W84893  11.840   9.025   4.923
84030W        W84894  11.067  10.779   6.140
84031W        W84895  13.804   9.088   4.166
84032W        W84896  14.102   7.852   6.863
84033W        W84897  13.651  10.039   4.952
84034W        W84898  11.133   8.901   6.925
84035W        W84899  14.080   7.498   4.088
84036W        W84900  13.671   9.870   4.467
84037W        W84901  12.551   8.589   4.389
84038W        W84902  13.622   7.698   3.853
84039W        W84903  13.751   8.449   6.253
84040W        W84904  11.149   8.871   5.182
84041W        W84905  11.765   9.608   5.044
84042W        W84906  13.461   8.394   4.773
84043W        W84907  12.504   7.900   5.581
84044W        W84908  14.545   9.820   6.103
84045W        W84909  14.304   7.904   5.829
84046W        W84910  11.005  10.622   5.254
84047W        W84911  11.430   9.702   4.634
84048W        W84912  11.331   7.601   7.283
84049W        W84913  12.407  10.144   7.143
84050W        W84914  14.567   9.255   5.282
84051W        W84915  13.695   9.587   4.015
84052W        W84916  13.118  10.953   6.073
84053W        W84917  13.801   9.551   7.222
84054W        W84918  12.596   7.322   4.439
84055W        W84919  13.141   8.329   5.174
84056W        W84920  11.040   9.776   5.676
84057W        W84921  12.257   7.714   4.390
84058W        W84922  12.232   9.147   6.885
84059W        W84923  13.023   8.137   4.700
84060W        W84924  13.239   9.684   6.046
84061W        W84925  11.399  10.261   6.306
84062W        W84926  11.996  10.331   6.936
84063W        W84927  11.854   7.683   4.046
84064W        W84928  13.376   8.132   4.311
84065W        W84929  12.196   8.928   5.291
84066W        W84930  11.579  10.682   6.061
84067W        W84931  14.294  10.755   3.733
84068W        W84932  11.316   9.381   6.873
84069W        W84933  13.364   9.601   5.545
84070W        W84934  11.896   9.417   4.575
84071W        W84935  12.072  10.261   6.019
84072W        W84936  12.659   7.568   5.215
84073W        W84937  10.795   9.567   4.055
84074W        W84938  12.693   8.540   3.840
84075W        W84939  11.391   9.267   4.944
84076W        W84940  12.402   7.794   6.329
84077W        W84941  14.256   7.581   3.586
84078W        W84942  14.246   9.367   6.999
84079W        W84943  12.974  10.700   6.901
84080W        W84944  14.383   9.647   6.575
84081W        W84945  14.111  10.427   7.050
84082W        W84946  11.749  10.940   5.613
84083W        W84947  14.322   9.469   4.869
84084W        W84948  13.153   8.814   4.934
84085W        W84949  12.932   7.299   4.878
84086W        W84950  11.972  10.392   4.861
84087W        W84951  12.386   8.194   5.984
84088W        W84952  12.191   7.490   5.441
84089W        W84953  11.095  10.566   4.027
84090W        W84954  12.742   9.554   4.912
84091W        W84955  11.867  10.447   6.450
84092W        W84956  11.127   9.327   4.411
84093W        W84957  11.155   7.887   5.496
84094W        W84958  12.746   9.743   5.394
84095W        W84959  10.875   7.515   4.426
84096W        W84960  13.641   8.953   6.261
84097W        W84961  13.567   8.220   3.787
84098W        W84962  14.170   9.881   5.755
84099W        W84963  12.781  10.238   5.472
84100W        W84964  12.250  10.742   4.380
84101W        W84965  13.346   7.360   3.580
84102W        W84966  11.315  10.644   5.640
84103W        W84967  13.092   8.410   7.183
84104W        W84968  11.359   8.030   6.979
84105W        W84969  10.986   8.383   4.729
84106W        W84970  12.233   8.715   4.002
84107W        W84971  13.392   8.821   7.083
84108W        W84972  12.085   9.078   5.766
84109W        W84973  13.437   7.366   4.949
84110W        W84974  12.696  10.732   5.366
84111W        W84975  13.812  10.305   6.237
84112W        W84976  13.603  10.230   5.421
84113W        W84977  13.274   9.545   4.934
84114W        W84978  12.699   7.712   4.100
84115W        W84979  14.338   7.306   4.871
84116W        W84980  12.036   8.851   3.499
84117W        W84981  14.131   8.214   4.962
84118W        W84982  12.960   9.366   3.771
84119W        W84983  13.871   9.702   6.719
84120W        W84984  13.381  10.639   3.791
84121W        W84985  12.267   7.902   6.826
84122W        W84986  12.169   8.669   6.118
84123W        W84987  14.233  10.166   6.594
84124W        W84988  13.244   7.993   6.598
84125W        W84989  11.006   8.516   6.583
84126W        W84990  12.925   9.059   6.168
84127W        W84991  11.245   9.750   5.105
84128W        W84992  11.348   8.845   5.679
84129W        W84993  13.600   9.446   6.340
84130W        W84994  13.512  10.686   6.827
84131W        W84995  13.319   8.493   6.684
84132W        W84996  13.797  10.564   5.005
84133W        W84997  12.570  10.285   6.191
84134W        W84998  11.964  10.486   5.566
84135W        W84999  14.009   9.820   6.242
84136W        W85000  12.733   9.764   7.276
84137W        W85001  11.532   9.721   5.508
84138W        W85002  13.820   9.554   4.909
84139W        W85003  13.490  10.511   5.870
84140W        W85004  11.601  10.216   5.805
84141W        W85005  12.558   8.372   6.869
84142W        W85006  12.693  10.455   4.364
84143W        W85007  12.285   9.655   7.029
84144W        W85008  12.374  10.151   4.636
84145W        W85009  11.718   8.444   3.381
84146W        W85010  10.975  10.998  10.618
84147W        W85011  11.350   9.863  10.175
84148W        W85012  14.294   9.358   8.176
84149W        W85013  14.416  10.739   9.975
84150W        W85014  12.018  10.645   7.321
84151W        W85015  12.102   8.599   8.406
84152W        W85016  11.774   8.459   8.791
84153W        W85017  12.581   9.221   8.099
84154W        W85018  12.447  10.535  10.236
84155W        W85019  10.955   8.051  10.288
84156W        W85020  11.568   7.290  10.191
84157W        W85021  13.557   7.730   9.028
84158W        W85022  13.244   8.572   7.679
84159W        W85023  13.644   8.149  10.616
84160W        W85024  11.061   7.734   9.892
84161W        W85025  11.137  10.523  10.768
84162W        W85026  12.417   9.993   7.654
84163W        W85027  10.982   8.423   9.356
84164W        W85028  12.131   8.578  10.516
84165W        W85029  14.301   8.203   9.068
84166W        W85030  14.310   9.418   9.881
84167W        W85031  12.667   8.722   8.949
84168W        W85032  13.234  10.032   9.283
84169W        W85033  11.452   9.297   9.538
84170W        W85034  10.803   8.901   9.264
84171W        W85035  11.960   8.984  10.109
84172W        W85036  14.276   8.776  10.703
84173W        W85037  11.766  10.021   8.925
84174W        W85038  13.008   9.893   9.989
84175W        W85039  12.353   8.494   9.282
84176W        W85040  12.455   9.210   8.988
84177W        W85041  13.396  10.269  10.768
84178W        W85042  12.601   9.362  10.773
84179W        W85043  12.684   9.180  10.293
84180W        W85044  10.542   8.260  10.502
84181W        W85045  13.732   9.947  10.503
84182W        W85046  11.395   7.534   8.456
84183W        W85047  11.931   9.900   9.398
84184W        W85048  14.422   9.753   8.971
84185W        W85049  13.796   8.154   9.224
84186W        W85050  14.123   8.114   7.311
84187W        W85051  14.584   8.852   9.779
84188W        W85052  12.462  10.376   9.369
84189W        W85053  14.529   9.831   8.163
84190W        W85054  11.550  10.770   8.015
84191W        W85055  11.734  10.863   8.487
84192W        W85056  11.577   7.620   9.785
84193W        W85057  14.132   8.614   9.865
84194W        W85058  13.526   8.908   8.521
84195W        W85059  13.708   8.770   7.573
84196W        W85060  12.799   9.859   9.503
84197W        W85061  12.775   8.114   8.826
84198W        W85062  13.294  10.228   9.757
84199W        W85063  14.041   9.027   8.468
84200W        W85064  13.070   7.787   8.049
84201W        W85065  11.642  10.272   8.098
84202W        W85066  11.034   7.892   8.517
84203W        W85067  13.633   8.573   8.984
84204W        W85068  11.278  10.154   9.052
84205W        W85069  12.467  10.501   7.532
84206W        W85070  13.886   8.531   7.142
84207W        W85071  11.054  10.233   9.525
84208W        W85072  11.799   9.915   9.883
84209W        W85073  12.077   9.261   8.647
84210W        W85074  12.020   7.733   9.539
84211W        W85075  14.520   7.443   9.134
84212W        W85076  11.823   9.432   7.116
84213W        W85077  11.272   8.088   7.479
84214W        W85078  11.392  10.145   8.560
84215W        W85079  12.170   9.770   8.716
84216W        W85080  13.981  10.639  10.215
84217W        W85081  12.843   8.274   8.002
84218W        W85082  14.296  10.669   8.944
84219W        W85083  13.900   8.569  10.360
84220W        W85084  14.606  10.121   8.623
84221W        W85085  13.169   9.404  10.076
84222W        W85086  10.921   8.915   8.373
84223W        W85087  11.956   9.447   9.658
84224W        W85088  13.195   8.607   8.205
84225W        W85089  12.968   8.995   8.441
84226W        W85090  11.348   8.493   9.776
84227W        W85091  11.443   8.491  10.369
84228W        W85092  11.352   7.377   8.945
84229W        W85093  13.022   7.848   9.234
84230W        W85094  12.777   7.852  10.508
84231W        W85095  13.097   8.081   7.596
84232W        W85096  14.415  10.560  10.492
84233W        W85097  13.221   7.411  10.426
84234W        W85098  14.223   9.890  10.702
84235W        W85099  13.725   7.930  10.153
84236W        W85100  13.509   7.840   8.419
84237W        W85101  13.842   9.049  10.596
84238W        W85102  11.575  10.542   8.883
84239W        W85103  12.400   8.126   7.727
84240W        W85104  11.806   7.661  10.470
84241W        W85105  13.901   8.137   8.213
84242W        W85106  14.255   8.620   8.176
84243W        W85107  12.028  10.731  10.501
84244W        W85108  11.878   7.304   7.903
84245W        W85109  14.288   7.758   8.828
84246W        W85110  14.538  10.185   7.313
84247W        W85111  11.203   9.270   9.084
84248W        W85112  13.184   7.898   7.114
84249W        W85113  14.529  10.237   9.141
84250W        W85114  14.462   7.399   9.634
84251W        W85115  12.943   8.702  10.330
84252W        W85116  12.645   9.745   8.081
84253W        W85117  13.448   9.210  10.884
84254W        W85118  13.024   7.327   9.113
84255W        W85119  11.465   8.298   9.168
84256W        W85120  11.149   9.429   9.928
84257W        W85121  13.201  10.406   8.927
84258W        W85122  14.124   8.156   9.602
84259W        W85123  13.011  10.572  10.038
84260W        W85124  14.139   9.267   7.522
84261W        W85125  12.464   8.946   8.526
84262W        W85126  14.471   7.380  10.169
84263W        W85127  12.699   9.507   9.876
84264W        W85128  12.854   8.352   9.270
84265W        W85129  13.714   8.610   8.104
84266W        W85130  14.038   8.404   7.746
84267W        W85131  14.200  10.194   8.308
84268W        W85132  13.910   9.735   9.067
84269W        W85133  13.436   9.025   7.960
84270W        W85134  12.962   9.139   8.945
84271W        W85135  13.956   8.993   9.118
84272W        W85136  11.278   8.027   9.550
84273W        W85137  14.116   9.031  10.171
84274W        W85138  14.469  10.658   9.436
84275W        W85139  12.322  10.264   8.838
84276W        W85140  13.524  10.702   9.992
84277W        W85141  13.259   8.070   9.848
84278W        W85142  12.604  10.728   9.768
84279W        W85143  14.221   7.723   8.325
84280W        W85144  14.048   9.048   9.632
84281W        W85145  10.858   8.219   9.805
84282W        W85146  13.863   8.047   8.733
84283W        W85147  14.161   8.179  10.101
84284W        W85148  13.143   9.894   8.774
84285W        W85149  12.513  10.622   8.488
84286W        W85150  11.477   7.639   7.768
84287W        W85151  12.650   7.514   9.444
84288W        W85152  11.559  10.848   7.508
84289W        W85153  12.100   9.045   8.153
84290W        W85154  12.705   9.692  10.357
84291W        W85155  12.699   7.777   8.429
84292W        W85156  13.858   7.511   8.669
84293W        W85157  13.757  10.723   9.007
84294W        W85158  12.964  10.468   9.435
84295W        W85159  12.442   9.447   9.435
84296W        W85160  14.278  10.302   9.759
84297W        W85161  11.869   7.681   8.273
84298W        W85162  12.375   9.884   9.181
84299W        W85163  11.767   7.977   7.301
84300W        W85164  12.685   8.521   9.736
84301W        W85165  13.369   7.505   9.447
84302W        W85166  10.890   9.347   9.490
84303W        W85167  12.484   9.009   7.634
84304W        W85168  11.851   7.463   7.361
84305W        W85169  12.749   8.517   8.479
84306W        W85170  13.378   7.582   9.960
84307W        W85171  12.183   9.524  10.131
84308W        W85172  13.069   9.376  10.583
84309W        W85173  13.553   9.464  10.424
84310W        W85174  12.910   7.487  10.879
84311W        W85175  11.997   8.118   9.128
84312W        W85176  11.516   7.999   8.719
84313W        W85177  11.290  10.634   8.447
84314W        W85178  12.840  10.207  10.373
84315W        W85179  11.970   9.835   7.880
84316W        W85180  13.447   9.046   9.069
84317W        W85181  13.645   8.744   9.473
84318W        W85182  12.944   9.323   9.435
84319W        W85183  13.768  10.069   7.252
84320W        W85184  13.120   7.712   8.737
84321W        W85185  14.383   8.106   8.020
84322W        W85186  11.155  10.649  10.259
84323W        W85187  11.337   9.822   9.664
84324W        W85188  11.031  10.815   8.050
84325W        W85189  12.771   8.005   9.665
84326W        W85190  12.009  10.333   7.726
84327W        W85191  14.392  10.549   7.956
84328W        W85192  12.929   8.915   7.894
84329W        W85193  12.406   8.183   8.283
84330W        W85194  12.694   8.079   7.273
84331W        W85195  13.209   9.851  10.452
84332W        W85196  13.792   7.544   8.097
84333W        W85197  11.027   7.321   7.627
84334W        W85198  12.317   9.848   9.730
84335W        W85199  12.019   9.485   9.122
84336W        W85200  11.972   9.944   7.344
84337W        W85201  11.117  10.256   8.130
84338W        W85202  11.717   8.905  10.553
84339W        W85203  12.415   7.572  10.798
84340W        W85204  12.870   7.657  10.041
84341W        W85205  12.285   7.401   8.499
84342W        W85206  13.475   7.741   7.710
84343W        W85207  11.222   7.522   9.437
84344W        W85208  11.065   8.289   8.860
84345W        W85209  14.050   7.664   9.298
84346W        W85210  11.416   7.979   8.178
84347W        W85211  13.697   7.854   9.638
84348W        W85212  14.249   8.761   7.416
84349W        W85213  11.609   7.802   9.222
84350W        W85214  12.864   8.224  10.139
84351W        W85215  10.870   7.811   7.631
84352W        W85216  11.656   9.438  10.078
84353W        W85217  13.093   8.800   9.344
84354W        W85218  12.854  10.825   7.384
84355W        W85219  10.970   9.047   7.386
84356W        W85220  11.840   9.878  10.379
84357W        W85221  11.414   8.965  10.124
84358W        W85222  12.363   9.135   9.837
84359W        W85223  13.833   7.420  10.135
84360W        W85224  14.601   9.171  10.217
84361W        W85225  14.475   8.996   7.845
84362W        W85226  13.078   9.386   8.125
84363W        W85227  13.863  10.904   7.174
84364W        W85228  13.056   8.890  10.815
84365W        W85229  11.436   9.822  10.691
84366W        W85230  14.560   7.872  10.757
84367W        W85231  14.134   8.590   9.351
84368W        W85232  12.505  10.688  10.732
84369W        W85233  12.315   7.384   7.657
84370W        W85234  14.131   9.803   7.548
84371W        W85235  11.835   8.170  10.428
84372W        W85236  12.330  10.027  10.217
84373W        W85237  14.155   7.719   9.870
84374W        W85238  14.100  10.892   7.681
84375W        W85239  13.719   9.384   9.403
84376W        W85240  11.946   7.916  10.009
84377W        W85241  12.561   8.840  10.702
84378W        W85242  11.780   9.854   8.378
84379W        W85243  13.708   9.373   8.276
84380W        W85244  11.444   8.061  10.059
84381W        W85245  12.645   9.937   8.593
84382W        W85246  14.351   8.706   8.865
84383W        W85247  12.700   7.341  10.425
84384W        W85248  13.702   9.969   9.493
84385W        W85249  14.030  10.383   9.304
84386W        W85250  12.878  10.312   7.228
84387W        W85251  11.033  10.074  10.534
84388W        W85252  11.757   8.187   9.599
84389W        W85253  11.807   7.573   8.785
84390W        W85254  13.349   8.322   9.408
84391W        W85255  12.292   9.500   7.532
84392W        W85256  14.240   9.424   9.337
84393W        W85257  11.499  10.294  10.452
84394W        W85258  14.174  10.965   8.228
84395W        W85259  12.241   7.871   8.698
84396W        W85260  11.690   9.086   9.055
84397W        W85261  12.180  10.796   9.505
84398W        W85262  14.114  10.973  10.597
84399W        W85263  13.355   9.120   9.673
84400W        W85264  11.262   8.602   7.339
84401W        W85265  14.495  10.607   8.461
84402W        W85266  13.980   7.883   7.749
84403W        W85267  12.034   7.398  10.004
84404W        W85268  14.125  10.160   8.826
84405W        W85269  13.955   8.553   8.590
84406W        W85270  12.332   8.360   8.790
84407W        W85271  12.457   8.738  10.162
84408W        W85272  13.532   9.833  10.039
84409W        W85273  12.326   8.229  10.179
84410W        W85274  12.099  10.719   8.792
84411W        W85275  11.536  10.793  10.607
84412W        W85276  11.611  10.334   7.323
84413W        W85277  14.121   9.672   8.561
84414W        W85278  11.828   8.475  10.026
84415W        W85279  14.535   8.319   7.544
84416W        W85280  12.202   9.548   8.248
84417W        W85281  13.357   8.996  10.362
84418W        W85282  13.213   8.610   9.818
84419W        W85283  11.697   8.880   9.692
84420W        W85284  13.958  10.741   9.676
84421W        W85285  13.710   7.603  10.600
84422W        W85286  11.182   7.588  10.359
84423W        W85287  11.850   8.605   9.292
84424W        W85288  12.209   8.262   7.217
84425W        W85289  10.959  10.207  10.035
84426W        W85290  12.599   8.932   9.418
84427W        W85291  12.281   7.765   7.324
84428W        W85292  11.703   8.925   8.560
84429W        W85293  11.113  10.768   9.761
84430W        W85294  13.968   9.023   7.948
84431W        W85295  14.183   7.761  10.405
84432W        W85296  13.628   9.799   8.633
84433W        W85297  11.177   8.884  10.587
84434W        W85298  14.252   7.457   7.864
84435W        W85299  14.008   9.768   8.060
84436W        W85300  12.495   8.677   8.051
84437W        W85301  13.748   7.765   7.276
84438W        W85302  13.694   8.347   9.826
84439W        W85303  11.250   8.788   8.813
84440W        W85304  11.660   9.529   8.751
84441W        W85305  13.513   8.361   8.509
84442W        W85306  12.479   7.981   9.231
84443W        W85307  14.568   9.879   9.834
84444W        W85308  14.501   7.884   9.433
84445W        W85309  11.036  10.600   8.880
84446W        W85310  11.273   9.733   8.266
84447W        W85311  11.413   7.542  10.817
84448W        W85312  12.455  10.157  10.710
84449W        W85313  14.300   9.250   8.853
84450W        W85314  13.726   9.449   7.756
84451W        W85315  13.191  10.873   9.658
84452W        W85316  13.876   9.518  10.822
84453W        W85317  12.591   7.238   8.097
84454W        W85318  13.296   8.165   8.922
84455W        W85319  10.996   9.774   9.250
84456W        W85320  12.355   7.703   8.065
84457W        W85321  12.209   9.155  10.514
84458W        W85322  13.081   8.132   8.427
84459W        W85323  13.299   9.647   9.625
84460W        W85324  11.449  10.332   9.934
84461W        W85325  11.965  10.263  10.691
84462W        W85326  11.972   7.799   7.746
84463W        W85327  13.420   8.181   8.004
84464W        W85328  13.386  10.289  10.260
84465W        W85329  12.129   8.818   8.907
84466W        W85330  11.689  10.692   9.623
84467W        W85331  14.456  10.695   7.356
84468W        W85332  11.263   9.396  10.431
84469W        W85333  13.325   9.546   9.109
84470W        W85334  11.690   9.362   8.261
84471W        W85335  12.072  10.318   9.694
84472W        W85336  12.651   7.619   8.916
84473W        W85337  10.920   9.505   7.667
84474W        W85338  12.720   8.515   7.570
84475W        W85339  11.274   9.246   8.568
84476W        W85340  12.344   7.694  10.278
84477W        W85341  14.236   7.605   7.362
84478W        W85342  14.328   9.295  10.644
84479W        W85343  13.022  10.665  10.550
84480W        W85344  14.546   9.694  10.321
84481W        W85345  13.964  10.375  10.673
84482W        W85346  11.791  10.926   9.176
84483W        W85347  14.614   9.518   8.561
84484W        W85348  13.154   8.651   8.796
84485W        W85349  12.838   7.294   8.575
84486W        W85350  11.887  10.330   8.548
84487W        W85351  12.272   8.167   9.672
84488W        W85352  12.199   7.550   9.110
84489W        W85353  11.233  10.477   7.681
84490W        W85354  12.682   9.424   8.561
84491W        W85355  11.930  10.350  10.174
84492W        W85356  11.178   9.253   8.053
84493W        W85357  11.136   7.824   9.022
84494W        W85358  12.790   9.619   9.036
84495W        W85359  11.050   7.622   8.073
84496W        W85360  13.669   8.842   9.984
84497W        W85361  13.606   8.227   7.492
84498W        W85362  14.238   9.924   9.421
84499W        W85363  12.787  10.143   9.054
84500W        W85364  12.088  10.589   8.169
84501W        W85365  13.309   7.421   7.254
84502W        W85366  11.294  10.638   9.300
84503W        W85367  13.130   8.290  10.717
84504W        W85368  11.381   8.011  10.583
84505W        W85369  11.081   8.414   8.365
84506W        W85370  12.193   8.587   7.614
84507W        W85371  13.510   8.655  10.715
84508W        W85372  12.103   9.044   9.374
84509W        W85373  13.392   7.272   8.766
84510W        W85374  12.720  10.656   8.987
84511W        W85375  13.787  10.279   9.902
84512W        W85376  13.649  10.183   9.014
84513W        W85377  13.280   9.382   8.615
84514W        W85378  12.712   7.726   7.668
84515W        W85379  14.571   7.374   8.588
84516W        W85380  12.035   8.994   7.326
84517W        W85381  14.312   8.207   8.536
84518W        W85382  12.830   9.389   7.654
84519W        W85383  14.043   9.564  10.314
84520W        W85384  14.109  10.347   7.564
84521W        W85385  12.247   8.024  10.664
84522W        W85386  12.180   8.673   9.724
84523W        W85387  14.202  10.137  10.250
84524W        W85388  13.252   7.924  10.344
84525W        W85389  10.987   8.575  10.167
84526W        W85390  12.877   9.000   9.855
84527W        W85391  11.178   9.710   8.777
84528W        W85392  11.346   8.797   9.318
84529W        W85393  13.743   9.364   9.935
84530W        W85394  13.566  10.718  10.519
84531W        W85395  13.392   8.424  10.257
84532W        W85396  13.974  10.592   8.551
84533W        W85397  12.652  10.229   9.847
84534W        W85398  11.971  10.421   9.196
84535W        W85399  14.023   9.829   9.874
84536W        W85400  12.851   9.816  10.834
84537W        W85401  11.504   9.684   9.205
84538W        W85402  13.770   9.330   8.789
84539W        W85403  13.526  10.520   9.421
84540W        W85404  11.570  10.229   9.452
84541W        W85405  12.630   8.357  10.582
84542W        W85406  12.555  10.357   8.020
84543W        W85407  12.256   9.691  10.613
84544W        W85408  12.237  10.069   8.279
84545W        W85409  11.774   8.530   7.238
84546W        W85410  10.982  10.939  14.368
84547W        W85411  11.411   9.803  13.959
84548W        W85412  14.160   9.466  11.645
84549W        W85413  14.301  10.616  13.638
84550W        W85414  11.940  10.630  11.048
84551W        W85415  12.318   9.046  12.026
84552W        W85416  11.745   8.956  12.774
84553W        W85417  12.787   9.428  11.774
84554W        W85418  12.509  10.577  14.066
84555W        W85419  11.001   7.948  13.971
84556W        W85420  11.635   7.202  13.852
84557W        W85421  13.463   7.747  12.623
84558W        W85422  13.334   8.562  11.197
84559W        W85423  13.621   8.181  14.220
84560W        W85424  11.112   7.646  13.564
84561W        W85425  11.216  10.489  14.497
84562W        W85426  12.372   9.833  11.124
84563W        W85427  10.978   8.473  13.069
84564W        W85428  12.160   8.614  14.076
84565W        W85429  14.322   8.187  12.781
84566W        W85430  14.224   9.398  13.489
84567W        W85431  12.725   8.516  12.739
84568W        W85432  13.189  10.118  12.972
84569W        W85433  11.572   9.447  13.286
84570W        W85434  10.876   8.988  12.920
84571W        W85435  12.149   9.070  13.793
84572W        W85436  14.255   8.728  14.039
84573W        W85437  11.769  10.312  12.577
84574W        W85438  13.014   9.941  13.711
84575W        W85439  12.273   8.656  12.968
84576W        W85440  12.530   9.399  12.616
84577W        W85441  13.308  10.257  14.447
84578W        W85442  12.661   9.351  14.487
84579W        W85443  12.635   9.211  13.950
84580W        W85444  10.527   8.287  14.347
84581W        W85445  13.733  10.011  14.184
84582W        W85446  11.382   7.505  12.124
84583W        W85447  11.879   9.853  13.158
84584W        W85448  14.322   9.680  12.527
84585W        W85449  13.909   7.834  12.872
84586W        W85450  14.031   7.943  10.878
84587W        W85451  14.822   8.912  13.396
84588W        W85452  12.462  10.574  13.182
84589W        W85453  14.435   9.915  11.645
84590W        W85454  11.221  10.906  11.593
84591W        W85455  11.596  10.763  11.924
84592W        W85456  11.721   7.543  13.389
84593W        W85457  14.320   8.830  13.518
84594W        W85458  13.562   8.970  12.288
84595W        W85459  13.773   8.901  11.097
84596W        W85460  12.780   9.982  13.257
84597W        W85461  12.704   8.090  12.418
84598W        W85462  13.192  10.339  13.457
84599W        W85463  14.152   9.102  12.018
84600W        W85464  13.054   7.874  11.719
84601W        W85465  11.575  10.482  11.484
84602W        W85466  11.032   7.872  12.237
84603W        W85467  13.876   8.419  12.703
84604W        W85468  11.241  10.222  12.670
84605W        W85469  12.417  10.446  11.189
84606W        W85470  13.931   8.448  10.928
84607W        W85471  11.087  10.299  13.238
84608W        W85472  11.830   9.933  13.679
84609W        W85473  12.428   9.538  12.119
84610W        W85474  12.181   7.780  13.252
84611W        W85475  14.443   7.405  12.810
84612W        W85476  11.780   9.420  10.592
84613W        W85477  11.302   8.106  11.087
84614W        W85478  11.484  10.273  12.138
84615W        W85479  12.119   9.971  12.196
84616W        W85480  13.886  10.510  13.934
84617W        W85481  12.946   8.452  11.594
84618W        W85482  14.233  10.859  12.617
84619W        W85483  13.758   8.609  13.982
84620W        W85484  14.479   9.993  12.156
84621W        W85485  13.163   9.448  13.726
84622W        W85486  10.974   9.038  12.392
84623W        W85487  12.091   9.466  13.426
84624W        W85488  13.219   8.699  11.946
84625W        W85489  13.189   9.197  11.999
84626W        W85490  11.377   8.511  13.408
84627W        W85491  11.369   8.338  13.894
84628W        W85492  11.340   7.401  12.616
84629W        W85493  12.989   7.814  12.844
84630W        W85494  12.859   7.872  14.110
84631W        W85495  13.095   8.090  11.252
84632W        W85496  14.368  10.477  14.149
84633W        W85497  13.245   7.442  14.100
84634W        W85498  14.230   9.946  14.283
84635W        W85499  13.826   7.871  13.863
84636W        W85500  13.477   7.909  12.065
84637W        W85501  13.872   9.016  14.303
84638W        W85502  11.466  10.697  12.428
84639W        W85503  12.579   8.124  11.459
84640W        W85504  11.753   7.603  14.156
84641W        W85505  13.890   8.213  11.883
84642W        W85506  14.232   8.613  11.804
84643W        W85507  12.070  10.722  14.320
84644W        W85508  11.864   7.402  11.519
84645W        W85509  14.255   7.754  12.506
84646W        W85510  14.517  10.122  11.070
84647W        W85511  11.296   9.274  12.730
84648W        W85512  13.302   7.812  10.845
84649W        W85513  14.441  10.248  12.729
84650W        W85514  14.362   7.392  13.367
84651W        W85515  12.997   8.844  14.061
84652W        W85516  12.764   9.925  11.972
84653W        W85517  13.482   9.249  14.568
84654W        W85518  13.088   7.347  12.655
84655W        W85519  11.475   8.268  12.851
84656W        W85520  11.186   9.458  13.644
84657W        W85521  13.145  10.509  12.613
84658W        W85522  14.004   8.165  13.259
84659W        W85523  13.012  10.671  13.826
84660W        W85524  14.176   9.230  11.143
84661W        W85525  12.770   9.083  12.285
84662W        W85526  14.475   7.371  13.860
84663W        W85527  12.652   9.569  13.576
84664W        W85528  12.984   8.264  13.107
84665W        W85529  13.719   8.706  11.881
84666W        W85530  13.813   8.509  11.429
84667W        W85531  14.154  10.315  11.889
84668W        W85532  13.810   9.770  12.604
84669W        W85533  13.456   8.958  11.529
84670W        W85534  13.059   9.239  12.686
84671W        W85535  14.021   8.944  12.747
84672W        W85536  11.429   7.981  13.269
84673W        W85537  13.956   9.074  13.798
84674W        W85538  14.392  10.660  13.067
84675W        W85539  12.285  10.338  12.527
84676W        W85540  13.506  10.743  13.682
84677W        W85541  13.238   7.893  13.352
84678W        W85542  12.615  10.887  13.575
84679W        W85543  14.122   7.766  12.000
84680W        W85544  13.931   9.073  13.231
84681W        W85545  11.013   8.161  13.510
84682W        W85546  13.844   8.026  12.387
84683W        W85547  14.107   8.312  13.748
84684W        W85548  13.120  10.003  12.463
84685W        W85549  12.427  10.744  12.217
84686W        W85550  11.445   7.644  11.313
84687W        W85551  12.710   7.394  13.021
84688W        W85552  11.456  10.811  11.108
84689W        W85553  12.310   9.345  11.585
84690W        W85554  12.739   9.696  14.069
84691W        W85555  12.647   7.716  12.019
84692W        W85556  13.837   7.508  12.348
84693W        W85557  13.682  10.908  12.794
84694W        W85558  12.952  10.574  13.081
84695W        W85559  12.443   9.614  13.089
84696W        W85560  14.172  10.267  13.298
84697W        W85561  11.840   7.692  11.963
84698W        W85562  12.287  10.125  13.012
84699W        W85563  11.777   7.954  10.921
84700W        W85564  12.710   8.653  13.291
84701W        W85565  13.461   7.497  13.083
84702W        W85566  11.079   9.433  13.153
84703W        W85567  12.530   9.067  11.179
84704W        W85568  11.912   7.471  10.972
84705W        W85569  12.689   8.581  12.215
84706W        W85570  13.489   7.529  13.620
84707W        W85571  12.211   9.605  13.906
84708W        W85572  13.090   9.318  14.224
84709W        W85573  13.570   9.390  14.059
84710W        W85574  12.878   7.551  14.534
84711W        W85575  12.002   8.157  12.933
84712W        W85576  11.533   7.916  12.411
84713W        W85577  11.098  10.643  12.045
84714W        W85578  12.883  10.214  14.128
84715W        W85579  11.929   9.672  11.423
84716W        W85580  13.558   9.167  12.769
84717W        W85581  13.615   8.709  13.024
84718W        W85582  12.926   9.371  13.189
84719W        W85583  13.394   9.717  10.905
84720W        W85584  13.062   7.753  12.313
84721W        W85585  14.408   8.099  11.739
84722W        W85586  11.182  10.672  13.932
84723W        W85587  11.374   9.903  13.422
84724W        W85588  10.735  10.636  11.676
84725W        W85589  12.721   7.832  13.290
84726W        W85590  11.983  10.171  11.275
84727W        W85591  14.448  10.419  11.476
84728W        W85592  12.987   8.915  11.342
84729W        W85593  12.462   8.188  11.965
84730W        W85594  12.683   8.006  10.969
84731W        W85595  13.243   9.813  14.163
84732W        W85596  13.646   7.811  11.591
84733W        W85597  11.052   7.304  11.255
84734W        W85598  12.312   9.944  13.492
84735W        W85599  12.143   9.770  12.679
84736W        W85600  11.879   9.820  10.926
84737W        W85601  11.156  10.262  11.717
84738W        W85602  11.759   9.003  14.121
84739W        W85603  12.253   7.540  14.158
84740W        W85604  12.985   7.572  13.667
84741W        W85605  12.246   7.390  12.110
84742W        W85606  13.243   7.584  11.312
84743W        W85607  11.289   7.506  13.117
84744W        W85608  11.045   8.301  12.548
84745W        W85609  13.970   7.320  12.996
84746W        W85610  11.364   7.884  11.769
84747W        W85611  13.902   7.670  13.363
84748W        W85612  14.250   8.722  11.238
84749W        W85613  11.694   7.740  12.884
84750W        W85614  12.877   8.189  13.645
84751W        W85615  10.950   7.804  11.341
84752W        W85616  11.717   9.402  13.778
84753W        W85617  13.110   8.781  12.972
84754W        W85618  12.816  10.803  11.140
84755W        W85619  10.787   9.058  10.935
84756W        W85620  11.927  10.017  14.180
84757W        W85621  11.385   8.988  13.681
84758W        W85622  12.475   9.111  13.397
84759W        W85623  13.958   7.380  13.798
84760W        W85624  14.609   9.192  13.758
84761W        W85625  14.467   9.048  11.579
84762W        W85626  13.262   9.436  11.546
84763W        W85627  13.812  10.762  10.980
84764W        W85628  13.004   8.921  14.584
84765W        W85629  11.496   9.934  14.475
84766W        W85630  14.639   7.873  14.411
84767W        W85631  14.183   8.602  13.085
84768W        W85632  12.526  10.760  14.558
84769W        W85633  12.318   7.336  11.265
84770W        W85634  14.147   9.751  11.206
84771W        W85635  11.881   8.175  13.991
84772W        W85636  12.394  10.087  13.982
84773W        W85637  14.294   7.833  13.646
84774W        W85638  14.035  10.730  11.451
84775W        W85639  13.772   9.528  13.063
84776W        W85640  12.019   7.762  13.743
84777W        W85641  12.554   8.842  14.326
84778W        W85642  11.833  10.086  11.769
84779W        W85643  13.694   9.314  11.883
84780W        W85644  11.521   7.871  13.763
84781W        W85645  12.569   9.899  12.443
84782W        W85646  14.407   8.656  12.587
84783W        W85647  12.722   7.378  14.064
84784W        W85648  13.675  10.039  13.065
84785W        W85649  13.966  10.443  12.855
84786W        W85650  12.885  10.335  10.913
84787W        W85651  11.046  10.060  14.268
84788W        W85652  11.885   8.191  13.463
84789W        W85653  11.818   7.483  12.441
84790W        W85654  13.519   8.176  13.017
84791W        W85655  12.136   9.376  11.013
84792W        W85656  14.257   9.393  12.948
84793W        W85657  11.486  10.291  14.084
84794W        W85658  14.155  10.846  12.034
84795W        W85659  12.221   7.851  12.358
84796W        W85660  11.771   9.459  12.816
84797W        W85661  12.134  10.932  13.349
84798W        W85662  14.061  10.901  14.221
84799W        W85663  13.378   9.118  13.260
84800W        W85664  11.021   8.388  10.688
84801W        W85665  14.463  10.500  12.259
84802W        W85666  14.050   8.060  11.379
84803W        W85667  12.149   7.263  13.736
84804W        W85668  14.056  10.163  12.395
84805W        W85669  14.003   8.694  12.289
84806W        W85670  12.280   8.356  12.527
84807W        W85671  12.575   8.728  13.786
84808W        W85672  13.532   9.852  13.744
84809W        W85673  12.347   8.246  13.745
84810W        W85674  11.989  10.788  12.469
84811W        W85675  11.565  10.790  14.257
84812W        W85676  11.541  10.287  10.987
84813W        W85677  14.040   9.702  12.094
84814W        W85678  11.761   8.636  13.747
84815W        W85679  14.406   8.270  11.068
84816W        W85680  12.313   9.856  11.707
84817W        W85681  13.435   8.965  13.779
84818W        W85682  13.258   8.594  13.433
84819W        W85683  11.833   9.022  13.384
84820W        W85684  13.898  10.734  13.302
84821W        W85685  13.733   7.559  14.287
84822W        W85686  11.271   7.521  14.054
84823W        W85687  11.789   8.584  13.130
84824W        W85688  12.310   8.392  11.010
84825W        W85689  11.071  10.176  13.767
84826W        W85690  12.660   9.012  12.922
84827W        W85691  12.230   7.860  11.170
84828W        W85692  12.068   9.313  12.423
84829W        W85693  11.186  10.816  13.436
84830W        W85694  13.962   9.002  11.556
84831W        W85695  14.226   7.718  14.151
84832W        W85696  13.598   9.959  12.165
84833W        W85697  11.263   8.790  14.142
84834W        W85698  14.117   7.567  11.497
84835W        W85699  13.901   9.918  11.639
84836W        W85700  12.767   8.908  11.802
84837W        W85701  13.734   7.617  11.121
84838W        W85702  13.586   8.214  13.571
84839W        W85703  11.270   8.736  12.708
84840W        W85704  11.674   9.836  12.454
84841W        W85705  13.534   8.419  12.263
84842W        W85706  12.476   7.948  12.841
84843W        W85707  14.465   9.854  13.410
84844W        W85708  14.395   7.829  13.127
84845W        W85709  10.951  10.648  12.533
84846W        W85710  11.454   9.784  11.990
84847W        W85711  11.367   7.589  14.569
84848W        W85712  12.282  10.282  14.484
84849W        W85713  14.430   9.167  12.485
84850W        W85714  13.725   9.403  11.318
84851W        W85715  13.138  10.934  13.375
84852W        W85716  13.918   9.533  14.406
84853W        W85717  12.579   7.281  11.715
84854W        W85718  13.181   8.228  12.601
84855W        W85719  10.913   9.870  12.948
84856W        W85720  12.278   7.704  11.662
84857W        W85721  12.217   9.243  14.273
84858W        W85722  13.062   8.236  12.082
84859W        W85723  13.299   9.728  13.304
84860W        W85724  11.505  10.387  13.583
84861W        W85725  11.754  10.378  14.506
84862W        W85726  11.829   7.928  11.483
84863W        W85727  13.418   8.279  11.673
84864W        W85728  13.373  10.304  13.939
84865W        W85729  12.359   8.888  12.523
84866W        W85730  11.668  10.742  13.261
84867W        W85731  14.317  10.623  10.993
84868W        W85732  11.333   9.317  14.131
84869W        W85733  13.359   9.661  12.801
84870W        W85734  11.935   9.557  11.953
84871W        W85735  12.004  10.354  13.395
84872W        W85736  12.629   7.568  12.522
84873W        W85737  10.945   9.811  11.871
84874W        W85738  12.812   8.505  11.071
84875W        W85739  11.572   9.360  12.312
84876W        W85740  12.514   7.741  13.747
84877W        W85741  14.241   7.505  10.988
84878W        W85742  14.300   9.266  14.157
84879W        W85743  12.995  10.688  14.335
84880W        W85744  14.523   9.707  13.901
84881W        W85745  13.935  10.419  14.440
84882W        W85746  11.691  10.997  12.822
84883W        W85747  14.513   9.481  12.065
84884W        W85748  13.128   8.737  12.457
84885W        W85749  12.854   7.261  12.176
84886W        W85750  11.967  10.457  12.103
84887W        W85751  12.415   8.245  13.246
84888W        W85752  12.195   7.518  12.783
84889W        W85753  11.045  10.528  11.277
84890W        W85754  12.933   9.559  12.297
84891W        W85755  11.948  10.453  13.899
84892W        W85756  11.143   9.364  12.031
84893W        W85757  11.159   7.855  12.761
84894W        W85758  12.866   9.720  12.819
84895W        W85759  10.969   7.562  11.816
84896W        W85760  13.819   8.656  13.485
84897W        W85761  13.595   8.117  11.147
84898W        W85762  14.150   9.895  12.963
84899W        W85763  12.731  10.214  12.796
84900W        W85764  12.072  10.554  11.603
84901W        W85765  13.386   7.285  10.904
84902W        W85766  11.283  10.687  12.924
84903W        W85767  13.116   8.391  14.473
84904W        W85768  11.439   8.001  14.268
84905W        W85769  10.908   8.577  12.102
84906W        W85770  12.481   8.637  11.455
84907W        W85771  13.432   8.766  14.336
84908W        W85772  12.173   9.180  12.971
84909W        W85773  13.375   7.362  12.208
84910W        W85774  12.635  10.689  12.692
84911W        W85775  13.703  10.287  13.513
84912W        W85776  13.569  10.231  12.608
84913W        W85777  13.452   9.482  12.336
84914W        W85778  12.722   7.649  11.349
84915W        W85779  14.475   7.360  12.231
84916W        W85780  12.093   8.864  10.940
84917W        W85781  14.276   8.257  12.249
84918W        W85782  12.999   9.370  11.099
84919W        W85783  14.002   9.623  13.906
84920W        W85784  14.019  10.256  11.201
84921W        W85785  12.366   8.022  14.192
84922W        W85786  12.188   8.656  13.468
84923W        W85787  14.163  10.108  13.799
84924W        W85788  13.308   7.922  13.892
84925W        W85789  10.983   8.628  13.737
84926W        W85790  12.958   9.010  13.565
84927W        W85791  11.162   9.715  12.438
84928W        W85792  11.356   8.975  13.161
84929W        W85793  13.669   9.405  13.551
84930W        W85794  13.533  10.716  14.240
84931W        W85795  13.259   8.432  13.939
84932W        W85796  13.828  10.631  12.376
84933W        W85797  12.669  10.344  13.613
84934W        W85798  12.017  10.572  12.932
84935W        W85799  13.945   9.826  13.437
84936W        W85800  12.881   9.817  14.549
84937W        W85801  11.409   9.792  12.912
84938W        W85802  13.935   9.317  12.421
84939W        W85803  13.475  10.534  13.070
84940W        W85804  11.585  10.268  13.070
84941W        W85805  12.728   8.383  14.132
84942W        W85806  12.761  10.351  12.297
84943W        W85807  12.342   9.762  14.391
84944W        W85808  12.417  10.319  11.912
84945W        W85809  11.713   8.461  10.831
84946W        W85810  11.054  10.835  18.082
84947W        W85811  11.458   9.858  17.611
84948W        W85812  14.106   9.532  15.466
84949W        W85813  14.398  10.654  17.311
84950W        W85814  12.035  10.629  14.846
84951W        W85815  12.235   8.726  15.685
84952W        W85816  11.828   8.570  16.249
84953W        W85817  12.689   9.236  15.469
84954W        W85818  12.362  10.666  17.249
84955W        W85819  10.947   8.058  17.580
84956W        W85820  11.760   7.396  17.458
84957W        W85821  13.536   7.763  16.308
84958W        W85822  13.215   8.539  15.028
84959W        W85823  13.568   8.148  17.910
84960W        W85824  11.069   7.643  17.245
84961W        W85825  11.218  10.356  18.174
84962W        W85826  12.457   9.952  14.876
84963W        W85827  10.946   8.384  16.616
84964W        W85828  12.159   8.643  17.835
84965W        W85829  14.305   8.181  16.424
84966W        W85830  14.237   9.417  17.204
84967W        W85831  12.703   8.665  16.322
84968W        W85832  13.316  10.119  16.617
84969W        W85833  11.560   9.392  16.891
84970W        W85834  10.897   8.928  16.552
84971W        W85835  12.142   9.029  17.463
84972W        W85836  14.294   8.655  17.868
84973W        W85837  11.809  10.134  16.327
84974W        W85838  13.054   9.970  17.383
84975W        W85839  12.286   8.524  16.581
84976W        W85840  12.418   9.350  16.250
84977W        W85841  13.163  10.079  17.883
84978W        W85842  12.696   9.329  18.111
84979W        W85843  12.607   9.278  17.600
84980W        W85844  10.621   8.299  17.923
84981W        W85845  13.846   9.948  17.981
84982W        W85846  11.399   7.515  15.799
84983W        W85847  11.961   9.876  16.778
84984W        W85848  14.395   9.657  16.328
84985W        W85849  13.844   8.080  16.684
84986W        W85850  13.961   7.962  14.548
84987W        W85851  14.607   8.698  17.094
84988W        W85852  12.440  10.611  16.737
84989W        W85853  14.280  10.011  15.218
84990W        W85854  11.361  10.830  15.313
84991W        W85855  11.732  10.817  15.695
84992W        W85856  11.562   7.629  17.054
84993W        W85857  14.223   8.529  17.385
84994W        W85858  13.600   8.984  15.840
84995W        W85859  13.604   8.813  14.832
84996W        W85860  12.906   9.901  16.859
84997W        W85861  12.773   8.154  16.194
84998W        W85862  13.174  10.346  17.056
84999W        W85863  14.122   9.090  15.778
85000W        W85864  13.015   7.763  15.465
85001W        W85865  11.640  10.398  15.421
85002W        W85866  11.036   7.872  15.850
85003W        W85867  13.556   8.691  16.268
85004W        W85868  11.296  10.231  16.371
85005W        W85869  12.494  10.521  15.040
85006W        W85870  13.916   8.521  14.479
85007W        W85871  11.069  10.216  16.831
85008W        W85872  11.854   9.888  17.285
85009W        W85873  12.255   9.234  15.760
85010W        W85874  12.011   7.730  16.825
85011W        W85875  14.479   7.466  16.542
85012W        W85876  11.798   9.538  14.275
85013W        W85877  11.253   8.070  14.754
85014W        W85878  11.513  10.208  15.896
85015W        W85879  12.291   9.732  15.807
85016W        W85880  13.933  10.584  17.489
85017W        W85881  12.846   8.245  15.281
85018W        W85882  14.125  10.854  16.135
85019W        W85883  13.804   8.535  17.682
85020W        W85884  14.632  10.097  16.089
85021W        W85885  13.255   9.454  17.348
85022W        W85886  10.625   9.039  15.943
85023W        W85887  12.032   9.433  17.057
85024W        W85888  13.092   8.666  15.514
85025W        W85889  13.124   9.152  15.739
85026W        W85890  11.277   8.462  17.056
85027W        W85891  11.343   8.450  17.597
85028W        W85892  11.288   7.380  16.283
85029W        W85893  13.077   7.854  16.508
85030W        W85894  12.767   7.837  17.788
85031W        W85895  13.128   8.016  14.911
85032W        W85896  14.392  10.536  17.834
85033W        W85897  13.214   7.372  17.737
85034W        W85898  14.327   9.748  18.006
85035W        W85899  13.770   7.841  17.563
85036W        W85900  13.514   7.945  15.819
85037W        W85901  13.836   8.912  18.032
85038W        W85902  11.588  10.641  16.191
85039W        W85903  12.417   8.117  14.976
85040W        W85904  11.808   7.701  17.853
85041W        W85905  13.892   8.197  15.585
85042W        W85906  14.193   8.643  15.484
85043W        W85907  11.939  10.748  18.026
85044W        W85908  11.862   7.446  15.314
85045W        W85909  14.057   7.740  16.350
85046W        W85910  14.407  10.243  14.672
85047W        W85911  11.421   9.305  16.373
85048W        W85912  13.288   7.856  14.439
85049W        W85913  14.466  10.165  16.578
85050W        W85914  14.319   7.401  17.057
85051W        W85915  13.028   8.639  17.589
85052W        W85916  12.693   9.768  15.451
85053W        W85917  13.418   9.158  18.187
85054W        W85918  13.106   7.371  16.325
85055W        W85919  11.435   8.284  16.501
85056W        W85920  11.167   9.393  17.238
85057W        W85921  13.210  10.562  16.309
85058W        W85922  14.212   8.414  16.891
85059W        W85923  12.915  10.762  17.310
85060W        W85924  13.976   9.175  14.790
85061W        W85925  12.670   8.994  15.919
85062W        W85926  14.415   7.279  17.539
85063W        W85927  12.776   9.570  17.222
85064W        W85928  12.967   8.345  16.641
85065W        W85929  13.681   8.582  15.308
85066W        W85930  13.888   8.146  15.069
85067W        W85931  14.012  10.339  15.506
85068W        W85932  13.645   9.803  16.312
85069W        W85933  13.415   9.019  15.328
85070W        W85934  12.959   9.217  16.276
85071W        W85935  13.947   9.050  16.256
85072W        W85936  11.169   7.983  16.880
85073W        W85937  13.946   8.998  17.522
85074W        W85938  14.494  10.652  16.807
85075W        W85939  12.325  10.351  16.291
85076W        W85940  13.485  10.797  17.215
85077W        W85941  13.406   7.998  17.008
85078W        W85942  12.550  11.108  17.138
85079W        W85943  14.196   7.736  15.640
85080W        W85944  14.157   8.934  17.042
85081W        W85945  10.787   8.281  17.100
85082W        W85946  13.812   8.190  16.172
85083W        W85947  14.164   8.160  17.763
85084W        W85948  13.159  10.021  16.147
85085W        W85949  12.452  10.607  15.854
85086W        W85950  11.442   7.628  15.070
85087W        W85951  12.797   7.435  16.743
85088W        W85952  11.524  10.767  14.816
85089W        W85953  12.244   9.149  15.237
85090W        W85954  12.583   9.843  17.629
85091W        W85955  12.607   7.876  15.786
85092W        W85956  13.817   7.535  15.926
85093W        W85957  13.653  10.860  16.352
85094W        W85958  12.950  10.691  16.755
85095W        W85959  12.402   9.566  16.729
85096W        W85960  14.209  10.252  17.047
85097W        W85961  11.869   7.763  15.721
85098W        W85962  12.419  10.090  16.722
85099W        W85963  11.935   7.975  14.472
85100W        W85964  12.609   8.368  17.017
85101W        W85965  13.407   7.511  16.753
85102W        W85966  11.071   9.372  16.745
85103W        W85967  12.514   8.995  14.823
85104W        W85968  11.927   7.442  14.603
85105W        W85969  12.681   8.502  15.810
85106W        W85970  13.439   7.535  17.274
85107W        W85971  12.159   9.547  17.551
85108W        W85972  13.091   9.107  17.776
85109W        W85973  13.573   9.312  17.720
85110W        W85974  12.837   7.460  18.207
85111W        W85975  11.940   8.118  16.479
85112W        W85976  11.500   7.961  16.075
85113W        W85977  11.231  10.632  15.777
85114W        W85978  12.773  10.338  17.631
85115W        W85979  11.710   9.806  15.168
85116W        W85980  13.471   9.201  16.363
85117W        W85981  13.746   8.962  16.729
85118W        W85982  12.849   9.322  16.768
85119W        W85983  13.514   9.779  14.619
85120W        W85984  13.081   7.768  16.006
85121W        W85985  14.341   8.148  15.318
85122W        W85986  11.155  10.508  17.669
85123W        W85987  11.372   9.845  17.084
85124W        W85988  10.855  10.729  15.398
85125W        W85989  12.879   7.920  16.955
85126W        W85990  12.055  10.199  15.136
85127W        W85991  14.327  10.512  15.114
85128W        W85992  12.965   9.008  15.089
85129W        W85993  12.367   8.253  15.484
85130W        W85994  12.742   8.061  14.574
85131W        W85995  13.007   9.601  17.762
85132W        W85996  13.715   7.724  15.396
85133W        W85997  11.131   7.225  14.894
85134W        W85998  12.350   9.844  17.160
85135W        W85999  12.243   9.837  16.310
85136W        W86000  11.958   9.924  14.706
85137W        W86001  11.129  10.238  15.463
85138W        W86002  11.701   8.845  17.656
85139W        W86003  12.355   7.591  18.093
85140W        W86004  12.897   7.589  17.347
85141W        W86005  12.281   7.443  15.769
85142W        W86006  13.186   7.509  15.034
85143W        W86007  11.172   7.462  16.778
85144W        W86008  11.102   8.330  16.100
85145W        W86009  13.972   7.348  16.682
85146W        W86010  11.404   7.923  15.491
85147W        W86011  13.858   7.688  17.037
85148W        W86012  14.075   8.639  14.970
85149W        W86013  11.536   7.775  16.558
85150W        W86014  12.913   8.183  17.387
85151W        W86015  10.940   7.706  14.947
85152W        W86016  11.659   9.390  17.418
85153W        W86017  13.153   8.834  16.577
85154W        W86018  12.869  10.935  14.963
85155W        W86019  10.943   9.048  14.469
85156W        W86020  11.948   9.977  17.794
85157W        W86021  11.302   8.904  17.338
85158W        W86022  12.467   9.184  17.105
85159W        W86023  13.910   7.364  17.461
85160W        W86024  14.448   8.999  17.466
85161W        W86025  14.431   9.146  15.368
85162W        W86026  13.134   9.465  15.321
85163W        W86027  13.785  10.889  14.678
85164W        W86028  12.978   8.923  18.260
85165W        W86029  11.555   9.948  18.143
85166W        W86030  14.529   7.843  18.130
85167W        W86031  13.996   8.584  16.477
85168W        W86032  12.389  10.670  17.758
85169W        W86033  12.272   7.344  14.988
85170W        W86034  14.000   9.721  14.881
85171W        W86035  11.825   8.219  17.713
85172W        W86036  12.263  10.229  17.485
85173W        W86037  14.248   7.822  17.350
85174W        W86038  13.856  10.718  15.166
85175W        W86039  13.747   9.524  16.732
85176W        W86040  11.939   7.890  17.326
85177W        W86041  12.645   8.850  17.876
85178W        W86042  11.895   9.995  15.612
85179W        W86043  13.613   9.442  15.599
85180W        W86044  11.432   8.001  17.382
85181W        W86045  12.644  10.066  15.995
85182W        W86046  14.397   8.633  16.155
85183W        W86047  12.677   7.332  17.740
85184W        W86048  13.828  10.077  16.722
85185W        W86049  14.072  10.515  16.531
85186W        W86050  12.781  10.317  14.634
85187W        W86051  11.029  10.014  17.847
85188W        W86052  11.653   8.113  16.932
85189W        W86053  11.775   7.526  16.171
85190W        W86054  13.492   8.456  16.727
85191W        W86055  12.210   9.445  14.779
85192W        W86056  14.208   9.283  16.667
85193W        W86057  11.619  10.369  17.848
85194W        W86058  14.136  10.844  15.597
85195W        W86059  12.203   7.814  16.146
85196W        W86060  11.924   9.452  16.500
85197W        W86061  12.101  10.983  16.912
85198W        W86062  14.091  10.944  17.844
85199W        W86063  13.332   9.209  16.900
85200W        W86064  11.033   8.347  14.306
85201W        W86065  14.357  10.467  15.876
85202W        W86066  14.148   7.698  15.115
85203W        W86067  12.273   7.501  17.465
85204W        W86068  14.106  10.075  16.222
85205W        W86069  13.953   8.618  15.932
85206W        W86070  12.288   8.333  16.099
85207W        W86071  12.577   8.741  17.382
85208W        W86072  13.536   9.833  17.567
85209W        W86073  12.229   8.356  17.417
85210W        W86074  12.184  10.848  16.252
85211W        W86075  11.487  10.879  17.828
85212W        W86076  11.543  10.245  14.940
85213W        W86077  14.268   9.936  15.746
85214W        W86078  11.755   8.483  17.274
85215W        W86079  14.350   8.223  14.757
85216W        W86080  12.214   9.694  15.274
85217W        W86081  13.423   8.927  17.410
85218W        W86082  13.109   8.596  17.074
85219W        W86083  11.766   8.978  17.115
85220W        W86084  13.976  10.735  16.996
85221W        W86085  13.678   7.530  17.970
85222W        W86086  11.318   7.554  17.677
85223W        W86087  11.784   8.584  16.765
85224W        W86088  12.340   8.398  14.529
85225W        W86089  11.024  10.137  17.342
85226W        W86090  12.689   8.824  16.818
85227W        W86091  12.372   7.713  14.629
85228W        W86092  11.835   9.181  16.062
85229W        W86093  11.146  10.638  17.155
85230W        W86094  13.919   9.058  15.299
85231W        W86095  14.183   7.649  17.820
85232W        W86096  13.753  10.000  15.841
85233W        W86097  11.192   8.875  17.858
85234W        W86098  14.246   7.188  15.076
85235W        W86099  13.772   9.893  15.323
85236W        W86100  12.613   8.726  15.331
85237W        W86101  13.613   7.741  14.852
85238W        W86102  13.887   8.171  17.206
85239W        W86103  11.124   8.913  16.093
85240W        W86104  11.810   9.703  16.046
85241W        W86105  13.494   8.467  15.785
85242W        W86106  12.476   8.015  16.606
85243W        W86107  14.505   9.859  17.265
85244W        W86108  14.314   7.879  16.837
85245W        W86109  11.010  10.656  16.231
85246W        W86110  11.395   9.802  15.601
85247W        W86111  11.351   7.588  18.191
85248W        W86112  12.398  10.187  17.968
85249W        W86113  14.443   9.148  16.223
85250W        W86114  13.608   9.429  15.064
85251W        W86115  13.047  11.168  16.909
85252W        W86116  13.878   9.439  18.108
85253W        W86117  12.606   7.290  15.382
85254W        W86118  13.291   8.241  16.225
85255W        W86119  10.976   9.817  16.506
85256W        W86120  12.314   7.741  15.353
85257W        W86121  12.221   9.169  17.949
85258W        W86122  13.066   8.197  15.748
85259W        W86123  13.423   9.824  17.026
85260W        W86124  11.526  10.300  17.328
85261W        W86125  11.967  10.276  18.238
85262W        W86126  11.973   7.807  14.965
85263W        W86127  13.397   8.149  15.342
85264W        W86128  13.291  10.449  17.552
85265W        W86129  12.245   8.867  16.182
85266W        W86130  11.674  10.701  17.020
85267W        W86131  14.279  10.739  14.664
85268W        W86132  11.243   9.398  17.756
85269W        W86133  13.234   9.610  16.564
85270W        W86134  11.832   9.479  15.583
85271W        W86135  12.048  10.317  17.038
85272W        W86136  12.657   7.637  16.279
85273W        W86137  10.954   9.377  15.018
85274W        W86138  12.740   8.526  14.837
85275W        W86139  11.354   9.334  15.851
85276W        W86140  12.470   7.925  17.259
85277W        W86141  14.274   7.531  14.645
85278W        W86142  14.255   9.170  17.906
85279W        W86143  12.958  10.767  17.858
85280W        W86144  14.559   9.478  17.634
85281W        W86145  13.888  10.473  17.982
85282W        W86146  11.700  10.981  16.578
85283W        W86147  14.491   9.468  15.839
85284W        W86148  13.112   8.722  16.031
85285W        W86149  12.806   7.360  15.864
85286W        W86150  11.983  10.417  15.903
85287W        W86151  12.136   8.209  16.950
85288W        W86152  12.303   7.384  16.594
85289W        W86153  11.088  10.496  15.003
85290W        W86154  12.769   9.525  15.903
85291W        W86155  11.901  10.629  17.499
85292W        W86156  10.888   9.219  15.544
85293W        W86157  11.056   7.881  16.380
85294W        W86158  12.761   9.732  16.387
85295W        W86159  11.021   7.551  15.434
85296W        W86160  13.751   8.649  17.145
85297W        W86161  13.542   8.269  14.726
85298W        W86162  14.242   9.771  16.812
85299W        W86163  12.823  10.260  16.476
85300W        W86164  12.138  10.628  15.424
85301W        W86165  13.363   7.319  14.585
85302W        W86166  11.302  10.662  16.652
85303W        W86167  13.079   8.238  17.905
85304W        W86168  11.387   8.022  17.899
85305W        W86169  10.872   8.658  15.710
85306W        W86170  12.234   8.603  15.009
85307W        W86171  13.375   8.672  17.973
85308W        W86172  12.226   9.062  16.664
85309W        W86173  13.347   7.329  15.876
85310W        W86174  12.704  10.738  16.290
85311W        W86175  13.666  10.278  17.183
85312W        W86176  13.658  10.321  16.278
85313W        W86177  13.300   9.542  16.020
85314W        W86178  12.711   7.699  15.022
85315W        W86179  14.498   7.309  15.844
85316W        W86180  12.069   8.838  14.549
85317W        W86181  14.271   8.171  15.918
85318W        W86182  12.675   9.471  15.006
85319W        W86183  14.014   9.570  17.632
85320W        W86184  13.919  10.247  14.930
85321W        W86185  12.261   7.946  17.738
85322W        W86186  12.201   8.718  17.047
85323W        W86187  14.177  10.111  17.596
85324W        W86188  13.258   7.876  17.587
85325W        W86189  10.850   8.582  17.521
85326W        W86190  12.948   9.062  17.241
85327W        W86191  11.313   9.770  16.119
85328W        W86192  11.350   8.917  16.803
85329W        W86193  13.732   9.336  17.209
85330W        W86194  13.576  10.850  17.737
85331W        W86195  13.418   8.336  17.419
85332W        W86196  13.749  10.628  15.869
85333W        W86197  12.668  10.276  17.130
85334W        W86198  11.946  10.544  16.594
85335W        W86199  13.919   9.833  17.200
85336W        W86200  12.770   9.850  18.151
85337W        W86201  11.496   9.787  16.582
85338W        W86202  13.987   9.544  16.001
85339W        W86203  13.552  10.551  16.748
85340W        W86204  11.585  10.239  16.809
85341W        W86205  12.601   8.348  17.752
85342W        W86206  12.787  10.501  15.479
85343W        W86207  12.293   9.678  18.045
85344W        W86208  12.374  10.180  15.547
85345W        W86209  11.679   8.514  14.303
85346W        W86210  10.971  10.904  21.602
85347W        W86211  11.369   9.768  21.223
85348W        W86212  14.234   9.323  19.258
85349W        W86213  14.468  10.557  20.911
85350W        W86214  11.961  10.670  18.579
85351W        W86215  12.280   8.814  19.396
85352W        W86216  11.776   8.632  19.867
85353W        W86217  12.873   9.400  19.000
85354W        W86218  12.464  10.584  21.227
85355W        W86219  11.013   8.015  21.287
85356W        W86220  11.676   7.261  21.128
85357W        W86221  13.411   7.644  19.964
85358W        W86222  13.228   8.527  18.463
85359W        W86223  13.630   8.182  21.650
85360W        W86224  11.184   7.695  20.870
85361W        W86225  11.181  10.485  21.828
85362W        W86226  12.424  10.113  18.468
85363W        W86227  10.923   8.418  20.344
85364W        W86228  12.141   8.640  21.446
85365W        W86229  14.269   8.215  20.122
85366W        W86230  14.225   9.385  20.898
85367W        W86231  12.644   8.714  19.774
85368W        W86232  13.167  10.178  20.346
85369W        W86233  11.556   9.385  20.504
85370W        W86234  10.822   8.921  20.209
85371W        W86235  12.105   9.029  21.098
85372W        W86236  14.281   8.800  21.613
85373W        W86237  11.770  10.086  19.913
85374W        W86238  12.979   9.965  20.927
85375W        W86239  12.285   8.551  20.236
85376W        W86240  12.556   9.331  19.940
85377W        W86241  13.204  10.205  21.738
85378W        W86242  12.673   9.398  21.727
85379W        W86243  12.573   9.246  21.232
85380W        W86244  10.840   8.348  21.642
85381W        W86245  13.631  10.007  21.478
85382W        W86246  11.364   7.489  19.407
85383W        W86247  11.931   9.801  20.413
85384W        W86248  14.371   9.738  19.956
85385W        W86249  13.844   7.795  20.251
85386W        W86250  13.934   7.933  18.184
85387W        W86251  14.547   8.786  20.693
85388W        W86252  12.402  10.629  20.419
85389W        W86253  14.366  10.445  18.739
85390W        W86254  11.526  10.790  18.865
85391W        W86255  11.824  10.917  19.457
85392W        W86256  11.662   7.553  20.677
85393W        W86257  14.137   8.875  20.980
85394W        W86258  13.523   8.987  19.670
85395W        W86259  13.624   8.863  18.554
85396W        W86260  12.759   9.900  20.471
85397W        W86261  12.727   8.145  19.702
85398W        W86262  13.273  10.353  20.821
85399W        W86263  14.015   8.935  19.487
85400W        W86264  13.113   7.553  19.097
85401W        W86265  11.627  10.346  19.100
85402W        W86266  11.017   7.884  19.482
85403W        W86267  13.354   8.609  19.948
85404W        W86268  11.273  10.209  20.037
85405W        W86269  12.378  10.615  18.270
85406W        W86270  13.779   8.453  18.265
85407W        W86271  11.067  10.216  20.511
85408W        W86272  11.808   9.848  20.911
85409W        W86273  12.152   9.336  19.533
85410W        W86274  12.040   7.815  20.414
85411W        W86275  14.511   7.354  20.032
85412W        W86276  11.779   9.506  17.913
85413W        W86277  11.307   8.068  18.413
85414W        W86278  11.353  10.223  19.537
85415W        W86279  12.161   9.822  19.679
85416W        W86280  14.045  10.676  21.145
85417W        W86281  13.019   8.118  18.709
85418W        W86282  14.174  10.853  19.844
85419W        W86283  13.836   8.649  21.393
85420W        W86284  14.574  10.040  19.586
85421W        W86285  13.201   9.440  21.005
85422W        W86286  10.929   8.983  19.339
85423W        W86287  12.032   9.402  20.726
85424W        W86288  13.113   8.518  19.011
85425W        W86289  13.138   9.178  19.391
85426W        W86290  11.397   8.520  20.707
85427W        W86291  11.393   8.484  21.389
85428W        W86292  11.264   7.359  19.894
85429W        W86293  12.925   7.870  20.125
85430W        W86294  12.768   7.898  21.436
85431W        W86295  13.171   7.655  18.571
85432W        W86296  14.444  10.478  21.456
85433W        W86297  13.364   7.409  21.271
85434W        W86298  14.209   9.998  21.634
85435W        W86299  13.769   7.994  21.176
85436W        W86300  13.451   7.812  19.420
85437W        W86301  13.643   9.070  21.726
85438W        W86302  11.590  10.605  19.862
85439W        W86303  12.552   8.087  18.934
85440W        W86304  11.869   7.622  21.469
85441W        W86305  13.851   8.066  19.217
85442W        W86306  13.934   8.565  19.155
85443W        W86307  12.004  10.812  21.652
85444W        W86308  11.828   7.355  18.842
85445W        W86309  14.222   7.744  19.900
85446W        W86310  14.246  10.213  18.246
85447W        W86311  11.246   9.336  20.057
85448W        W86312  13.226   7.774  18.081
85449W        W86313  14.467  10.221  20.119
85450W        W86314  14.435   7.309  20.534
85451W        W86315  13.001   8.700  21.367
85452W        W86316  12.492   9.659  19.305
85453W        W86317  13.479   9.288  22.158
85454W        W86318  12.972   7.341  19.997
85455W        W86319  11.404   8.414  20.171
85456W        W86320  11.239   9.362  20.926
85457W        W86321  13.164  10.557  19.978
85458W        W86322  14.104   8.568  20.502
85459W        W86323  12.975  10.677  21.077
85460W        W86324  14.330   9.408  18.769
85461W        W86325  12.640   9.166  19.486
85462W        W86326  14.391   7.387  21.028
85463W        W86327  12.727   9.529  20.840
85464W        W86328  12.797   8.397  20.161
85465W        W86329  13.576   8.414  18.826
85466W        W86330  13.951   8.111  18.670
85467W        W86331  14.193  10.193  19.227
85468W        W86332  13.468   9.810  20.133
85469W        W86333  13.486   8.839  19.169
85470W        W86334  13.013   9.073  19.892
85471W        W86335  13.881   8.940  20.037
85472W        W86336  11.382   8.011  20.501
85473W        W86337  13.965   9.169  21.347
85474W        W86338  14.484  10.697  20.387
85475W        W86339  12.272  10.281  19.868
85476W        W86340  13.544  10.792  20.950
85477W        W86341  13.342   8.107  20.835
85478W        W86342  12.592  10.890  20.826
85479W        W86343  14.161   7.708  19.398
85480W        W86344  13.929   9.069  20.553
85481W        W86345  11.000   8.192  20.795
85482W        W86346  13.773   7.978  19.761
85483W        W86347  14.109   8.367  21.036
85484W        W86348  13.089  10.025  19.860
85485W        W86349  12.420  10.560  19.456
85486W        W86350  11.380   7.623  18.696
85487W        W86351  12.547   7.696  20.455
85488W        W86352  11.510  10.771  18.339
85489W        W86353  12.367   9.230  19.044
85490W        W86354  12.628   9.797  21.261
85491W        W86355  12.657   7.693  19.272
85492W        W86356  13.816   7.456  19.677
85493W        W86357  13.664  10.851  20.032
85494W        W86358  12.925  10.619  20.500
85495W        W86359  12.448   9.487  20.410
85496W        W86360  14.219  10.237  20.591
85497W        W86361  11.833   7.677  19.295
85498W        W86362  12.315  10.123  20.348
85499W        W86363  11.811   8.041  18.236
85500W        W86364  12.690   8.595  20.638
85501W        W86365  13.547   7.380  20.406
85502W        W86366  10.995   9.322  20.497
85503W        W86367  12.665   9.101  18.623
85504W        W86368  11.866   7.531  18.345
85505W        W86369  12.653   8.446  19.299
85506W        W86370  13.522   7.640  20.851
85507W        W86371  12.176   9.561  21.178
85508W        W86372  13.050   9.211  21.432
85509W        W86373  13.522   9.461  21.408
85510W        W86374  12.853   7.573  21.820
85511W        W86375  11.894   8.214  20.141
85512W        W86376  11.516   7.916  19.659
85513W        W86377  11.371  10.710  19.395
85514W        W86378  12.857  10.258  21.349
85515W        W86379  11.615   9.876  18.874
85516W        W86380  13.428   9.179  20.187
85517W        W86381  13.591   8.707  20.394
85518W        W86382  12.950   9.247  20.492
85519W        W86383  13.407   9.662  18.085
85520W        W86384  13.010   7.716  19.635
85521W        W86385  14.343   8.082  19.087
85522W        W86386  11.136  10.618  21.207
85523W        W86387  11.336   9.817  20.693
85524W        W86388  11.039  10.891  19.041
85525W        W86389  12.865   8.090  20.600
85526W        W86390  12.028  10.202  18.787
85527W        W86391  13.886  10.497  18.516
85528W        W86392  13.162   8.974  18.752
85529W        W86393  12.287   8.007  19.397
85530W        W86394  12.746   7.954  18.295
85531W        W86395  13.145   9.811  21.381
85532W        W86396  13.632   7.430  19.141
85533W        W86397  10.986   7.295  18.542
85534W        W86398  12.327   9.843  20.774
85535W        W86399  12.077   9.464  20.052
85536W        W86400  11.981   9.805  18.450
85537W        W86401  11.133  10.230  19.036
85538W        W86402  11.703   8.932  21.447
85539W        W86403  12.399   7.488  21.568
85540W        W86404  13.004   7.726  20.952
85541W        W86405  12.245   7.385  19.450
85542W        W86406  13.344   7.212  18.757
85543W        W86407  11.239   7.503  20.389
85544W        W86408  11.036   8.305  19.825
85545W        W86409  14.011   7.303  20.155
85546W        W86410  11.387   7.923  19.117
85547W        W86411  13.982   7.506  20.666
85548W        W86412  14.075   9.104  18.447
85549W        W86413  11.617   7.749  20.131
85550W        W86414  12.895   8.261  21.090
85551W        W86415  10.900   7.792  18.593
85552W        W86416  11.701   9.366  21.144
85553W        W86417  13.089   8.786  20.343
85554W        W86418  12.821  10.838  18.450
85555W        W86419  10.927   9.091  18.304
85556W        W86420  11.825   9.849  21.424
85557W        W86421  11.325   8.887  21.086
85558W        W86422  12.483   9.085  20.738
85559W        W86423  13.883   7.426  21.179
85560W        W86424  14.496   9.156  21.266
85561W        W86425  14.371   8.918  18.974
85562W        W86426  13.429   9.342  19.012
85563W        W86427  13.772  10.908  18.231
85564W        W86428  13.097   8.997  21.898
85565W        W86429  11.432   9.871  21.770
85566W        W86430  14.588   7.906  21.712
85567W        W86431  13.766   8.305  20.153
85568W        W86432  12.510  10.768  21.711
85569W        W86433  12.306   7.323  18.581
85570W        W86434  14.066   9.750  18.470
85571W        W86435  11.818   8.159  21.379
85572W        W86436  12.201  10.110  21.188
85573W        W86437  14.209   7.874  20.930
85574W        W86438  13.751  10.997  18.743
85575W        W86439  13.708   9.521  20.461
85576W        W86440  11.968   7.839  20.987
85577W        W86441  12.593   8.899  21.602
85578W        W86442  11.762   9.936  19.383
85579W        W86443  13.749   9.383  19.431
85580W        W86444  11.467   8.100  21.022
85581W        W86445  12.649  10.089  19.573
85582W        W86446  14.280   8.669  19.849
85583W        W86447  12.836   7.412  21.316
85584W        W86448  13.635  10.116  20.530
85585W        W86449  14.031  10.493  20.179
85586W        W86450  12.833  10.377  18.170
85587W        W86451  10.990   9.994  21.522
85588W        W86452  11.842   8.234  20.671
85589W        W86453  11.760   7.426  19.749
85590W        W86454  13.278   8.275  20.342
85591W        W86455  12.488   9.589  18.541
85592W        W86456  14.221   9.488  20.375
85593W        W86457  11.423  10.253  21.426
85594W        W86458  14.137  10.906  19.316
85595W        W86459  12.043   7.838  19.817
85596W        W86460  11.706   9.106  20.083
85597W        W86461  12.098  10.990  20.693
85598W        W86462  14.139  10.915  21.577
85599W        W86463  13.395   9.065  20.694
85600W        W86464  11.083   8.414  18.065
85601W        W86465  14.434  10.529  19.523
85602W        W86466  14.018   7.670  18.909
85603W        W86467  12.189   7.378  21.111
85604W        W86468  14.098  10.187  19.763
85605W        W86469  13.801   8.514  19.683
85606W        W86470  12.240   8.391  19.747
85607W        W86471  12.537   8.723  21.113
85608W        W86472  13.505   9.852  20.989
85609W        W86473  12.239   8.286  21.088
85610W        W86474  12.148  10.781  19.837
85611W        W86475  11.518  10.773  21.501
85612W        W86476  11.570  10.305  18.571
85613W        W86477  14.123   9.743  19.508
85614W        W86478  11.784   8.573  21.066
85615W        W86479  14.073   8.624  18.659
85616W        W86480  12.095   9.702  18.975
85617W        W86481  13.450   8.961  21.212
85618W        W86482  13.189   8.588  20.801
85619W        W86483  11.715   8.982  20.764
85620W        W86484  13.941  10.678  20.643
85621W        W86485  13.701   7.676  21.598
85622W        W86486  11.353   7.627  21.366
85623W        W86487  11.793   8.663  20.380
85624W        W86488  12.296   8.244  18.160
85625W        W86489  11.064  10.133  21.026
85626W        W86490  12.612   8.938  20.249
85627W        W86491  12.270   7.860  18.517
85628W        W86492  11.730   9.053  19.577
85629W        W86493  11.231  10.860  20.764
85630W        W86494  13.887   9.086  18.953
85631W        W86495  14.197   7.746  21.431
85632W        W86496  13.661   9.897  19.669
85633W        W86497  11.033   8.837  21.556
85634W        W86498  14.164   7.211  18.748
85635W        W86499  13.915   9.627  18.993
85636W        W86500  12.788   8.898  19.098
85637W        W86501  13.681   7.597  18.517
85638W        W86502  13.835   8.133  20.655
85639W        W86503  11.232   8.847  19.856
85640W        W86504  11.679   9.568  19.749
85641W        W86505  13.450   8.340  19.354
85642W        W86506  12.411   8.052  20.108
85643W        W86507  14.502   9.816  20.776
85644W        W86508  14.365   7.807  20.420
85645W        W86509  11.083  10.661  19.854
85646W        W86510  11.281   9.782  19.261
85647W        W86511  11.418   7.623  21.907
85648W        W86512  12.409  10.251  21.624
85649W        W86513  14.260   9.232  19.826
85650W        W86514  13.668   9.399  18.570
85651W        W86515  13.142  11.022  20.737
85652W        W86516  13.743   9.626  21.841
85653W        W86517  12.569   7.237  19.041
85654W        W86518  13.261   8.132  19.803
85655W        W86519  10.961   9.783  20.232
85656W        W86520  12.239   7.643  18.987
85657W        W86521  12.178   9.213  21.573
85658W        W86522  13.020   8.062  19.241
85659W        W86523  13.232   9.695  20.568
85660W        W86524  11.537  10.305  20.936
85661W        W86525  11.889  10.312  21.607
85662W        W86526  11.816   7.873  18.769
85663W        W86527  13.473   7.902  18.913
85664W        W86528  13.375  10.436  21.315
85665W        W86529  12.191   8.951  19.888
85666W        W86530  11.706  10.681  20.629
85667W        W86531  14.293  10.738  18.303
85668W        W86532  11.243   9.296  21.438
85669W        W86533  12.996   9.578  20.121
85670W        W86534  11.698   9.451  19.233
85671W        W86535  12.038  10.298  20.730
85672W        W86536  12.540   7.653  19.795
85673W        W86537  10.880   9.547  18.657
85674W        W86538  12.767   8.463  18.222
85675W        W86539  11.282   9.309  19.541
85676W        W86540  12.494   7.840  20.994
85677W        W86541  14.158   7.500  18.320
85678W        W86542  14.211   9.478  21.668
85679W        W86543  13.010  10.713  21.596
85680W        W86544  14.484   9.701  21.278
85681W        W86545  13.929  10.430  21.583
85682W        W86546  11.762  10.958  20.188
85683W        W86547  14.588   9.513  19.558
85684W        W86548  13.086   8.679  19.508
85685W        W86549  12.787   7.257  19.515
85686W        W86550  11.908  10.409  19.530
85687W        W86551  12.358   8.182  20.602
85688W        W86552  12.206   7.403  20.080
85689W        W86553  11.128  10.555  18.630
85690W        W86554  12.881   9.599  19.625
85691W        W86555  11.939  10.569  21.166
85692W        W86556  11.202   9.328  19.024
85693W        W86557  11.105   7.836  20.003
85694W        W86558  12.558   9.832  20.004
85695W        W86559  10.997   7.577  19.054
85696W        W86560  13.698   8.630  20.879
85697W        W86561  13.472   8.070  18.424
85698W        W86562  13.983   9.941  20.212
85699W        W86563  12.725  10.317  20.114
85700W        W86564  12.054  10.629  19.091
85701W        W86565  13.321   7.281  18.251
85702W        W86566  11.317  10.641  20.309
85703W        W86567  13.069   8.259  21.630
85704W        W86568  11.389   8.063  21.660
85705W        W86569  10.991   8.470  19.329
85706W        W86570  12.709   8.571  18.709
85707W        W86571  13.400   8.634  21.699
85708W        W86572  12.123   9.050  20.380
85709W        W86573  13.313   7.322  19.545
85710W        W86574  12.715  10.838  20.041
85711W        W86575  13.760  10.293  20.993
85712W        W86576  13.599  10.289  20.018
85713W        W86577  13.358   9.472  19.762
85714W        W86578  12.697   7.636  18.730
85715W        W86579  14.552   7.379  19.532
85716W        W86580  12.384   8.793  18.308
85717W        W86581  14.204   8.184  19.608
85718W        W86582  13.066   9.416  18.473
85719W        W86583  13.967   9.692  21.261
85720W        W86584  13.369  10.526  18.084
85721W        W86585  12.266   7.970  21.503
85722W        W86586  12.171   8.663  20.733
85723W        W86587  14.225  10.136  21.123
85724W        W86588  13.288   7.904  21.343
85725W        W86589  10.940   8.537  21.150
85726W        W86590  12.942   9.005  20.952
85727W        W86591  11.186   9.771  19.762
85728W        W86592  11.330   8.917  20.376
85729W        W86593  13.716   9.365  20.944
85730W        W86594  13.651  10.852  21.450
85731W        W86595  13.404   8.404  21.240
85732W        W86596  13.809  10.584  19.609
85733W        W86597  12.597  10.307  20.798
85734W        W86598  11.952  10.480  20.218
85735W        W86599  13.982   9.821  20.766
85736W        W86600  12.784   9.903  21.745
85737W        W86601  11.476   9.767  20.188
85738W        W86602  13.848   9.491  19.956
85739W        W86603  13.464  10.603  20.430
85740W        W86604  11.595  10.198  20.441
85741W        W86605  12.587   8.381  21.493
85742W        W86606  12.452  10.555  18.779
85743W        W86607  12.291   9.748  21.634
85744W        W86608  12.232  10.124  19.253
85745W        W86609  11.591   8.508  18.058
85746W        W86610  10.996  10.951  25.344
85747W        W86611  11.380   9.755  24.964
85748W        W86612  14.153   9.473  22.893
85749W        W86613  14.435  10.596  24.683
85750W        W86614  11.854  10.629  22.410
85751W        W86615  12.326   8.821  23.252
85752W        W86616  11.752   8.556  23.542
85753W        W86617  12.952   9.147  22.761
85754W        W86618  12.556  10.638  24.974
85755W        W86619  11.041   8.034  25.007
85756W        W86620  11.638   7.233  24.905
85757W        W86621  13.470   7.772  23.603
85758W        W86622  13.200   8.360  22.116
85759W        W86623  13.617   8.241  25.210
85760W        W86624  11.163   7.697  24.607
85761W        W86625  11.215  10.499  25.487
85762W        W86626  12.409   9.990  22.096
85763W        W86627  10.934   8.462  24.095
85764W        W86628  12.069   8.596  25.191
85765W        W86629  14.225   8.096  23.788
85766W        W86630  14.137   9.349  24.455
85767W        W86631  12.614   8.796  23.680
85768W        W86632  13.282  10.077  23.945
85769W        W86633  11.414   9.356  24.207
85770W        W86634  10.824   8.883  23.812
85771W        W86635  11.937   9.013  24.879
85772W        W86636  14.225   8.830  25.164
85773W        W86637  11.870  10.058  23.685
85774W        W86638  13.001   9.991  24.683
85775W        W86639  12.274   8.455  24.068
85776W        W86640  12.475   9.287  23.772
85777W        W86641  13.265  10.106  25.362
85778W        W86642  12.612   9.428  25.451
85779W        W86643  12.707   9.254  24.979
85780W        W86644  10.840   8.351  25.349
85781W        W86645  13.742  10.206  25.164
85782W        W86646  11.407   7.506  23.016
85783W        W86647  12.178  10.030  24.091
85784W        W86648  14.347   9.782  23.592
85785W        W86649  13.722   8.102  23.971
85786W        W86650  14.035   7.971  21.901
85787W        W86651  14.590   8.793  24.405
85788W        W86652  12.594  10.782  24.139
85789W        W86653  14.341  10.318  22.482
85790W        W86654  11.560  10.907  22.728
85791W        W86655  11.740  10.801  23.228
85792W        W86656  11.642   7.546  24.472
85793W        W86657  14.142   8.713  24.650
85794W        W86658  13.501   8.921  23.312
85795W        W86659  13.512   8.772  22.180
85796W        W86660  12.876   9.843  24.183
85797W        W86661  12.660   8.073  23.467
85798W        W86662  13.288  10.346  24.402
85799W        W86663  14.015   9.034  23.147
85800W        W86664  13.037   7.626  22.849
85801W        W86665  11.646  10.415  22.859
85802W        W86666  11.094   7.914  23.162
85803W        W86667  13.586   8.512  23.664
85804W        W86668  11.290  10.180  23.770
85805W        W86669  12.138  10.426  22.023
85806W        W86670  13.902   8.536  21.909
85807W        W86671  11.089  10.213  24.270
85808W        W86672  11.950  10.128  24.556
85809W        W86673  12.147   9.325  23.350
85810W        W86674  12.006   7.785  24.197
85811W        W86675  14.430   7.505  23.869
85812W        W86676  11.714   9.421  21.672
85813W        W86677  11.265   8.029  22.188
85814W        W86678  11.514  10.140  23.312
85815W        W86679  12.187   9.844  23.365
85816W        W86680  13.974  10.613  24.943
85817W        W86681  12.849   8.302  22.502
85818W        W86682  14.150  10.910  23.544
85819W        W86683  13.756   8.730  24.996
85820W        W86684  14.614  10.197  23.360
85821W        W86685  13.150   9.471  24.744
85822W        W86686  10.981   8.987  22.976
85823W        W86687  11.854   9.681  24.275
85824W        W86688  13.160   8.723  22.955
85825W        W86689  13.153   9.388  23.187
85826W        W86690  11.394   8.507  24.381
85827W        W86691  11.368   8.442  25.141
85828W        W86692  11.251   7.473  23.542
85829W        W86693  13.020   7.867  23.882
85830W        W86694  12.788   7.913  25.203
85831W        W86695  13.220   7.949  22.461
85832W        W86696  14.394  10.584  25.223
85833W        W86697  13.321   7.512  25.075
85834W        W86698  14.173  10.065  25.401
85835W        W86699  13.735   7.890  24.851
85836W        W86700  13.478   7.873  23.081
85837W        W86701  13.867   9.099  25.444
85838W        W86702  11.684  10.515  23.656
85839W        W86703  12.371   8.095  22.386
85840W        W86704  11.928   7.599  25.165
85841W        W86705  13.852   8.210  22.884
85842W        W86706  14.206   8.586  22.853
85843W        W86707  12.133  10.724  25.288
85844W        W86708  11.840   7.414  22.724
85845W        W86709  14.299   7.749  23.442
85846W        W86710  14.526  10.134  22.039
85847W        W86711  11.152   9.297  23.761
85848W        W86712  13.288   7.869  21.900
85849W        W86713  14.426  10.218  23.861
85850W        W86714  14.342   7.457  24.442
85851W        W86715  12.918   8.789  25.089
85852W        W86716  12.797   9.629  22.869
85853W        W86717  13.429   9.138  25.713
85854W        W86718  13.103   7.369  23.735
85855W        W86719  11.409   8.355  23.873
85856W        W86720  11.157   9.401  24.644
85857W        W86721  13.183  10.634  23.498
85858W        W86722  14.138   8.342  24.272
85859W        W86723  13.076  10.841  24.806
85860W        W86724  13.990   9.223  22.082
85861W        W86725  12.821   9.008  23.250
85862W        W86726  14.534   7.314  24.920
85863W        W86727  12.686   9.583  24.595
85864W        W86728  12.760   8.351  23.893
85865W        W86729  13.694   8.717  22.884
85866W        W86730  13.877   8.530  22.445
85867W        W86731  14.005  10.542  22.808
85868W        W86732  13.727   9.783  23.801
85869W        W86733  13.436   9.047  22.610
85870W        W86734  12.997   9.209  23.692
85871W        W86735  13.884   9.006  23.659
85872W        W86736  11.412   7.995  24.235
85873W        W86737  13.973   9.197  24.926
85874W        W86738  14.486  10.658  24.155
85875W        W86739  12.353  10.268  23.628
85876W        W86740  13.554  10.744  24.659
85877W        W86741  13.425   8.019  24.419
85878W        W86742  12.608  10.981  24.593
85879W        W86743  14.168   7.795  22.930
85880W        W86744  14.130   8.924  24.165
85881W        W86745  11.007   8.196  24.527
85882W        W86746  13.839   8.075  23.431
85883W        W86747  14.099   8.332  25.040
85884W        W86748  13.032   9.727  23.595
85885W        W86749  12.486  10.537  23.197
85886W        W86750  11.449   7.568  22.420
85887W        W86751  12.665   7.617  24.184
85888W        W86752  11.578  10.787  22.014
85889W        W86753  12.467   9.198  22.931
85890W        W86754  12.526   9.779  25.045
85891W        W86755  12.589   7.702  23.124
85892W        W86756  13.846   7.563  23.295
85893W        W86757  13.602  10.932  23.684
85894W        W86758  13.054  10.563  23.993
85895W        W86759  12.372   9.566  24.201
85896W        W86760  14.271  10.216  24.368
85897W        W86761  11.827   7.825  23.033
85898W        W86762  12.620  10.281  24.081
85899W        W86763  11.871   7.950  21.865
85900W        W86764  12.643   8.537  24.413
85901W        W86765  13.455   7.619  24.079
85902W        W86766  10.869   9.333  24.197
85903W        W86767  12.616   9.040  22.107
85904W        W86768  11.895   7.402  21.982
85905W        W86769  12.778   8.505  23.258
85906W        W86770  13.474   7.519  24.587
85907W        W86771  12.175   9.668  24.672
85908W        W86772  13.104   9.229  25.301
85909W        W86773  13.554   9.407  25.149
85910W        W86774  12.869   7.566  25.574
85911W        W86775  11.899   8.161  23.849
85912W        W86776  11.532   8.023  23.447
85913W        W86777  11.277  10.582  23.203
85914W        W86778  12.807  10.214  25.117
85915W        W86779  11.496  10.035  22.533
85916W        W86780  13.429   8.960  23.905
85917W        W86781  13.717   8.601  24.147
85918W        W86782  12.826   9.319  24.170
85919W        W86783  13.185   9.533  21.815
85920W        W86784  13.039   7.756  23.349
85921W        W86785  14.494   8.136  22.714
85922W        W86786  11.209  10.662  24.964
85923W        W86787  11.386   9.833  24.444
85924W        W86788  11.044  10.814  22.786
85925W        W86789  12.915   8.091  24.331
85926W        W86790  11.999  10.133  22.435
85927W        W86791  14.162  10.803  22.392
85928W        W86792  13.018   8.786  22.384
85929W        W86793  12.532   8.178  22.910
85930W        W86794  12.774   8.052  22.022
85931W        W86795  13.010   9.712  25.162
85932W        W86796  13.711   7.777  22.620
85933W        W86797  10.974   7.405  22.227
85934W        W86798  12.491  10.055  24.528
85935W        W86799  12.049   9.583  23.799
85936W        W86800  11.923   9.896  21.947
85937W        W86801  11.131  10.242  22.837
85938W        W86802  11.627   8.877  25.289
85939W        W86803  12.410   7.536  25.341
85940W        W86804  12.971   7.664  24.634
85941W        W86805  12.179   7.390  23.141
85942W        W86806  13.156   7.493  22.246
85943W        W86807  11.251   7.521  24.129
85944W        W86808  10.992   8.354  23.570
85945W        W86809  13.932   7.652  23.816
85946W        W86810  11.405   7.979  22.742
85947W        W86811  13.895   7.747  24.344
85948W        W86812  14.251   8.800  22.213
85949W        W86813  11.627   7.724  23.854
85950W        W86814  12.750   8.224  24.804
85951W        W86815  10.778   7.887  22.263
85952W        W86816  11.682   9.425  24.683
85953W        W86817  12.959   8.816  24.074
85954W        W86818  12.722  10.872  22.190
85955W        W86819  10.991   9.141  21.978
85956W        W86820  11.878   9.880  25.021
85957W        W86821  11.360   8.950  24.856
85958W        W86822  12.345   9.193  24.587
85959W        W86823  13.966   7.428  24.816
85960W        W86824  14.473   9.123  24.803
85961W        W86825  14.358   9.335  22.434
85962W        W86826  13.292   9.537  22.670
85963W        W86827  13.832  10.818  21.966
85964W        W86828  12.969   8.859  25.609
85965W        W86829  11.597   9.856  25.452
85966W        W86830  14.638   7.642  25.340
85967W        W86831  14.113   8.575  23.785
85968W        W86832  12.611  10.796  25.461
85969W        W86833  12.239   7.358  22.392
85970W        W86834  14.174   9.733  22.140
85971W        W86835  11.790   8.144  25.114
85972W        W86836  12.273  10.213  24.977
85973W        W86837  14.210   8.001  24.666
85974W        W86838  13.698  11.126  22.831
85975W        W86839  13.756   9.327  24.096
85976W        W86840  11.975   7.858  24.718
85977W        W86841  12.483   8.933  25.356
85978W        W86842  11.839   9.942  22.956
85979W        W86843  13.644   9.344  23.004
85980W        W86844  11.479   8.114  24.719
85981W        W86845  12.643  10.011  23.231
85982W        W86846  14.400   8.751  23.339
85983W        W86847  12.808   7.405  25.070
85984W        W86848  13.781  10.185  24.148
85985W        W86849  14.040  10.571  23.906
85986W        W86850  12.752  10.391  21.972
85987W        W86851  11.083  10.011  25.327
85988W        W86852  11.874   8.256  24.379
85989W        W86853  11.759   7.493  23.424
85990W        W86854  13.258   8.354  24.027
85991W        W86855  12.251   9.440  22.041
85992W        W86856  14.233   9.340  23.850
85993W        W86857  11.485  10.249  25.105
85994W        W86858  14.167  11.008  22.974
85995W        W86859  12.172   7.874  23.424
85996W        W86860  11.668   9.222  23.764
85997W        W86861  12.151  11.016  24.339
85998W        W86862  14.120  11.021  25.260
85999W        W86863  13.291   9.173  24.351
86000W        W86864  11.259   8.509  21.900
86001W        W86865  14.344  10.589  23.202
86002W        W86866  14.091   8.072  22.418
86003W        W86867  12.152   7.312  24.786
86004W        W86868  14.073  10.232  23.472
86005W        W86869  13.927   8.566  23.304
86006W        W86870  12.278   8.403  23.561
86007W        W86871  12.454   8.772  24.860
86008W        W86872  13.460   9.865  24.910
86009W        W86873  12.215   8.315  24.794
86010W        W86874  12.146  10.734  23.548
86011W        W86875  11.617  10.786  25.255
86012W        W86876  11.615  10.283  22.069
86013W        W86877  14.273  10.136  22.976
86014W        W86878  11.728   8.559  24.788
86015W        W86879  14.378   8.327  22.031
86016W        W86880  12.272   9.666  22.903
86017W        W86881  13.341   9.014  24.863
86018W        W86882  13.292   8.666  24.437
86019W        W86883  11.637   8.957  24.437
86020W        W86884  14.001  10.665  24.414
86021W        W86885  13.751   7.676  25.342
86022W        W86886  11.449   7.706  25.024
86023W        W86887  11.801   8.661  24.052
86024W        W86888  12.292   8.297  21.908
86025W        W86889  11.054  10.130  24.814
86026W        W86890  12.460   8.942  24.152
86027W        W86891  12.349   7.726  22.020
86028W        W86892  11.743   9.014  23.302
86029W        W86893  11.207  10.831  24.483
86030W        W86894  13.989   9.023  22.612
86031W        W86895  14.196   7.805  25.132
86032W        W86896  13.862   9.855  23.103
86033W        W86897  11.062   8.837  25.280
86034W        W86898  14.174   7.574  22.450
86035W        W86899  13.985   9.955  22.586
86036W        W86900  12.664   8.710  22.801
86037W        W86901  13.728   7.607  22.118
86038W        W86902  13.743   8.370  24.628
86039W        W86903  11.226   8.837  23.471
86040W        W86904  11.709   9.639  23.400
86041W        W86905  13.464   8.381  23.179
86042W        W86906  12.391   7.975  23.896
86043W        W86907  14.511   9.730  24.483
86044W        W86908  14.416   7.906  24.213
86045W        W86909  10.973  10.588  23.610
86046W        W86910  11.351   9.779  22.993
86047W        W86911  11.510   7.527  25.496
86048W        W86912  12.415  10.321  25.468
86049W        W86913  14.455   9.273  23.369
86050W        W86914  13.803   9.483  22.503
86051W        W86915  13.076  10.960  24.314
86052W        W86916  13.890   9.613  25.555
86053W        W86917  12.576   7.301  22.786
86054W        W86918  13.157   8.211  23.534
86055W        W86919  11.060   9.763  24.005
86056W        W86920  12.261   7.734  22.743
86057W        W86921  12.223   9.372  25.099
86058W        W86922  13.047   8.150  22.972
86059W        W86923  13.441   9.853  24.392
86060W        W86924  11.456  10.358  24.600
86061W        W86925  11.915  10.269  25.372
86062W        W86926  11.924   7.778  22.351
86063W        W86927  13.386   8.414  22.604
86064W        W86928  13.282  10.377  24.923
86065W        W86929  12.107   8.918  23.721
86066W        W86930  11.788  10.651  24.368
86067W        W86931  14.347  10.617  21.956
86068W        W86932  11.194   9.324  25.180
86069W        W86933  13.280   9.545  24.008
86070W        W86934  11.761   9.419  22.948
86071W        W86935  12.285  10.543  24.531
86072W        W86936  12.642   7.602  23.643
86073W        W86937  10.914   9.538  22.323
86074W        W86938  12.779   8.570  21.938
86075W        W86939  11.315   9.302  23.241
86076W        W86940  12.476   7.734  24.819
86077W        W86941  14.239   7.513  21.916
86078W        W86942  14.321   9.322  25.309
86079W        W86943  13.109  10.803  25.324
86080W        W86944  14.488   9.709  24.999
86081W        W86945  13.953  10.562  25.486
86082W        W86946  11.810  10.935  23.936
86083W        W86947  14.533   9.725  23.121
86084W        W86948  13.114   8.713  23.583
86085W        W86949  12.846   7.277  23.274
86086W        W86950  11.990  10.341  23.256
86087W        W86951  12.403   8.051  24.404
86088W        W86952  12.156   7.502  23.779
86089W        W86953  11.314  10.532  22.425
86090W        W86954  12.637   9.497  23.338
86091W        W86955  11.876  10.517  24.885
86092W        W86956  11.231   9.356  22.708
86093W        W86957  11.131   7.909  23.780
86094W        W86958  12.542   9.811  23.766
86095W        W86959  11.019   7.646  22.694
86096W        W86960  13.729   8.962  24.510
86097W        W86961  13.641   8.133  22.192
86098W        W86962  14.169   9.794  24.080
86099W        W86963  12.874  10.228  23.640
86100W        W86964  12.088  10.719  22.863
86101W        W86965  13.331   7.347  21.774
86102W        W86966  11.364  10.619  24.046
86103W        W86967  13.075   8.369  25.363
86104W        W86968  11.356   8.026  25.433
86105W        W86969  11.110   8.461  23.065
86106W        W86970  12.457   8.601  22.333
86107W        W86971  13.410   8.765  25.361
86108W        W86972  12.005   9.190  24.166
86109W        W86973  13.369   7.381  23.256
86110W        W86974  12.666  10.730  23.642
86111W        W86975  13.731  10.259  24.653
86112W        W86976  13.607  10.399  23.692
86113W        W86977  13.495   9.364  23.578
86114W        W86978  12.710   7.714  22.440
86115W        W86979  14.488   7.418  23.121
86116W        W86980  12.186   8.816  21.923
86117W        W86981  14.286   8.220  23.217
86118W        W86982  12.987   9.342  22.281
86119W        W86983  13.962   9.714  25.047
86120W        W86984  14.011  10.236  22.074
86121W        W86985  12.265   8.006  25.217
86122W        W86986  12.111   8.729  24.473
86123W        W86987  14.212  10.157  24.891
86124W        W86988  13.228   7.999  24.918
86125W        W86989  10.994   8.582  24.840
86126W        W86990  12.863   8.983  24.576
86127W        W86991  11.211   9.726  23.498
86128W        W86992  11.328   8.865  23.991
86129W        W86993  13.645   9.448  24.630
86130W        W86994  13.612  10.907  25.173
86131W        W86995  13.296   8.499  24.909
86132W        W86996  13.793  10.694  23.258
86133W        W86997  12.809  10.484  24.532
86134W        W86998  12.145  10.541  24.021
86135W        W86999  13.972   9.831  24.546
86136W        W87000  12.720   9.914  25.554
86137W        W87001  11.546   9.726  23.881
86138W        W87002  13.973   9.469  23.418
86139W        W87003  13.552  10.698  24.136
86140W        W87004  11.656  10.187  24.137
86141W        W87005  12.565   8.420  25.244
86142W        W87006  12.378  10.540  22.461
86143W        W87007  12.198   9.826  25.451
86144W        W87008  12.286  10.195  22.864
86145W        W87009  11.773   8.478  21.774
86146W        W87010  11.082  10.918  28.892
86147W        W87011  14.180   9.435  26.353
86148W        W87012  14.393  10.573  28.189
86149W        W87013  12.050  10.584  25.771
86150W        W87014  12.351   8.770  26.582
86151W        W87015  11.627   8.526  26.852
86152W        W87016  12.780   9.145  26.304
86153W        W87017  12.438  10.622  28.382
86154W        W87018  11.228   8.072  28.490
86155W        W87019  11.703   7.370  28.275
86156W        W87020  13.526   7.749  27.197
86157W        W87021  13.127   8.428  25.895
86158W        W87022  13.751   8.019  28.793
86159W        W87023  11.267   7.680  28.114
86160W        W87024  11.244  10.390  28.968
86161W        W87025  12.439   9.589  25.939
86162W        W87026  11.144   8.499  27.534
86163W        W87027  12.028   8.427  28.837
86164W        W87028  14.390   8.368  27.273
86165W        W87029  14.254   9.373  28.099
86166W        W87030  12.606   8.629  27.041
86167W        W87031  13.190  10.138  27.685
86168W        W87032  11.613   9.417  27.749
86169W        W87033  10.861   8.934  27.512
86170W        W87034  12.133   9.034  28.431
86171W        W87035  14.316   8.779  28.777
86172W        W87036  11.813  10.222  27.193
86173W        W87037  13.073   9.988  28.225
86174W        W87038  12.353   8.361  27.468
86175W        W87039  12.419   9.371  27.230
86176W        W87040  13.208  10.196   0.092
86177W        W87041  12.543   9.383  28.958
86178W        W87042  12.647   9.191  28.492
86179W        W87043  11.018   8.319  28.931
86180W        W87044  13.713  10.013  28.808
86181W        W87045  11.423   7.612  26.749
86182W        W87046  11.919   9.876  27.799
86183W        W87047  14.417   9.769  27.138
86184W        W87048  13.615   8.036  27.615
86185W        W87049  14.038   8.107  25.539
86186W        W87050  14.556   8.858  27.940
86187W        W87051  12.507  10.643  27.715
86188W        W87052  14.390   9.975  26.322
86189W        W87053  11.419  11.043  26.180
86190W        W87054  11.839  10.742  26.624
86191W        W87055  11.719   7.643  27.847
86192W        W87056  14.255   8.450  28.075
86193W        W87057  13.607   8.949  26.894
86194W        W87058  13.624   8.688  25.945
86195W        W87059  12.793   9.841  27.797
86196W        W87060  12.598   8.109  27.054
86197W        W87061  13.353  10.404  28.099
86198W        W87062  14.058   9.016  26.648
86199W        W87063  13.151   7.638  26.422
86200W        W87064  11.595  10.551  26.224
86201W        W87065  11.028   7.925  26.708
86202W        W87066  13.652   8.595  27.319
86203W        W87067  11.304  10.213  27.257
86204W        W87068  12.534  10.548  25.956
86205W        W87069  13.896   8.590  25.493
86206W        W87070  11.102  10.251  27.783
86207W        W87071  11.802   9.905  28.300
86208W        W87072  12.576   9.186  26.770
86209W        W87073  12.229   7.688  27.772
86210W        W87074  14.508   7.493  27.374
86211W        W87075  11.718   9.399  25.202
86212W        W87076  11.458   8.151  25.934
86213W        W87077  11.495  10.217  26.759
86214W        W87078  12.383   9.854  26.852
86215W        W87079  13.934  10.432  28.592
86216W        W87080  12.987   8.132  26.307
86217W        W87081  14.196  10.811  27.096
86218W        W87082  13.949   8.628  28.445
86219W        W87083  14.620  10.137  26.847
86220W        W87084  13.112   9.435  28.275
86221W        W87085  10.936   8.964  26.643
86222W        W87086  12.039   9.435  28.065
86223W        W87087  13.299   8.539  26.398
86224W        W87088  13.178   9.203  26.724
86225W        W87089  11.588   8.511  27.821
86226W        W87090  11.509   8.440  28.861
86227W        W87091  11.341   7.337  27.160
86228W        W87092  13.127   7.827  27.520
86229W        W87093  12.755   7.828  28.663
86230W        W87094  13.243   7.856  25.936
86231W        W87095  14.446  10.387  28.710
86232W        W87096  13.237   7.488  28.680
86233W        W87097  14.218   9.889  28.844
86234W        W87098  13.888   8.117  28.295
86235W        W87099  13.438   7.952  26.720
86236W        W87100  13.944   9.011   0.061
86237W        W87101  11.546  10.637  27.054
86238W        W87102  12.505   8.173  26.094
86239W        W87103  11.875   7.581  28.744
86240W        W87104  13.930   8.107  26.645
86241W        W87105  14.383   8.675  26.399
86242W        W87106  12.060  10.675  28.889
86243W        W87107  11.991   7.335  26.164
86244W        W87108  14.351   7.892  27.068
86245W        W87109  14.504  10.352  25.691
86246W        W87110  11.237   9.342  27.292
86247W        W87111  13.270   7.899  25.425
86248W        W87112  14.472  10.224  27.388
86249W        W87113  14.380   7.518  27.876
86250W        W87114  13.022   8.472  28.663
86251W        W87115  12.630   9.614  26.460
86252W        W87116  13.459   9.206   0.087
86253W        W87117  13.188   7.362  27.273
86254W        W87118  11.588   8.298  27.325
86255W        W87119  11.319   9.436  28.202
86256W        W87120  13.067  10.616  27.134
86257W        W87121  14.103   8.152  27.679
86258W        W87122  12.975  10.604  28.381
86259W        W87123  14.243   9.346  25.837
86260W        W87124  12.907   8.781  26.666
86261W        W87125  14.523   7.475  28.373
86262W        W87126  12.603   9.480  28.097
86263W        W87127  12.871   8.370  27.412
86264W        W87128  13.870   8.558  26.410
86265W        W87129  14.181   8.469  25.933
86266W        W87130  14.024  10.320  26.488
86267W        W87131  13.530   9.832  27.430
86268W        W87132  13.588   8.991  26.375
86269W        W87133  12.877   9.113  27.170
86270W        W87134  13.958   9.043  27.276
86271W        W87135  11.335   8.015  27.680
86272W        W87136  14.003   9.132  28.530
86273W        W87137  14.466  10.679  27.627
86274W        W87138  12.319  10.269  27.176
86275W        W87139  13.543  10.744  28.466
86276W        W87140  13.401   8.076  28.086
86277W        W87141  12.723  10.955  28.088
86278W        W87142  14.329   7.791  26.527
86279W        W87143  14.029   8.923  28.036
86280W        W87144  11.094   8.299  28.032
86281W        W87145  13.883   8.141  27.168
86282W        W87146  14.286   8.259  28.576
86283W        W87147  13.127  10.027  27.165
86284W        W87148  12.385  10.591  26.721
86285W        W87149  11.641   7.678  25.975
86286W        W87150  12.740   7.403  27.518
86287W        W87151  11.562  10.771  25.765
86288W        W87152  12.262   9.242  26.326
86289W        W87153  12.757   9.703  28.535
86290W        W87154  12.697   7.795  26.600
86291W        W87155  13.928   7.656  26.909
86292W        W87156  13.754  10.909  27.327
86293W        W87157  13.018  10.625  27.758
86294W        W87158  12.337   9.604  27.684
86295W        W87159  14.228  10.227  27.836
86296W        W87160  11.836   7.715  26.475
86297W        W87161  12.355  10.127  27.672
86298W        W87162  11.849   7.928  25.571
86299W        W87163  12.661   8.577  27.859
86300W        W87164  13.516   7.522  27.670
86301W        W87165  11.089   9.309  27.778
86302W        W87166  12.508   9.044  25.870
86303W        W87167  11.995   7.448  25.654
86304W        W87168  12.547   8.303  26.588
86305W        W87169  13.611   7.681  28.375
86306W        W87170  12.265   9.547  28.511
86307W        W87171  13.037   9.335  28.825
86308W        W87172  13.516   9.312  28.583
86309W        W87173  12.913   7.557   0.067
86310W        W87174  12.150   7.899  27.275
86311W        W87175  11.746   8.015  26.917
86312W        W87176  11.281  10.676  26.614
86313W        W87177  12.820  10.197  28.689
86314W        W87178  11.756   9.456  26.411
86315W        W87179  13.383   9.148  27.311
86316W        W87180  13.615   8.910  27.716
86317W        W87181  12.735   9.284  27.645
86318W        W87182  13.333   9.625  25.571
86319W        W87183  13.030   7.800  27.008
86320W        W87184  14.579   8.223  26.265
86321W        W87185  11.178  10.588  28.499
86322W        W87186  11.406   9.867  27.938
86323W        W87187  10.942  10.980  26.374
86324W        W87188  12.924   8.124  27.877
86325W        W87189  12.252  10.103  25.925
86326W        W87190  14.349  10.583  26.167
86327W        W87191  13.163   8.909  26.081
86328W        W87192  12.014   8.321  26.510
86329W        W87193  12.815   8.070  25.691
86330W        W87194  13.279   9.774  28.646
86331W        W87195  13.770   7.672  26.405
86332W        W87196  11.105   7.498  25.843
86333W        W87197  12.332   9.912  28.146
86334W        W87198  12.093   9.791  27.276
86335W        W87199  11.901   9.730  25.904
86336W        W87200  11.190  10.237  26.330
86337W        W87201  11.781   8.878  28.781
86338W        W87202  12.425   7.493  28.885
86339W        W87203  13.054   7.701  28.223
86340W        W87204  12.251   7.408  26.662
86341W        W87205  13.463   7.392  26.096
86342W        W87206  11.273   7.493  27.637
86343W        W87207  11.143   8.328  27.029
86344W        W87208  14.008   7.689  27.428
86345W        W87209  11.504   8.121  26.477
86346W        W87210  13.910   7.744  27.946
86347W        W87211  14.316   8.877  25.651
86348W        W87212  11.650   7.772  27.363
86349W        W87213  12.723   8.207  28.330
86350W        W87214  10.962   8.011  25.769
86351W        W87215  11.750   9.411  28.499
86352W        W87216  13.024   8.850  27.587
86353W        W87217  12.912  10.909  25.875
86354W        W87218  11.071   9.163  25.675
86355W        W87219  11.920   9.817  28.788
86356W        W87220  11.458   8.992  28.410
86357W        W87221  12.376   9.031  27.972
86358W        W87222  14.015   7.332  28.262
86359W        W87223  14.559   9.115  28.428
86360W        W87224  14.598   9.006  26.049
86361W        W87225  13.275   9.387  26.239
86362W        W87226  13.805  11.025  25.693
86363W        W87227  13.141   8.790   0.139
86364W        W87228  11.529   9.660   0.089
86365W        W87229  14.581   7.815  28.832
86366W        W87230  14.100   8.662  27.597
86367W        W87231  12.557  10.586  28.911
86368W        W87232  12.448   7.363  25.878
86369W        W87233  14.374   9.839  25.820
86370W        W87234  11.743   8.059  28.599
86371W        W87235  12.182  10.215  28.562
86372W        W87236  14.369   7.953  28.157
86373W        W87237  13.856  10.706  26.115
86374W        W87238  13.740   9.405  27.602
86375W        W87239  12.022   7.829  28.222
86376W        W87240  12.719   8.841  28.838
86377W        W87241  11.738  10.065  26.307
86378W        W87242  13.725   9.430  26.619
86379W        W87243  11.590   8.090  28.114
86380W        W87244  12.743  10.254  26.896
86381W        W87245  14.506   8.784  26.932
86382W        W87246  12.762   7.340  28.514
86383W        W87247  13.698  10.171  27.766
86384W        W87248  13.996  10.476  27.452
86385W        W87249  12.911  10.407  25.609
86386W        W87250  11.162   9.908  28.776
86387W        W87251  11.919   8.119  27.698
86388W        W87252  11.886   7.512  27.002
86389W        W87253  13.307   8.440  27.687
86390W        W87254  12.121   9.329  25.604
86391W        W87255  14.252   9.466  27.527
86392W        W87256  11.692  10.281  28.723
86393W        W87257  14.057  10.914  26.578
86394W        W87258  12.223   7.914  26.759
86395W        W87259  11.774   9.364  27.204
86396W        W87260  12.152  10.861  28.002
86397W        W87261  14.203  10.846  28.758
86398W        W87262  13.258   9.269  27.806
86399W        W87263  11.209   8.516  25.656
86400W        W87264  14.431  10.592  26.675
86401W        W87265  14.102   8.003  26.120
86402W        W87266  12.225   7.386  28.421
86403W        W87267  14.154  10.273  26.998
86404W        W87268  14.022   8.606  26.959
86405W        W87269  12.132   8.390  27.005
86406W        W87270  12.576   8.698  28.358
86407W        W87271  13.669  10.041  28.285
86408W        W87272  12.188   8.332  28.358
86409W        W87273  12.055  10.704  27.094
86410W        W87274  11.562  10.777  28.822
86411W        W87275  11.632  10.247  25.808
86412W        W87276  14.096   9.822  26.721
86413W        W87277  11.706   8.541  28.360
86414W        W87278  14.707   8.546  25.833
86415W        W87279  12.150   9.776  26.384
86416W        W87280  13.114   8.948  28.510
86417W        W87281  13.102   8.546  28.152
86418W        W87282  11.783   8.975  28.004
86419W        W87283  14.029  10.895  27.774
86420W        W87284  13.744   7.474  28.843
86421W        W87285  11.384   7.582  28.611
86422W        W87286  11.931   8.676  27.432
86423W        W87287  12.191   8.311  25.628
86424W        W87288  11.054  10.111  28.284
86425W        W87289  12.478   8.873  27.476
86426W        W87290  12.345   7.840  25.740
86427W        W87291  11.863   8.982  26.643
86428W        W87292  11.164  10.739  28.011
86429W        W87293  14.058   8.954  26.116
86430W        W87294  14.126   7.740  28.581
86431W        W87295  13.699  10.027  26.989
86432W        W87296  11.229   8.887  28.895
86433W        W87297  14.152   7.471  26.108
86434W        W87298  13.900   9.844  26.222
86435W        W87299  12.751   8.618  26.218
86436W        W87300  13.743   7.758  25.855
86437W        W87301  13.746   8.467  27.953
86438W        W87302  11.231   8.856  27.092
86439W        W87303  11.777   9.787  26.846
86440W        W87304  13.557   8.438  26.825
86441W        W87305  12.617   7.906  27.516
86442W        W87306  14.499   9.812  27.979
86443W        W87307  14.567   7.950  27.658
86444W        W87308  11.028  10.614  27.085
86445W        W87309  11.354   9.772  26.508
86446W        W87310  11.528   7.454   0.117
86447W        W87311  12.627  10.185   0.240
86448W        W87312  14.361   9.275  27.012
86449W        W87313  13.760   9.370  26.036
86450W        W87314  13.261  10.935  28.077
86451W        W87315  13.865   9.505  28.937
86452W        W87316  12.644   7.307  26.356
86453W        W87317  13.320   8.206  27.215
86454W        W87318  11.090   9.798  27.506
86455W        W87319  12.304   7.729  26.260
86456W        W87320  12.041   9.306  28.910
86457W        W87321  13.025   8.291  26.802
86458W        W87322  13.428   9.740  27.932
86459W        W87323  11.517  10.336  28.186
86460W        W87324  12.094  10.209   0.099
86461W        W87325  11.976   8.077  26.055
86462W        W87326  13.582   8.135  26.233
86463W        W87327  13.327  10.288  28.596
86464W        W87328  12.177   8.944  27.057
86465W        W87329  11.665  10.754  27.921
86466W        W87330  14.338  10.838  25.708
86467W        W87331  11.274   9.380  28.724
86468W        W87332  13.080   9.583  27.427
86469W        W87333  12.117   9.412  26.802
86470W        W87334  12.038  10.332  28.047
86471W        W87335  12.542   7.593  27.061
86472W        W87336  10.911   9.698  26.231
86473W        W87337  12.613   8.546  25.737
86474W        W87338  11.446   9.302  26.805
86475W        W87339  12.538   7.727  28.201
86476W        W87340  14.218   7.652  25.643
86477W        W87341  14.369   9.327  28.853
86478W        W87342  13.066  10.650  28.900
86479W        W87343  14.502   9.657  28.472
86480W        W87344  14.085  10.343   0.073
86481W        W87345  11.725  10.917  27.446
86482W        W87346  14.570   9.627  26.666
86483W        W87347  13.179   8.696  27.106
86484W        W87348  12.921   7.329  26.802
86485W        W87349  12.028  10.224  26.721
86486W        W87350  12.394   8.141  27.931
86487W        W87351  12.239   7.355  27.398
86488W        W87352  11.119  10.635  25.998
86489W        W87353  12.863   9.589  26.939
86490W        W87354  11.887  10.660  28.410
86491W        W87355  11.233   9.282  26.315
86492W        W87356  11.164   7.828  27.210
86493W        W87357  12.622   9.843  27.311
86494W        W87358  11.172   7.810  26.234
86495W        W87359  13.534   8.872  28.230
86496W        W87360  13.563   8.227  25.716
86497W        W87361  14.030   9.950  27.426
86498W        W87362  12.775  10.310  27.432
86499W        W87363  12.116  10.475  26.274
86500W        W87364  13.367   7.425  25.597
86501W        W87365  11.291  10.664  27.520
86502W        W87366  13.405   8.357  28.990
86503W        W87367  11.405   7.944  28.987
86504W        W87368  11.062   8.420  26.513
86505W        W87369  12.232   8.606  26.101
86506W        W87370  13.547   8.821  28.765
86507W        W87371  12.057   9.168  27.587
86508W        W87372  13.463   7.425  26.793
86509W        W87373  12.564  10.742  27.197
86510W        W87374  13.876  10.498  28.098
86511W        W87375  13.497  10.375  27.321
86512W        W87376  13.395   9.577  27.006
86513W        W87377  12.772   7.719  26.068
86514W        W87378  14.566   7.459  26.852
86515W        W87379  12.068   8.815  25.653
86516W        W87380  14.388   8.307  26.753
86517W        W87381  12.949   9.335  25.827
86518W        W87382  13.956   9.642  28.452
86519W        W87383  14.049  10.246  25.914
86520W        W87384  12.248   7.929  28.669
86521W        W87385  12.120   8.583  27.906
86522W        W87386  14.195  10.079  28.330
86523W        W87387  13.243   7.998  28.609
86524W        W87388  11.167   8.578  28.473
86525W        W87389  12.883   9.013  28.060
86526W        W87390  11.288   9.763  27.011
86527W        W87391  11.480   8.951  27.551
86528W        W87392  13.712   9.337  28.107
86529W        W87393  13.589  10.549  28.958
86530W        W87394  13.499   8.408  28.469
86531W        W87395  13.760  10.594  26.909
86532W        W87396  12.701  10.299  28.043
86533W        W87397  12.036  10.527  27.571
86534W        W87398  13.970   9.768  27.926
86535W        W87399  12.906   9.792   0.017
86536W        W87400  11.592   9.808  27.414
86537W        W87401  13.908   9.543  27.120
86538W        W87402  13.560  10.674  27.732
86539W        W87403  11.609  10.277  27.678
86540W        W87404  12.529   8.351  28.786
86541W        W87405  12.809  10.582  26.429
86542W        W87406  12.419   9.876  28.887
86543W        W87407  12.490  10.159  26.431
86544W        W87408  11.703   8.426  25.544
86545W        W87409  11.053  14.632   3.398
86546W        W87410  11.433  13.477   2.951
86547W        W87411  14.176  13.171   0.778
86548W        W87412  14.457  14.249   2.582
86549W        W87413  12.370  14.147   0.240
86550W        W87414  12.149  12.530   1.186
86551W        W87415  11.815  12.280   1.536
86552W        W87416  12.764  13.031   0.769
86553W        W87417  12.401  14.226   3.016
86554W        W87418  10.991  11.664   2.922
86555W        W87419  11.701  11.070   2.757
86556W        W87420  13.524  11.382   1.640
86557W        W87421  13.207  12.193   0.419
86558W        W87422  13.642  11.845   3.244
86559W        W87423  11.092  11.398   2.508
86560W        W87424  11.190  14.137   3.550
86561W        W87425  12.603  13.302   0.364
86562W        W87426  11.056  12.145   1.969
86563W        W87427  12.100  12.222   3.119
86564W        W87428  14.385  11.863   1.797
86565W        W87429  14.305  13.041   2.508
86566W        W87430  12.649  12.494   1.566
86567W        W87431  13.198  13.750   1.985
86568W        W87432  11.514  13.098   2.142
86569W        W87433  10.869  12.610   1.883
86570W        W87434  12.067  12.648   2.819
86571W        W87435  14.243  12.418   3.226
86572W        W87436  11.870  13.857   1.666
86573W        W87437  13.031  13.588   2.703
86574W        W87438  12.464  12.163   1.914
86575W        W87439  12.471  12.987   1.693
86576W        W87440  13.363  13.814   3.380
86577W        W87441  12.641  12.989   3.447
86578W        W87442  12.577  12.839   2.926
86579W        W87443  10.921  12.006   3.315
86580W        W87444  13.789  13.826   3.066
86581W        W87445  11.630  11.226   1.067
86582W        W87446  11.869  13.594   2.106
86583W        W87447  14.300  13.353   1.468
86584W        W87448  13.977  11.507   1.839
86585W        W87449  14.294  11.794   0.130
86586W        W87450  14.477  12.548   2.421
86587W        W87451  12.658  14.189   2.200
86588W        W87452  14.181  13.654   0.568
86589W        W87453  11.559  14.602   0.612
86590W        W87454  11.849  14.472   1.065
86591W        W87455  11.595  11.323   2.333
86592W        W87456  14.102  12.228   2.577
86593W        W87457  13.606  12.592   1.271
86594W        W87458  13.678  12.348   0.335
86595W        W87459  12.775  13.648   2.242
86596W        W87460  12.794  11.998   1.557
86597W        W87461  13.122  14.027   2.419
86598W        W87462  14.147  12.720   1.056
86599W        W87463  13.001  11.407   1.056
86600W        W87464  11.607  14.100   0.751
86601W        W87465  11.180  11.438   1.178
86602W        W87466  13.887  12.017   1.720
86603W        W87467  11.367  13.865   1.737
86604W        W87468  12.647  14.074   0.715
86605W        W87469  13.945  12.114  28.967
86606W        W87470  11.149  13.939   2.217
86607W        W87471  11.859  13.727   2.733
86608W        W87472  12.034  12.987   1.420
86609W        W87473  12.084  11.430   2.056
86610W        W87474  14.577  11.060   1.822
86611W        W87475  11.749  12.700   0.271
86612W        W87476  11.405  11.901   0.436
86613W        W87477  11.408  13.895   1.201
86614W        W87478  12.431  13.348   1.290
86615W        W87479  14.016  14.236   2.847
86616W        W87480  12.843  11.962   0.698
86617W        W87481  14.204  14.347   1.483
86618W        W87482  13.788  12.292   2.982
86619W        W87483  14.407  13.614   1.031
86620W        W87484  13.160  13.091   2.678
86621W        W87485  11.125  12.645   1.128
86622W        W87486  11.902  13.241   2.461
86623W        W87487  13.260  12.318   0.924
86624W        W87488  13.084  12.765   1.096
86625W        W87489  11.380  12.157   2.402
86626W        W87490  11.515  12.164   2.937
86627W        W87491  11.389  11.084   1.532
86628W        W87492  13.082  11.413   2.089
86629W        W87493  12.798  11.544   3.158
86630W        W87494  13.384  11.378   0.671
86631W        W87495  14.470  14.137   3.115
86632W        W87496  13.268  11.083   2.997
86633W        W87497  14.208  13.593   3.248
86634W        W87498  13.784  11.614   2.788
86635W        W87499  13.471  11.561   1.169
86636W        W87500  13.822  12.701   3.339
86637W        W87501  11.592  14.286   1.501
86638W        W87502  12.345  12.151   0.748
86639W        W87503  11.877  11.294   3.171
86640W        W87504  14.052  11.909   0.873
86641W        W87505  14.423  12.305   0.911
86642W        W87506  12.097  14.417   3.402
86643W        W87507  12.089  11.033   0.823
86644W        W87508  14.361  11.418   1.525
86645W        W87509  14.533  13.686   0.179
86646W        W87510  11.213  12.988   1.718
86647W        W87511  13.332  11.429   0.142
86648W        W87512  14.490  13.846   1.507
86649W        W87513  14.415  11.010   2.327
86650W        W87514  12.908  12.402   3.039
86651W        W87515  12.756  13.545   0.807
86652W        W87516  13.388  12.893   3.537
86653W        W87517  13.119  11.026   1.727
86654W        W87518  11.491  11.970   1.777
86655W        W87519  11.278  13.120   2.597
86656W        W87520  13.138  14.208   1.434
86657W        W87521  14.045  11.813   2.241
86658W        W87522  12.993  14.337   2.822
86659W        W87523  14.271  13.199   0.275
86660W        W87524  12.568  12.848   1.205
86661W        W87525  14.423  11.064   2.849
86662W        W87526  12.680  13.232   2.563
86663W        W87527  12.983  11.924   2.032
86664W        W87528  13.783  12.363   0.836
86665W        W87529  14.163  12.219   0.452
86666W        W87530  13.929  13.944   0.920
86667W        W87531  13.690  13.477   1.585
86668W        W87532  13.407  12.711   0.635
86669W        W87533  12.979  12.884   1.608
86670W        W87534  13.975  12.558   1.692
86671W        W87535  11.263  11.702   2.150
86672W        W87536  13.993  12.750   2.836
86673W        W87537  14.464  14.175   1.909
86674W        W87538  12.345  13.853   1.491
86675W        W87539  13.510  14.389   2.631
86676W        W87540  13.192  11.749   2.474
86677W        W87541  12.569  14.513   2.603
86678W        W87542  14.343  11.355   1.020
86679W        W87543  14.030  12.753   2.180
86680W        W87544  10.863  11.908   2.399
86681W        W87545  13.939  11.673   1.335
86682W        W87546  14.169  11.925   2.993
86683W        W87547  13.155  13.636   1.488
86684W        W87548  12.418  14.238   1.156
86685W        W87549  11.774  11.388   0.587
86686W        W87550  12.636  11.146   2.107
86687W        W87551  11.940  14.452   0.301
86688W        W87552  11.879  12.416   0.690
86689W        W87553  12.716  13.329   3.061
86690W        W87554  12.574  11.795   1.108
86691W        W87555  13.934  11.152   1.359
86692W        W87556  13.540  14.466   1.697
86693W        W87557  13.103  14.258   1.941
86694W        W87558  12.434  13.282   2.116
86695W        W87559  14.201  13.926   2.283
86696W        W87560  12.040  11.549   1.001
86697W        W87561  12.337  13.812   2.008
86698W        W87562  11.898  11.592   0.135
86699W        W87563  12.695  12.183   2.365
86700W        W87564  13.526  11.126   2.085
86701W        W87565  10.985  12.984   2.202
86702W        W87566  12.616  12.792   0.266
86703W        W87567  11.978  11.010   0.298
86704W        W87568  12.732  12.320   1.086
86705W        W87569  13.448  11.298   2.553
86706W        W87570  12.241  13.209   2.838
86707W        W87571  13.048  12.891   3.139
86708W        W87572  13.551  12.983   3.008
86709W        W87573  12.811  11.218   3.568
86710W        W87574  12.015  11.893   1.812
86711W        W87575  11.726  11.689   1.392
86712W        W87576  11.325  14.426   1.073
86713W        W87577  12.878  13.841   3.139
86714W        W87578  11.666  13.184   0.495
86715W        W87579  13.477  12.764   1.747
86716W        W87580  13.573  12.311   2.017
86717W        W87581  12.906  13.075   2.123
86718W        W87582  13.424  13.288   0.079
86719W        W87583  13.041  11.542   1.566
86720W        W87584  14.618  11.848   0.801
86721W        W87585  11.304  14.456   2.877
86722W        W87586  11.453  13.568   2.418
86723W        W87587  11.123  14.313   0.613
86724W        W87588  12.678  11.641   2.392
86725W        W87589  12.350  13.722   0.504
86726W        W87590  14.202  14.181   0.579
86727W        W87591  12.898  12.552   0.636
86728W        W87592  11.912  12.064   1.077
86729W        W87593  12.967  11.795   0.195
86730W        W87594  13.214  13.375   3.167
86731W        W87595  13.862  11.419   0.865
86732W        W87596  10.945  11.157   0.326
86733W        W87597  12.296  13.601   2.479
86734W        W87598  12.168  13.420   1.711
86735W        W87599  12.046  13.430   0.235
86736W        W87600  11.139  13.822   0.754
86737W        W87601  11.679  12.595   3.172
86738W        W87602  12.341  11.132   3.343
86739W        W87603  12.938  11.313   2.675
86740W        W87604  12.323  10.915   1.298
86741W        W87605  13.050  10.991   0.715
86742W        W87606  11.216  11.176   2.027
86743W        W87607  11.398  12.076   1.274
86744W        W87608  14.067  11.007   1.916
86745W        W87609  11.531  11.727   0.911
86746W        W87610  13.938  11.302   2.330
86747W        W87611  14.450  12.622   0.216
86748W        W87612  11.614  11.476   1.839
86749W        W87613  12.844  11.929   2.801
86750W        W87614  10.955  11.666   0.285
86751W        W87615  11.716  13.021   2.876
86752W        W87616  13.048  12.447   1.932
86753W        W87617  12.916  14.438   0.410
86754W        W87618  11.256  12.918   0.161
86755W        W87619  11.913  13.427   3.151
86756W        W87620  11.358  12.606   2.692
86757W        W87621  12.318  12.891   2.438
86758W        W87622  13.872  11.086   2.809
86759W        W87623  14.488  12.795   2.933
86760W        W87624  14.520  12.778   0.694
86761W        W87625  13.269  13.187   0.829
86762W        W87626  13.971  14.447   0.211
86763W        W87627  12.954  12.586   3.542
86764W        W87628  11.553  13.653   3.447
86765W        W87629  14.602  11.491   3.327
86766W        W87630  14.190  12.273   2.065
86767W        W87631  12.626  14.373   3.458
86768W        W87632  12.469  11.118   0.469
86769W        W87633  13.841  13.548   0.210
86770W        W87634  11.861  11.785   3.015
86771W        W87635  12.359  13.692   2.974
86772W        W87636  14.275  11.535   2.624
86773W        W87637  13.741  14.470   0.673
86774W        W87638  13.758  13.156   1.990
86775W        W87639  11.996  11.504   2.594
86776W        W87640  12.481  12.519   3.318
86777W        W87641  11.888  13.631   0.745
86778W        W87642  13.724  12.977   0.952
86779W        W87643  11.470  11.706   2.680
86780W        W87644  12.793  13.880   1.207
86781W        W87645  14.453  12.327   1.563
86782W        W87646  12.764  11.021   3.076
86783W        W87647  13.697  13.686   2.060
86784W        W87648  13.954  14.127   1.873
86785W        W87649  13.157  13.540   0.473
86786W        W87650  11.058  13.721   3.243
86787W        W87651  11.745  11.814   2.241
86788W        W87652  11.909  11.202   1.498
86789W        W87653  13.553  11.656   2.106
86790W        W87654  12.155  12.970   0.409
86791W        W87655  14.295  13.161   1.969
86792W        W87656  11.461  14.019   3.100
86793W        W87657  14.077  14.558   1.038
86794W        W87658  12.246  11.593   1.467
86795W        W87659  11.684  12.759   1.733
86796W        W87660  12.190  14.811   2.451
86797W        W87661  14.196  14.605   3.191
86798W        W87662  13.316  12.790   2.250
86799W        W87663  11.330  12.411   0.297
86800W        W87664  14.397  14.141   1.060
86801W        W87665  14.270  11.539   0.555
86802W        W87666  12.172  10.906   2.895
86803W        W87667  13.989  13.869   1.419
86804W        W87668  14.041  12.263   1.272
86805W        W87669  12.305  12.111   1.425
86806W        W87670  12.474  12.351   2.785
86807W        W87671  13.533  13.474   2.776
86808W        W87672  12.333  11.859   2.793
86809W        W87673  12.096  14.334   1.543
86810W        W87674  11.595  14.573   3.288
86811W        W87675  11.887  13.937   0.326
86812W        W87676  13.913  13.440   1.123
86813W        W87677  11.911  12.141   2.617
86814W        W87678  14.665  12.165   0.379
86815W        W87679  12.290  13.275   0.797
86816W        W87680  13.293  12.611   2.765
86817W        W87681  13.201  12.271   2.396
86818W        W87682  11.786  12.723   2.391
86819W        W87683  13.965  14.392   2.342
86820W        W87684  13.676  11.306   3.261
86821W        W87685  11.307  11.272   3.004
86822W        W87686  11.776  12.311   2.057
86823W        W87687  12.265  11.952   0.225
86824W        W87688  11.081  13.803   2.732
86825W        W87689  12.596  12.656   2.063
86826W        W87690  12.535  11.522   0.159
86827W        W87691  11.629  12.527   1.138
86828W        W87692  11.323  14.505   2.363
86829W        W87693  14.023  12.716   0.529
86830W        W87694  14.149  11.419   3.105
86831W        W87695  13.514  13.781   1.165
86832W        W87696  11.161  12.472   3.177
86833W        W87697  14.244  11.033   0.570
86834W        W87698  13.641  13.567   0.697
86835W        W87699  12.391  12.667   0.748
86836W        W87700  13.799  11.296   0.357
86837W        W87701  13.639  12.008   2.489
86838W        W87702  11.305  12.458   1.607
86839W        W87703  11.905  13.469   1.249
86840W        W87704  13.583  12.064   1.242
86841W        W87705  12.550  11.650   1.891
86842W        W87706  14.526  13.519   2.402
86843W        W87707  14.442  11.476   2.121
86844W        W87708  11.061  14.190   1.453
86845W        W87709  11.450  13.426   0.952
86846W        W87710  11.440  11.281   3.513
86847W        W87711  12.452  13.897   3.428
86848W        W87712  14.406  12.845   1.477
86849W        W87713  13.733  13.125   0.466
86850W        W87714  13.054  14.557   2.353
86851W        W87715  13.724  13.370   3.285
86852W        W87716  12.586  10.800   0.839
86853W        W87717  13.363  11.928   1.683
86854W        W87718  11.154  13.447   1.978
86855W        W87719  12.509  11.290   0.998
86856W        W87720  12.133  12.926   3.254
86857W        W87721  13.091  11.905   1.160
86858W        W87722  13.347  13.376   2.304
86859W        W87723  11.502  14.072   2.586
86860W        W87724  11.979  13.930   3.212
86861W        W87725  12.385  11.642   0.632
86862W        W87726  13.490  11.888   0.760
86863W        W87727  13.335  13.966   2.890
86864W        W87728  12.169  12.564   1.765
86865W        W87729  11.824  14.460   2.424
86866W        W87730  14.490  14.228   0.170
86867W        W87731  11.241  12.967   3.081
86868W        W87732  13.276  13.255   1.814
86869W        W87733  11.919  12.917   0.899
86870W        W87734  12.189  14.109   2.547
86871W        W87735  12.618  11.259   1.558
86872W        W87736  11.141  13.155   0.618
86873W        W87737  12.695  12.237   0.275
86874W        W87738  11.511  13.013   1.273
86875W        W87739  12.436  11.347   2.824
86876W        W87740  14.238  11.246   0.092
86877W        W87741  14.162  13.069   3.267
86878W        W87742  13.122  14.281   3.313
86879W        W87743  14.522  13.323   2.905
86880W        W87744  14.034  14.142   3.377
86881W        W87745  11.705  14.593   1.934
86882W        W87746  14.597  13.118   1.080
86883W        W87747  13.157  12.366   1.434
86884W        W87748  12.881  10.944   1.242
86885W        W87749  11.917  13.987   1.173
86886W        W87750  12.245  11.886   2.286
86887W        W87751  12.227  10.977   1.828
86888W        W87752  11.458  14.258   0.243
86889W        W87753  12.923  13.251   1.228
86890W        W87754  11.855  14.314   2.913
86891W        W87755  11.462  12.751   0.704
86892W        W87756  11.119  11.556   1.672
86893W        W87757  12.757  13.411   1.729
86894W        W87758  11.272  11.322   0.677
86895W        W87759  13.693  12.515   2.481
86896W        W87760  13.840  11.814   0.396
86897W        W87761  14.165  13.646   1.862
86898W        W87762  12.780  13.925   1.741
86899W        W87763  12.135  14.188   0.719
86900W        W87764  13.395  10.935   0.264
86901W        W87765  11.255  14.354   1.888
86902W        W87766  13.091  12.066   3.414
86903W        W87767  11.398  11.736   3.223
86904W        W87768  11.301  12.254   0.803
86905W        W87769  11.911  11.888   0.593
86906W        W87770  13.380  12.471   3.242
86907W        W87771  12.025  13.008   2.007
86908W        W87772  13.406  11.044   1.203
86909W        W87773  12.583  14.412   1.729
86910W        W87774  13.747  13.896   2.547
86911W        W87775  13.526  13.962   1.654
86912W        W87776  13.405  13.105   1.339
86913W        W87777  12.867  11.447   0.559
86914W        W87778  14.639  11.037   1.298
86915W        W87779  12.219  12.457   0.297
86916W        W87780  14.394  11.895   1.272
86917W        W87781  13.075  13.034   0.358
86918W        W87782  14.001  13.297   2.850
86919W        W87783  13.718  14.015   0.418
86920W        W87784  12.283  11.625   3.252
86921W        W87785  12.218  12.409   2.310
86922W        W87786  14.224  13.764   2.766
86923W        W87787  13.283  11.594   2.956
86924W        W87788  11.027  12.160   2.798
86925W        W87789  12.845  12.682   2.513
86926W        W87790  11.271  13.452   1.453
86927W        W87791  11.343  12.603   2.115
86928W        W87792  13.700  13.040   2.506
86929W        W87793  13.617  14.358   3.150
86930W        W87794  13.318  12.100   2.889
86931W        W87795  13.685  14.283   1.242
86932W        W87796  12.670  13.956   2.662
86933W        W87797  12.155  14.294   2.058
86934W        W87798  14.014  13.442   2.361
86935W        W87799  12.847  13.478   3.546
86936W        W87800  11.679  13.292   1.701
86937W        W87801  13.901  13.012   1.459
86938W        W87802  13.541  14.161   2.157
86939W        W87803  11.664  14.089   2.095
86940W        W87804  12.593  12.028   3.238
86941W        W87805  13.054  14.301   0.930
86942W        W87806  12.339  13.400   3.430
86943W        W87807  12.326  13.755   0.998
86944W        W87808  11.781  12.176   0.176
86945W        W87809  10.945  14.681   7.071
86946W        W87810  11.401  13.584   6.621
86947W        W87811  13.941  12.927   4.249
86948W        W87812  14.259  14.251   6.329
86949W        W87813  11.859  14.374   4.011
86950W        W87814  12.197  12.429   4.746
86951W        W87815  11.722  12.175   5.170
86952W        W87816  12.731  12.982   4.331
86953W        W87817  12.468  14.226   6.693
86954W        W87818  10.942  11.674   6.661
86955W        W87819  11.629  10.908   6.510
86956W        W87820  13.577  11.375   5.345
86957W        W87821  13.057  12.074   3.992
86958W        W87822  13.707  11.832   6.951
86959W        W87823  11.066  11.338   6.261
86960W        W87824  11.167  14.246   7.225
86961W        W87825  12.497  13.715   3.912
86962W        W87826  11.033  12.067   5.689
86963W        W87827  12.176  12.205   6.744
86964W        W87828  14.430  11.915   5.482
86965W        W87829  14.277  12.905   6.105
86966W        W87830  12.588  12.365   5.133
86967W        W87831  13.198  13.799   5.682
86968W        W87832  11.619  12.973   5.918
86969W        W87833  10.890  12.547   5.544
86970W        W87834  12.163  12.652   6.499
86971W        W87835  14.325  12.434   6.858
86972W        W87836  11.842  13.738   5.366
86973W        W87837  13.066  13.612   6.299
86974W        W87838  12.392  12.059   5.520
86975W        W87839  12.538  12.936   5.333
86976W        W87840  13.291  13.908   7.091
86977W        W87841  12.742  13.031   7.120
86978W        W87842  12.607  12.904   6.575
86979W        W87843  10.859  11.981   7.084
86980W        W87844  13.735  13.620   6.860
86981W        W87845  11.410  11.183   4.784
86982W        W87846  11.912  13.401   5.910
86983W        W87847  14.423  13.453   5.225
86984W        W87848  13.980  11.631   5.549
86985W        W87849  14.120  11.775   3.490
86986W        W87850  14.655  12.521   6.077
86987W        W87851  12.531  14.107   5.792
86988W        W87852  14.319  13.753   4.105
86989W        W87853  11.440  14.536   4.327
86990W        W87854  11.816  14.508   4.773
86991W        W87855  11.594  11.314   6.206
86992W        W87856  14.238  12.297   6.302
86993W        W87857  13.430  12.581   4.936
86994W        W87858  13.370  12.379   3.735
86995W        W87859  12.751  13.612   5.850
86996W        W87860  12.681  11.758   5.152
86997W        W87861  13.109  14.093   6.145
86998W        W87862  13.848  12.849   4.884
86999W        W87863  13.120  11.350   4.482
87000W        W87864  11.623  14.091   4.523
87001W        W87865  11.091  11.572   4.859
87002W        W87866  13.504  12.249   5.294
87003W        W87867  11.343  13.827   5.486
87004W        W87868  12.300  14.182   3.826
87005W        W87869  13.836  12.231   3.525
87006W        W87870  11.168  13.897   5.987
87007W        W87871  11.848  13.646   6.342
87008W        W87872  12.122  12.963   5.038
87009W        W87873  12.018  11.311   5.890
87010W        W87874  14.532  11.054   5.499
87011W        W87875  11.631  13.075   3.396
87012W        W87876  11.328  11.749   3.731
87013W        W87877  11.474  13.837   4.980
87014W        W87878  12.158  13.520   5.020
87015W        W87879  13.831  14.133   6.637
87016W        W87880  12.830  11.759   4.333
87017W        W87881  14.173  14.435   5.334
87018W        W87882  13.866  12.295   6.655
87019W        W87883  14.623  13.875   4.990
87020W        W87884  13.262  13.141   6.356
87021W        W87885  10.891  12.684   4.643
87022W        W87886  12.114  13.018   6.149
87023W        W87887  13.064  12.213   4.500
87024W        W87888  13.020  12.704   4.664
87025W        W87889  11.415  12.148   6.074
87026W        W87890  11.622  12.316   6.564
87027W        W87891  11.331  11.051   5.293
87028W        W87892  12.962  11.537   5.541
87029W        W87893  12.714  11.538   6.650
87030W        W87894  13.168  11.573   3.967
87031W        W87895  14.270  14.063   6.886
87032W        W87896  13.185  11.058   6.614
87033W        W87897  14.235  13.537   6.970
87034W        W87898  13.804  11.645   6.492
87035W        W87899  13.509  11.521   4.808
87036W        W87900  13.887  12.693   7.008
87037W        W87901  11.634  14.232   5.273
87038W        W87902  12.411  11.845   4.062
87039W        W87903  11.823  11.323   6.752
87040W        W87904  13.928  11.904   4.539
87041W        W87905  13.878  12.450   4.492
87042W        W87906  12.044  14.515   6.889
87043W        W87907  11.875  11.039   4.187
87044W        W87908  14.343  11.455   5.256
87045W        W87909  14.427  13.886   3.613
87046W        W87910  11.219  12.961   5.476
87047W        W87911  13.240  11.571   3.463
87048W        W87912  14.453  13.915   5.497
87049W        W87913  14.373  11.103   6.080
87050W        W87914  13.049  12.388   6.686
87051W        W87915  12.690  13.510   4.355
87052W        W87916  13.448  12.906   7.155
87053W        W87917  13.187  11.049   5.491
87054W        W87918  11.493  11.934   5.549
87055W        W87919  11.234  13.129   6.441
87056W        W87920  13.244  14.176   5.271
87057W        W87921  14.176  11.931   5.922
87058W        W87922  13.027  14.383   6.572
87059W        W87923  13.845  13.084   3.694
87060W        W87924  12.553  12.776   4.825
87061W        W87925  14.558  11.174   6.566
87062W        W87926  12.778  13.195   6.185
87063W        W87927  12.903  12.066   5.506
87064W        W87928  13.473  12.301   4.228
87065W        W87929  13.909  12.138   4.047
87066W        W87930  14.241  13.773   4.638
87067W        W87931  13.509  13.342   5.465
87068W        W87932  13.487  12.765   4.470
87069W        W87933  12.993  12.728   5.195
87070W        W87934  13.995  12.650   5.360
87071W        W87935  11.242  11.638   5.897
87072W        W87936  14.071  12.757   6.549
87073W        W87937  14.417  14.324   5.817
87074W        W87938  12.324  13.944   5.261
87075W        W87939  13.505  14.380   6.313
87076W        W87940  13.363  11.762   6.148
87077W        W87941  12.635  14.441   6.223
87078W        W87942  14.025  11.479   4.843
87079W        W87943  14.189  12.464   5.814
87080W        W87944  10.917  11.916   6.181
87081W        W87945  13.769  11.828   5.124
87082W        W87946  14.220  11.925   6.679
87083W        W87947  13.187  13.630   5.161
87084W        W87948  12.460  14.222   4.841
87085W        W87949  11.469  11.337   4.030
87086W        W87950  12.747  11.127   5.744
87087W        W87951  11.438  14.541   3.781
87088W        W87952  12.251  12.819   4.372
87089W        W87953  12.732  13.393   6.665
87090W        W87954  12.664  11.442   4.730
87091W        W87955  13.967  11.067   5.133
87092W        W87956  13.658  14.481   5.412
87093W        W87957  12.983  14.306   5.707
87094W        W87958  12.455  13.180   5.786
87095W        W87959  14.284  13.841   5.988
87096W        W87960  11.897  11.359   4.636
87097W        W87961  12.258  13.685   5.697
87098W        W87962  11.831  11.630   3.558
87099W        W87963  12.846  12.292   6.001
87100W        W87964  13.579  11.056   5.854
87101W        W87965  11.094  12.969   5.978
87102W        W87966  12.597  12.702   3.904
87103W        W87967  11.921  11.126   3.670
87104W        W87968  12.627  12.060   4.724
87105W        W87969  13.497  11.286   6.296
87106W        W87970  12.157  13.257   6.596
87107W        W87971  13.094  12.912   6.773
87108W        W87972  13.611  13.116   6.728
87109W        W87973  12.872  11.204   7.019
87110W        W87974  11.975  11.760   5.449
87111W        W87975  11.566  11.649   5.089
87112W        W87976  11.313  14.361   4.867
87113W        W87977  12.881  13.889   6.745
87114W        W87978  12.166  13.421   4.246
87115W        W87979  13.493  12.821   5.404
87116W        W87980  13.670  12.444   5.721
87117W        W87981  12.908  12.896   5.782
87118W        W87982  13.388  13.392   3.680
87119W        W87983  13.088  11.360   5.066
87120W        W87984  14.290  11.500   4.413
87121W        W87985  11.192  14.359   6.698
87122W        W87986  11.422  13.445   6.076
87123W        W87987  10.942  14.467   4.489
87124W        W87988  12.732  11.792   5.934
87125W        W87989  12.017  13.922   4.193
87126W        W87990  14.061  14.157   3.904
87127W        W87991  13.078  12.620   4.125
87128W        W87992  12.258  11.736   4.573
87129W        W87993  12.764  11.726   3.665
87130W        W87994  13.237  13.471   6.770
87131W        W87995  13.756  11.404   4.355
87132W        W87996  11.040  11.065   3.896
87133W        W87997  12.351  13.501   6.183
87134W        W87998  12.069  13.248   5.453
87135W        W87999  12.024  13.741   3.694
87136W        W88000  11.095  13.969   4.606
87137W        W88001  11.837  12.631   6.900
87138W        W88002  12.358  11.182   6.928
87139W        W88003  12.984  11.418   6.233
87140W        W88004  12.302  11.073   4.788
87141W        W88005  13.271  11.087   4.054
87142W        W88006  11.290  11.122   5.830
87143W        W88007  11.139  12.003   5.166
87144W        W88008  14.054  11.109   5.650
87145W        W88009  11.479  11.623   4.497
87146W        W88010  13.903  11.455   6.017
87147W        W88011  14.226  12.718   3.662
87148W        W88012  11.612  11.426   5.573
87149W        W88013  12.952  11.955   6.397
87150W        W88014  10.869  11.554   3.922
87151W        W88015  11.725  12.946   6.472
87152W        W88016  13.165  12.480   5.628
87153W        W88017  12.761  14.438   3.946
87154W        W88018  11.143  12.816   3.568
87155W        W88019  11.885  13.638   6.837
87156W        W88020  11.375  12.641   6.249
87157W        W88021  12.529  12.745   6.083
87158W        W88022  13.986  11.127   6.422
87159W        W88023  14.588  12.790   6.527
87160W        W88024  14.253  12.511   4.151
87161W        W88025  13.172  13.180   4.488
87162W        W88026  13.916  14.602   3.615
87163W        W88027  13.065  12.566   7.172
87164W        W88028  11.490  13.574   7.157
87165W        W88029  14.633  11.454   7.013
87166W        W88030  13.988  12.143   5.461
87167W        W88031  12.438  14.411   7.188
87168W        W88032  12.364  10.975   3.899
87169W        W88033  13.872  13.720   3.635
87170W        W88034  11.785  11.845   6.696
87171W        W88035  12.341  13.742   6.645
87172W        W88036  14.306  11.565   6.314
87173W        W88037  13.698  14.501   4.063
87174W        W88038  13.870  12.944   5.765
87175W        W88039  12.034  11.568   6.346
87176W        W88040  12.610  12.538   6.939
87177W        W88041  11.807  13.611   4.631
87178W        W88042  13.687  13.240   4.563
87179W        W88043  11.381  11.750   6.401
87180W        W88044  12.680  13.689   4.919
87181W        W88045  14.399  12.366   5.194
87182W        W88046  12.678  11.021   6.565
87183W        W88047  13.636  13.627   5.868
87184W        W88048  13.979  14.088   5.653
87185W        W88049  12.900  13.983   3.677
87186W        W88050  11.074  13.810   6.970
87187W        W88051  11.726  11.751   5.964
87188W        W88052  11.809  11.186   5.138
87189W        W88053  13.570  11.922   5.695
87190W        W88054  12.503  13.208   3.908
87191W        W88055  14.340  13.142   5.641
87192W        W88056  11.546  14.028   6.891
87193W        W88057  13.990  14.523   4.533
87194W        W88058  12.218  11.501   5.059
87195W        W88059  11.721  12.851   5.404
87196W        W88060  12.250  14.537   5.892
87197W        W88061  14.002  14.505   6.927
87198W        W88062  13.394  12.822   5.951
87199W        W88063  11.237  12.262   3.646
87200W        W88064  14.325  14.276   4.853
87201W        W88065  14.018  11.647   3.985
87202W        W88066  12.167  11.080   6.418
87203W        W88067  14.098  13.867   5.135
87204W        W88068  13.916  12.315   4.977
87205W        W88069  12.210  12.010   5.044
87206W        W88070  12.596  12.380   6.441
87207W        W88071  13.626  13.534   6.372
87208W        W88072  12.438  11.891   6.373
87209W        W88073  12.111  14.413   5.199
87210W        W88074  11.553  14.523   7.031
87211W        W88075  11.701  14.142   3.579
87212W        W88076  14.132  13.283   4.832
87213W        W88077  11.961  12.082   6.274
87214W        W88078  14.364  11.974   4.216
87215W        W88079  12.394  13.239   4.673
87216W        W88080  13.481  12.651   6.538
87217W        W88081  13.341  12.324   6.130
87218W        W88082  11.854  12.550   6.096
87219W        W88083  13.888  14.487   5.960
87220W        W88084  13.640  11.243   6.807
87221W        W88085  11.297  11.268   6.711
87222W        W88086  11.901  12.217   5.700
87223W        W88087  12.199  11.998   3.598
87224W        W88088  11.001  13.903   6.480
87225W        W88089  12.609  12.518   5.613
87226W        W88090  12.323  11.461   3.740
87227W        W88091  11.731  12.650   4.926
87228W        W88092  11.264  14.496   6.196
87229W        W88093  13.776  12.612   3.895
87230W        W88094  14.147  11.405   6.816
87231W        W88095  13.705  13.516   5.011
87232W        W88096  11.341  12.717   6.757
87233W        W88097  14.170  11.144   4.074
87234W        W88098  13.854  13.427   4.078
87235W        W88099  12.630  12.464   4.385
87236W        W88100  13.631  11.376   3.801
87237W        W88101  13.778  12.057   6.188
87238W        W88102  11.293  12.508   5.210
87239W        W88103  11.698  13.294   5.063
87240W        W88104  13.495  12.092   4.771
87241W        W88105  12.430  11.515   5.568
87242W        W88106  14.571  13.425   6.131
87243W        W88107  14.451  11.505   5.793
87244W        W88108  11.098  14.269   5.339
87245W        W88109  11.290  13.465   4.676
87246W        W88110  11.416  11.243   7.213
87247W        W88111  12.533  13.908   7.127
87248W        W88112  14.391  12.925   5.142
87249W        W88113  13.465  13.029   4.044
87250W        W88114  13.098  14.626   6.105
87251W        W88115  13.896  13.187   7.135
87252W        W88116  12.712  10.982   4.454
87253W        W88117  13.276  11.803   5.242
87254W        W88118  11.063  13.428   5.680
87255W        W88119  12.312  11.289   4.319
87256W        W88120  12.257  12.918   6.959
87257W        W88121  13.065  11.781   4.779
87258W        W88122  13.201  13.318   5.882
87259W        W88123  11.491  14.045   6.366
87260W        W88124  12.041  14.046   7.098
87261W        W88125  11.939  11.556   4.083
87262W        W88126  13.400  11.802   4.357
87263W        W88127  13.366  13.946   6.575
87264W        W88128  12.118  12.491   5.279
87265W        W88129  11.796  14.354   6.080
87266W        W88130  14.411  14.395   3.620
87267W        W88131  11.223  13.183   6.956
87268W        W88132  13.014  13.210   5.403
87269W        W88133  11.880  13.101   4.612
87270W        W88134  12.160  13.993   6.121
87271W        W88135  12.617  11.210   5.209
87272W        W88136  10.835  13.579   4.355
87273W        W88137  12.646  12.221   3.724
87274W        W88138  11.295  12.959   4.936
87275W        W88139  12.480  11.378   6.135
87276W        W88140  14.195  11.268   3.590
87277W        W88141  14.330  12.974   6.947
87278W        W88142  12.949  14.317   7.087
87279W        W88143  14.595  13.325   6.641
87280W        W88144  13.811  14.031   7.149
87281W        W88145  11.797  14.603   5.621
87282W        W88146  14.619  13.413   4.730
87283W        W88147  13.058  12.232   5.024
87284W        W88148  12.928  10.898   4.925
87285W        W88149  11.959  14.019   4.910
87286W        W88150  12.218  11.800   5.921
87287W        W88151  12.284  10.988   5.589
87288W        W88152  11.433  14.082   4.034
87289W        W88153  12.851  13.183   4.917
87290W        W88154  11.961  14.111   6.578
87291W        W88155  10.835  13.036   4.243
87292W        W88156  11.146  11.550   5.404
87293W        W88157  12.558  13.452   5.354
87294W        W88158  11.065  11.345   4.373
87295W        W88159  13.821  12.560   6.170
87296W        W88160  13.533  11.890   3.785
87297W        W88161  14.050  13.579   5.569
87298W        W88162  12.805  13.913   5.391
87299W        W88163  12.165  14.371   4.432
87300W        W88164  13.304  11.071   3.531
87301W        W88165  11.411  14.287   5.742
87302W        W88166  13.146  11.990   7.012
87303W        W88167  11.357  11.738   6.961
87304W        W88168  11.064  12.162   4.665
87305W        W88169  12.245  12.343   4.037
87306W        W88170  13.494  12.372   6.991
87307W        W88171  12.146  12.761   5.708
87308W        W88172  13.451  10.972   5.040
87309W        W88173  12.602  14.404   5.361
87310W        W88174  13.819  14.001   6.150
87311W        W88175  13.624  13.855   5.388
87312W        W88176  13.368  13.102   4.984
87313W        W88177  12.741  11.324   4.060
87314W        W88178  14.464  11.072   4.944
87315W        W88179  12.032  12.500   3.564
87316W        W88180  14.256  11.906   4.997
87317W        W88181  12.990  13.048   3.835
87318W        W88182  14.081  13.257   6.572
87319W        W88183  13.597  14.177   3.653
87320W        W88184  12.247  11.670   6.820
87321W        W88185  12.325  12.295   5.993
87322W        W88186  14.132  13.747   6.482
87323W        W88187  13.251  11.584   6.660
87324W        W88188  11.110  12.245   6.518
87325W        W88189  13.003  12.705   6.281
87326W        W88190  11.212  13.399   5.183
87327W        W88191  11.406  12.526   5.724
87328W        W88192  13.748  13.045   6.248
87329W        W88193  13.456  14.406   6.876
87330W        W88194  13.429  12.059   6.573
87331W        W88195  13.818  14.272   4.976
87332W        W88196  12.647  13.921   6.277
87333W        W88197  12.025  14.147   5.634
87334W        W88198  14.060  13.387   6.055
87335W        W88199  12.894  13.527   7.164
87336W        W88200  11.557  13.348   5.560
87337W        W88201  13.948  13.155   5.294
87338W        W88202  13.484  14.205   5.803
87339W        W88203  11.685  13.862   5.887
87340W        W88204  12.661  12.040   6.820
87341W        W88205  12.561  14.086   4.278
87342W        W88206  12.381  13.418   7.049
87343W        W88207  12.297  13.781   4.597
87344W        W88208  11.694  12.115   3.424
87345W        W88209  10.805  14.658  10.550
87346W        W88210  11.365  13.598  10.098
87347W        W88211  14.137  13.255   8.028
87348W        W88212  14.313  14.272  10.071
87349W        W88213  11.977  14.321   7.521
87350W        W88214  12.385  12.627   8.353
87351W        W88215  11.866  12.443   9.071
87352W        W88216  12.852  13.151   8.169
87353W        W88217  12.467  14.393  10.249
87354W        W88218  10.970  11.580  10.258
87355W        W88219  11.655  10.784  10.120
87356W        W88220  13.836  11.437   9.083
87357W        W88221  13.167  12.352   7.646
87358W        W88222  13.693  11.735  10.576
87359W        W88223  11.076  11.301   9.793
87360W        W88224  11.079  14.274  10.784
87361W        W88225  12.444  13.601   7.572
87362W        W88226  11.111  12.125   9.375
87363W        W88227  12.203  12.121  10.358
87364W        W88228  14.552  11.929   9.009
87365W        W88229  14.257  12.995   9.972
87366W        W88230  12.889  12.218   8.886
87367W        W88231  13.184  13.717   9.314
87368W        W88232  11.580  13.017   9.523
87369W        W88233  10.726  12.472   9.277
87370W        W88234  12.226  12.583  10.115
87371W        W88235  14.386  12.479  10.563
87372W        W88236  11.870  13.748   8.889
87373W        W88237  12.779  13.626  10.029
87374W        W88238  12.584  11.965   9.197
87375W        W88239  12.558  12.956   8.987
87376W        W88240  13.286  13.888  10.707
87377W        W88241  12.772  13.142  10.876
87378W        W88242  12.698  12.750  10.184
87379W        W88243  10.605  11.881  10.550
87380W        W88244  13.680  13.628  10.486
87381W        W88245  11.319  11.148   8.342
87382W        W88246  11.924  13.394   9.470
87383W        W88247  14.326  13.435   8.895
87384W        W88248  14.185  11.770   9.347
87385W        W88249  14.221  11.750   7.172
87386W        W88250  14.751  12.428   9.836
87387W        W88251  12.575  14.124   9.315
87388W        W88252  14.206  13.765   7.875
87389W        W88253  11.393  14.570   8.026
87390W        W88254  11.779  14.485   8.353
87391W        W88255  11.703  11.181   9.787
87392W        W88256  14.271  12.476  10.052
87393W        W88257  13.711  12.698   8.592
87394W        W88258  13.663  12.554   7.466
87395W        W88259  12.715  13.683   9.529
87396W        W88260  12.891  11.677   8.891
87397W        W88261  13.141  13.911   9.783
87398W        W88262  14.165  12.770   8.345
87399W        W88263  13.446  11.667   8.192
87400W        W88264  11.616  14.097   8.049
87401W        W88265  10.996  11.567   8.541
87402W        W88266  13.664  12.272   8.945
87403W        W88267  11.304  13.854   8.993
87404W        W88268  12.432  14.114   7.626
87405W        W88269  13.983  12.210   7.179
87406W        W88270  11.071  13.927   9.458
87407W        W88271  11.812  13.764   9.823
87408W        W88272  12.475  13.121   8.514
87409W        W88273  12.089  11.290   9.430
87410W        W88274  14.624  11.060   9.139
87411W        W88275  11.766  13.153   6.951
87412W        W88276  11.318  11.648   7.503
87413W        W88277  11.499  13.833   8.523
87414W        W88278  12.170  13.535   8.516
87415W        W88279  13.852  14.212  10.323
87416W        W88280  13.034  11.961   8.015
87417W        W88281  14.107  14.360   9.094
87418W        W88282  13.952  12.249  10.401
87419W        W88283  14.553  13.876   8.710
87420W        W88284  13.121  13.038  10.046
87421W        W88285  10.945  12.596   8.397
87422W        W88286  12.127  13.008   9.764
87423W        W88287  13.281  12.359   8.242
87424W        W88288  13.250  12.872   8.363
87425W        W88289  11.576  12.102   9.737
87426W        W88290  11.759  12.346  10.159
87427W        W88291  11.377  11.023   8.868
87428W        W88292  13.181  11.380   9.270
87429W        W88293  12.858  11.470  10.347
87430W        W88294  13.087  11.833   7.521
87431W        W88295  14.347  14.083  10.574
87432W        W88296  13.226  11.042  10.272
87433W        W88297  14.170  13.561  10.685
87434W        W88298  13.841  11.608  10.068
87435W        W88299  13.792  11.508   8.548
87436W        W88300  13.957  12.596  10.824
87437W        W88301  11.664  14.228   8.841
87438W        W88302  12.578  11.802   7.644
87439W        W88303  11.820  11.246  10.349
87440W        W88304  13.982  11.897   8.155
87441W        W88305  14.319  12.315   8.139
87442W        W88306  11.983  14.571  10.430
87443W        W88307  11.996  10.897   7.769
87444W        W88308  14.330  11.461   8.934
87445W        W88309  14.362  13.808   7.380
87446W        W88310  11.199  12.995   9.158
87447W        W88311  13.320  11.531   7.170
87448W        W88312  14.411  13.908   9.201
87449W        W88313  14.459  11.119   9.632
87450W        W88314  13.021  12.330  10.310
87451W        W88315  12.833  13.638   7.939
87452W        W88316  13.496  12.763  10.720
87453W        W88317  13.202  10.853   9.148
87454W        W88318  11.609  11.990   9.222
87455W        W88319  11.188  13.153   9.852
87456W        W88320  13.198  14.134   8.744
87457W        W88321  14.339  12.188   9.625
87458W        W88322  12.991  14.481  10.138
87459W        W88323  14.233  13.139   7.525
87460W        W88324  12.816  12.715   8.606
87461W        W88325  14.502  11.152  10.264
87462W        W88326  12.637  13.155   9.872
87463W        W88327  13.155  11.923   9.259
87464W        W88328  13.808  12.412   8.176
87465W        W88329  13.990  12.236   7.716
87466W        W88330  13.925  14.009   8.237
87467W        W88331  13.769  13.447   9.021
87468W        W88332  13.478  12.707   7.921
87469W        W88333  13.079  12.870   9.022
87470W        W88334  14.080  12.722   8.980
87471W        W88335  11.299  11.653   9.474
87472W        W88336  13.912  12.762  10.343
87473W        W88337  14.428  14.304   9.514
87474W        W88338  12.357  13.925   8.793
87475W        W88339  13.506  14.449  10.012
87476W        W88340  13.401  11.662   9.680
87477W        W88341  12.627  14.690   9.819
87478W        W88342  14.289  11.449   8.380
87479W        W88343  14.146  12.677   9.576
87480W        W88344  10.980  11.846   9.824
87481W        W88345  13.994  11.867   8.855
87482W        W88346  14.237  11.961  10.106
87483W        W88347  13.277  13.593   8.829
87484W        W88348  12.497  14.255   8.401
87485W        W88349  11.320  11.207   7.828
87486W        W88350  12.779  11.005   9.386
87487W        W88351  11.507  14.523   7.533
87488W        W88352  12.466  12.890   7.918
87489W        W88353  12.725  13.244  10.370
87490W        W88354  12.727  11.112   8.401
87491W        W88355  14.049  11.083   8.732
87492W        W88356  13.574  14.465   9.112
87493W        W88357  13.077  14.201   9.235
87494W        W88358  12.440  13.222   9.410
87495W        W88359  14.283  13.864   9.740
87496W        W88360  11.787  11.227   8.124
87497W        W88361  12.285  13.687   9.252
87498W        W88362  11.815  11.633   7.174
87499W        W88363  12.832  12.182   9.584
87500W        W88364  13.607  11.055   9.382
87501W        W88365  11.027  12.756   9.581
87502W        W88366  12.675  12.679   7.492
87503W        W88367  11.919  11.125   7.216
87504W        W88368  12.772  12.264   8.360
87505W        W88369  13.546  11.194   9.874
87506W        W88370  12.227  13.232  10.199
87507W        W88371  13.042  12.869  10.533
87508W        W88372  13.511  13.128  10.368
87509W        W88373  12.817  11.120  10.728
87510W        W88374  12.134  11.673   9.071
87511W        W88375  11.511  11.502   8.660
87512W        W88376  11.297  14.334   8.479
87513W        W88377  12.894  14.022  10.342
87514W        W88378  11.997  13.327   7.778
87515W        W88379  13.584  12.773   9.093
87516W        W88380  13.743  12.402   9.422
87517W        W88381  12.926  12.948   9.506
87518W        W88382  13.431  13.418   7.256
87519W        W88383  13.159  11.398   8.543
87520W        W88384  14.472  11.799   7.993
87521W        W88385  11.117  14.350  10.250
87522W        W88386  11.396  13.536   9.596
87523W        W88387  10.905  14.452   8.107
87524W        W88388  12.848  11.674   9.583
87525W        W88389  11.991  13.863   7.760
87526W        W88390  13.802  14.041   7.670
87527W        W88391  13.158  12.878   7.567
87528W        W88392  12.748  11.654   8.355
87529W        W88393  12.739  11.678   7.157
87530W        W88394  13.171  13.513  10.338
87531W        W88395  13.890  11.395   8.038
87532W        W88396  11.037  10.928   7.517
87533W        W88397  12.290  13.535   9.799
87534W        W88398  12.104  13.279   8.987
87535W        W88399  11.983  13.580   7.330
87536W        W88400  11.111  13.942   8.192
87537W        W88401  11.837  12.869  10.241
87538W        W88402  12.334  11.124  10.492
87539W        W88403  13.019  11.301   9.873
87540W        W88404  12.214  11.050   8.373
87541W        W88405  13.555  11.612   7.669
87542W        W88406  11.352  11.130   9.401
87543W        W88407  11.239  11.960   8.846
87544W        W88408  14.112  11.037   9.261
87545W        W88409  11.194  11.660   8.044
87546W        W88410  13.893  11.433   9.589
87547W        W88411  14.232  12.620   7.387
87548W        W88412  11.662  11.452   9.156
87549W        W88413  13.031  11.912  10.004
87550W        W88414  10.866  11.429   7.659
87551W        W88415  11.729  13.275   9.954
87552W        W88416  13.229  12.429   9.253
87553W        W88417  12.819  14.457   7.572
87554W        W88418  11.057  12.695   7.197
87555W        W88419  11.917  13.665  10.303
87556W        W88420  11.460  12.722   9.927
87557W        W88421  12.519  12.667   9.698
87558W        W88422  14.058  11.130  10.005
87559W        W88423  14.645  12.771  10.222
87560W        W88424  14.499  12.899   7.942
87561W        W88425  13.300  13.216   7.935
87562W        W88426  13.701  14.500   7.328
87563W        W88427  13.078  12.435  10.798
87564W        W88428  11.510  13.556  10.594
87565W        W88429  14.597  11.521  10.773
87566W        W88430  14.156  12.251   9.150
87567W        W88431  12.384  14.603  10.749
87568W        W88432  12.374  10.999   7.429
87569W        W88433  13.905  13.577   7.460
87570W        W88434  11.826  11.816  10.197
87571W        W88435  12.372  13.889  10.170
87572W        W88436  14.327  11.553   9.840
87573W        W88437  13.661  14.519   7.831
87574W        W88438  13.843  13.093   9.425
87575W        W88439  12.103  11.455   9.961
87576W        W88440  12.569  12.429  10.568
87577W        W88441  11.797  13.600   8.173
87578W        W88442  13.713  13.063   8.222
87579W        W88443  11.444  11.587   9.964
87580W        W88444  12.680  13.624   8.463
87581W        W88445  14.516  12.402   8.792
87582W        W88446  12.721  10.986  10.196
87583W        W88447  13.638  13.602   9.504
87584W        W88448  13.947  13.998   9.392
87585W        W88449  12.894  13.930   7.494
87586W        W88450  11.075  13.828  10.504
87587W        W88451  11.805  11.673   9.606
87588W        W88452  11.954  11.231   8.793
87589W        W88453  13.674  11.888   9.288
87590W        W88454  12.322  13.088   7.446
87591W        W88455  14.346  13.064   9.289
87592W        W88456  11.524  14.022  10.321
87593W        W88457  13.894  14.526   8.287
87594W        W88458  12.444  11.415   8.724
87595W        W88459  11.692  12.930   9.027
87596W        W88460  12.266  14.503   9.480
87597W        W88461  14.115  14.534  10.627
87598W        W88462  13.418  12.787   9.587
87599W        W88463  11.295  12.259   6.996
87600W        W88464  14.227  14.272   8.611
87601W        W88465  14.077  11.714   7.660
87602W        W88466  12.159  10.932  10.018
87603W        W88467  14.032  13.861   8.854
87604W        W88468  14.056  12.323   8.613
87605W        W88469  12.483  11.945   8.695
87606W        W88470  12.600  12.245  10.035
87607W        W88471  13.534  13.494   9.993
87608W        W88472  12.548  11.727  10.012
87609W        W88473  12.164  14.402   8.768
87610W        W88474  11.518  14.446  10.592
87611W        W88475  11.588  14.007   7.424
87612W        W88476  14.214  13.620   8.406
87613W        W88477  12.111  12.100   9.859
87614W        W88478  14.428  12.108   7.482
87615W        W88479  12.409  13.373   8.063
87616W        W88480  13.411  12.641  10.220
87617W        W88481  13.360  12.183   9.685
87618W        W88482  11.905  12.559   9.700
87619W        W88483  13.953  14.433   9.682
87620W        W88484  13.703  11.206  10.372
87621W        W88485  11.314  11.158  10.250
87622W        W88486  12.298  11.989   7.212
87623W        W88487  10.973  13.917   9.999
87624W        W88488  12.725  12.548   9.247
87625W        W88489  12.283  11.491   7.335
87626W        W88490  12.101  12.833   8.737
87627W        W88491  11.116  14.517   9.742
87628W        W88492  14.002  12.760   7.845
87629W        W88493  14.158  11.485  10.442
87630W        W88494  13.711  13.564   8.512
87631W        W88495  11.313  12.497  10.380
87632W        W88496  14.367  11.301   7.854
87633W        W88497  13.727  13.556   7.967
87634W        W88498  12.940  12.675   8.002
87635W        W88499  13.830  11.425   7.262
87636W        W88500  13.874  11.988   9.735
87637W        W88501  11.192  12.485   8.997
87638W        W88502  11.701  13.314   8.627
87639W        W88503  13.634  12.041   8.496
87640W        W88504  12.573  11.450   9.233
87641W        W88505  14.531  13.410   9.773
87642W        W88506  14.656  11.556   9.387
87643W        W88507  11.059  14.306   8.937
87644W        W88508  11.270  13.441   8.251
87645W        W88509  11.395  11.235  10.803
87646W        W88510  12.473  14.068  10.645
87647W        W88511  14.527  12.921   8.833
87648W        W88512  13.689  13.095   7.609
87649W        W88513  13.082  14.493   9.645
87650W        W88514  13.857  13.138  10.772
87651W        W88515  12.486  10.867   7.946
87652W        W88516  13.434  11.700   8.874
87653W        W88517  11.031  13.472   9.227
87654W        W88518  12.273  11.332   7.835
87655W        W88519  12.377  12.914  10.575
87656W        W88520  13.140  11.945   8.528
87657W        W88521  13.114  13.392   9.693
87658W        W88522  11.411  14.078   9.815
87659W        W88523  11.960  14.096  10.615
87660W        W88524  11.767  11.364   7.626
87661W        W88525  13.536  12.079   7.900
87662W        W88526  13.400  13.970  10.211
87663W        W88527  12.405  12.437   8.871
87664W        W88528  11.809  14.329   9.634
87665W        W88529  14.189  14.309   7.375
87666W        W88530  11.376  13.105  10.321
87667W        W88531  13.365  13.223   9.264
87668W        W88532  12.022  13.093   8.267
87669W        W88533  12.226  14.023   9.673
87670W        W88534  12.857  11.165   8.908
87671W        W88535  11.003  13.167   7.763
87672W        W88536  12.761  12.187   7.319
87673W        W88537  11.308  12.884   8.661
87674W        W88538  12.517  11.257   9.745
87675W        W88539  14.304  11.209   7.317
87676W        W88540  14.315  12.988  10.578
87677W        W88541  12.859  14.481  10.626
87678W        W88542  14.503  13.364  10.278
87679W        W88543  13.887  14.012  10.793
87680W        W88544  11.825  14.576   9.198
87681W        W88545  14.477  13.183   8.411
87682W        W88546  13.270  12.499   8.728
87683W        W88547  13.110  10.827   8.631
87684W        W88548  11.989  14.023   8.435
87685W        W88549  12.315  11.740   9.564
87686W        W88550  12.361  11.027   9.076
87687W        W88551  11.177  14.182   7.741
87688W        W88552  12.959  13.218   8.667
87689W        W88553  11.959  14.174  10.101
87690W        W88554  11.265  12.919   8.136
87691W        W88555  11.143  11.467   9.024
87692W        W88556  12.873  13.338   9.162
87693W        W88557  10.857  11.281   8.144
87694W        W88558  13.777  12.462   9.924
87695W        W88559  13.536  12.048   7.388
87696W        W88560  14.142  13.522   9.362
87697W        W88561  12.821  13.815   8.966
87698W        W88562  12.149  14.322   8.016
87699W        W88563  13.326  11.016   7.167
87700W        W88564  11.388  14.311   9.322
87701W        W88565  13.169  11.876  10.509
87702W        W88566  11.429  11.617  10.477
87703W        W88567  10.997  12.065   8.379
87704W        W88568  12.665  12.282   7.831
87705W        W88569  13.497  12.256  10.591
87706W        W88570  12.150  12.814   9.283
87707W        W88571  13.488  11.155   8.853
87708W        W88572  12.699  14.319   8.865
87709W        W88573  13.792  13.945   9.881
87710W        W88574  13.562  13.944   9.073
87711W        W88575  13.473  13.129   8.741
87712W        W88576  12.761  11.326   7.532
87713W        W88577  14.606  11.092   8.618
87714W        W88578  12.216  12.495   7.258
87715W        W88579  14.383  11.940   8.514
87716W        W88580  12.784  13.212   7.641
87717W        W88581  13.990  13.274  10.299
87718W        W88582  13.316  14.221   7.529
87719W        W88583  12.263  11.617  10.425
87720W        W88584  12.272  12.312   9.407
87721W        W88585  14.136  13.769  10.222
87722W        W88586  13.351  11.544  10.183
87723W        W88587  11.329  12.024  10.183
87724W        W88588  13.034  12.562   9.846
87725W        W88589  11.205  13.376   8.760
87726W        W88590  11.468  12.513   9.430
87727W        W88591  13.732  12.999   9.924
87728W        W88592  13.362  14.373  10.530
87729W        W88593  13.536  12.029  10.140
87730W        W88594  13.710  14.224   8.668
87731W        W88595  12.696  14.157   9.836
87732W        W88596  12.070  14.136   9.184
87733W        W88597  14.011  13.436   9.830
87734W        W88598  12.834  13.639  10.689
87735W        W88599  11.553  13.411   9.126
87736W        W88600  13.996  13.140   8.655
87737W        W88601  13.495  14.190   9.542
87738W        W88602  11.671  13.883   9.352
87739W        W88603  12.672  11.938  10.469
87740W        W88604  12.811  14.159   7.994
87741W        W88605  12.343  13.560  10.570
87742W        W88606  12.373  13.867   8.100
87743W        W88607  11.801  12.154   7.102
87744W        W88608  11.071  14.742  14.395
87745W        W88609  11.378  13.480  13.997
87746W        W88610  13.865  12.835  11.695
87747W        W88611  14.404  14.304  13.681
87748W        W88612  11.928  14.498  10.955
87749W        W88613  12.248  12.543  12.416
87750W        W88614  11.855  12.237  12.607
87751W        W88615  12.951  12.705  11.646
87752W        W88616  12.604  14.312  14.154
87753W        W88617  10.994  11.651  13.952
87754W        W88618  11.648  10.891  13.746
87755W        W88619  13.495  11.425  12.641
87756W        W88620  13.242  11.965  10.994
87757W        W88621  13.606  11.890  14.224
87758W        W88622  11.065  11.324  13.553
87759W        W88623  11.241  14.228  14.525
87760W        W88624  12.484  13.718  11.044
87761W        W88625  10.949  12.126  13.027
87762W        W88626  12.144  12.206  14.028
87763W        W88627  14.295  11.884  12.706
87764W        W88628  14.131  13.023  13.430
87765W        W88629  12.697  12.428  12.633
87766W        W88630  13.151  13.678  12.883
87767W        W88631  11.501  13.091  13.354
87768W        W88632  10.812  12.686  13.029
87769W        W88633  12.175  12.717  13.931
87770W        W88634  14.258  12.478  14.182
87771W        W88635  11.762  13.833  12.748
87772W        W88636  12.942  13.750  13.799
87773W        W88637  12.326  12.226  12.949
87774W        W88638  12.450  12.934  12.968
87775W        W88639  13.462  13.866  14.496
87776W        W88640  12.700  13.006  14.467
87777W        W88641  12.702  12.883  13.947
87778W        W88642  10.693  11.885  14.351
87779W        W88643  13.784  13.653  14.150
87780W        W88644  11.225  11.126  12.065
87781W        W88645  11.851  13.493  13.361
87782W        W88646  14.525  13.416  12.627
87783W        W88647  13.832  11.785  12.945
87784W        W88648  14.107  11.610  10.936
87785W        W88649  14.598  12.384  13.358
87786W        W88650  12.504  14.236  13.188
87787W        W88651  14.333  13.672  11.591
87788W        W88652  11.261  14.420  11.703
87789W        W88653  11.959  14.504  12.029
87790W        W88654  11.525  11.233  13.315
87791W        W88655  14.100  12.446  13.498
87792W        W88656  13.612  12.523  12.256
87793W        W88657  13.516  12.391  11.073
87794W        W88658  12.693  13.766  13.343
87795W        W88659  12.628  11.609  12.354
87796W        W88660  13.247  13.983  13.469
87797W        W88661  14.107  12.604  12.110
87798W        W88662  13.030  11.328  11.697
87799W        W88663  11.680  14.114  11.803
87800W        W88664  10.872  11.463  12.198
87801W        W88665  13.586  12.092  12.615
87802W        W88666  11.273  13.915  12.889
87803W        W88667  12.315  14.195  11.119
87804W        W88668  13.910  12.093  10.911
87805W        W88669  11.017  13.981  13.341
87806W        W88670  11.774  13.792  13.762
87807W        W88671  12.100  13.032  12.548
87808W        W88672  11.978  11.354  13.087
87809W        W88673  14.602  11.105  12.926
87810W        W88674  11.915  13.235  10.602
87811W        W88675  11.370  11.717  10.987
87812W        W88676  11.356  13.908  12.375
87813W        W88677  12.054  13.570  12.394
87814W        W88678  13.936  14.215  13.965
87815W        W88679  12.994  11.788  11.407
87816W        W88680  14.217  14.302  12.780
87817W        W88681  13.814  12.302  14.001
87818W        W88682  14.704  13.840  12.395
87819W        W88683  13.153  13.130  13.799
87820W        W88684  10.819  12.374  12.169
87821W        W88685  11.956  13.123  13.692
87822W        W88686  13.223  12.332  11.903
87823W        W88687  13.163  12.805  12.411
87824W        W88688  11.339  12.111  13.383
87825W        W88689  11.385  12.050  13.908
87826W        W88690  11.218  11.115  12.573
87827W        W88691  12.978  11.467  12.881
87828W        W88692  12.812  11.552  14.122
87829W        W88693  13.235  11.392  11.180
87830W        W88694  14.426  14.129  14.188
87831W        W88695  13.235  11.095  14.063
87832W        W88696  14.261  13.617  14.305
87833W        W88697  13.802  11.562  13.880
87834W        W88698  13.527  11.482  12.131
87835W        W88699  13.807  12.711  14.330
87836W        W88700  11.577  14.301  12.705
87837W        W88701  12.490  11.751  11.288
87838W        W88702  11.812  11.226  14.115
87839W        W88703  13.931  11.745  11.896
87840W        W88704  13.779  12.314  11.809
87841W        W88705  12.132  14.527  14.325
87842W        W88706  11.839  10.969  11.429
87843W        W88707  14.361  11.394  12.563
87844W        W88708  14.407  13.810  11.068
87845W        W88709  11.133  13.069  12.970
87846W        W88710  13.284  11.395  10.665
87847W        W88711  14.529  13.896  12.875
87848W        W88712  14.266  11.098  13.329
87849W        W88713  12.963  12.451  14.140
87850W        W88714  12.895  13.077  12.064
87851W        W88715  13.513  12.844  14.726
87852W        W88716  13.143  10.985  12.794
87853W        W88717  11.437  11.994  12.862
87854W        W88718  11.493  12.959  13.848
87855W        W88719  12.954  14.098  12.521
87856W        W88720  14.209  12.040  13.200
87857W        W88721  13.028  14.288  13.852
87858W        W88722  14.209  12.899  11.148
87859W        W88723  12.621  12.919  12.480
87860W        W88724  14.435  11.060  13.837
87861W        W88725  12.673  13.334  13.642
87862W        W88726  12.771  11.933  12.776
87863W        W88727  13.457  12.059  11.489
87864W        W88728  14.002  11.975  11.421
87865W        W88729  14.091  13.952  11.982
87866W        W88730  13.679  13.603  12.707
87867W        W88731  13.445  12.587  11.523
87868W        W88732  12.953  12.830  12.870
87869W        W88733  13.954  12.768  12.598
87870W        W88734  11.184  11.658  13.181
87871W        W88735  13.935  12.792  13.847
87872W        W88736  14.557  14.362  13.155
87873W        W88737  12.228  13.986  12.635
87874W        W88738  13.524  14.445  13.718
87875W        W88739  13.168  11.639  13.394
87876W        W88740  12.676  14.635  13.637
87877W        W88741  14.274  11.355  12.057
87878W        W88742  13.849  12.705  13.122
87879W        W88743  10.862  11.887  13.498
87880W        W88744  13.907  11.672  12.435
87881W        W88745  14.086  11.972  13.705
87882W        W88746  13.000  13.273  12.571
87883W        W88747  12.373  14.253  12.213
87884W        W88748  11.434  11.296  11.311
87885W        W88749  12.713  11.053  13.090
87886W        W88750  11.458  14.443  11.135
87887W        W88751  12.801  12.564  12.129
87888W        W88752  12.805  13.367  14.129
87889W        W88753  12.599  11.189  12.024
87890W        W88754  13.903  11.168  12.374
87891W        W88755  13.730  14.519  12.784
87892W        W88756  12.999  14.153  13.041
87893W        W88757  12.344  13.354  13.258
87894W        W88758  14.296  13.929  13.331
87895W        W88759  11.641  11.269  11.795
87896W        W88760  12.190  13.817  13.127
87897W        W88761  11.861  11.609  10.745
87898W        W88762  12.675  12.038  13.293
87899W        W88763  13.439  11.275  13.116
87900W        W88764  11.026  12.915  13.493
87901W        W88765  12.679  12.644  11.033
87902W        W88766  11.904  11.100  10.850
87903W        W88767  12.780  12.063  12.214
87904W        W88768  13.463  11.257  13.628
87905W        W88769  12.318  13.277  14.009
87906W        W88770  13.181  13.036  14.308
87907W        W88771  13.611  13.151  14.050
87908W        W88772  12.788  11.217  14.543
87909W        W88773  11.949  11.778  12.798
87910W        W88774  11.349  11.578  12.349
87911W        W88775  11.472  14.401  12.206
87912W        W88776  13.001  13.953  14.252
87913W        W88777  12.162  13.763  11.441
87914W        W88778  13.494  12.595  12.749
87915W        W88779  13.611  12.238  13.118
87916W        W88780  12.913  12.984  13.365
87917W        W88781  13.281  13.265  10.800
87918W        W88782  13.051  11.342  12.239
87919W        W88783  14.406  11.669  11.666
87920W        W88784  11.198  14.405  14.030
87921W        W88785  11.343  13.607  13.491
87922W        W88786  10.781  14.208  11.616
87923W        W88787  12.653  11.526  13.316
87924W        W88788  11.812  14.095  11.269
87925W        W88789  14.289  14.189  11.569
87926W        W88790  13.045  12.329  11.306
87927W        W88791  12.636  11.660  11.799
87928W        W88792  12.856  11.616  10.870
87929W        W88793  13.277  13.529  14.147
87930W        W88794  13.835  11.201  11.832
87931W        W88795  11.000  11.043  11.136
87932W        W88796  12.266  13.682  13.658
87933W        W88797  11.983  13.396  12.879
87934W        W88798  11.964  13.689  10.918
87935W        W88799  11.198  13.888  11.843
87936W        W88800  11.701  12.482  13.996
87937W        W88801  12.299  11.169  14.318
87938W        W88802  12.941  11.294  13.686
87939W        W88803  12.067  10.976  11.938
87940W        W88804  13.643  11.102  11.349
87941W        W88805  11.088  11.161  13.065
87942W        W88806  11.035  12.030  12.532
87943W        W88807  13.994  11.292  12.896
87944W        W88808  11.167  11.503  11.718
87945W        W88809  13.852  11.475  13.360
87946W        W88810  14.354  12.352  11.058
87947W        W88811  11.508  11.471  12.836
87948W        W88812  12.887  11.917  13.750
87949W        W88813  10.821  11.493  11.299
87950W        W88814  11.804  13.221  14.181
87951W        W88815  13.098  12.318  12.925
87952W        W88816  12.732  14.587  11.129
87953W        W88817  10.676  12.365  10.746
87954W        W88818  12.029  13.679  14.208
87955W        W88819  11.291  12.517  13.694
87956W        W88820  12.413  12.886  13.502
87957W        W88821  13.931  11.060  13.740
87958W        W88822  14.454  12.732  13.728
87959W        W88823  14.337  12.642  11.617
87960W        W88824  13.369  12.854  11.945
87961W        W88825  13.720  14.496  10.960
87962W        W88826  13.061  12.638  14.598
87963W        W88827  11.586  13.635  14.473
87964W        W88828  14.612  11.559  14.427
87965W        W88829  14.012  12.305  12.798
87966W        W88830  12.549  14.539  14.623
87967W        W88831  12.313  10.973  11.164
87968W        W88832  14.078  13.406  11.187
87969W        W88833  11.885  11.740  13.946
87970W        W88834  12.521  13.796  14.099
87971W        W88835  14.267  11.505  13.638
87972W        W88836  13.935  14.530  11.431
87973W        W88837  13.801  13.211  13.042
87974W        W88838  11.933  11.349  13.611
87975W        W88839  12.488  12.541  14.311
87976W        W88840  11.679  13.654  12.042
87977W        W88841  13.814  13.030  12.162
87978W        W88842  11.463  11.598  13.685
87979W        W88843  12.564  13.766  12.315
87980W        W88844  14.409  12.334  12.444
87981W        W88845  12.717  11.038  14.066
87982W        W88846  13.549  13.656  13.198
87983W        W88847  13.894  13.978  12.992
87984W        W88848  12.864  14.093  10.968
87985W        W88849  11.085  13.749  14.374
87986W        W88850  11.692  11.746  13.258
87987W        W88851  11.682  11.165  12.312
87988W        W88852  13.310  11.844  12.959
87989W        W88853  12.272  13.246  10.976
87990W        W88854  14.277  13.043  12.932
87991W        W88855  11.478  13.993  14.117
87992W        W88856  14.059  14.483  11.958
87993W        W88857  12.215  11.253  12.383
87994W        W88858  11.629  13.000  12.846
87995W        W88859  12.210  14.646  13.325
87996W        W88860  14.158  14.615  14.236
87997W        W88861  13.313  12.693  13.215
87998W        W88862  11.103  12.002  10.634
87999W        W88863  14.384  14.239  12.292
88000W        W88864  13.994  11.470  11.420
88001W        W88865  12.173  10.932  13.864
88002W        W88866  14.159  13.809  12.533
88003W        W88867  13.973  12.150  12.283
88004W        W88868  12.333  12.013  12.492
88005W        W88869  12.591  12.388  13.772
88006W        W88870  13.534  13.538  13.703
88007W        W88871  12.374  11.886  13.714
88008W        W88872  12.043  14.458  12.541
88009W        W88873  11.585  14.586  14.349
88010W        W88874  11.508  13.999  10.858
88011W        W88875  14.340  13.532  12.139
88012W        W88876  11.815  12.122  13.622
88013W        W88877  14.478  11.865  11.166
88014W        W88878  12.399  13.270  12.164
88015W        W88879  13.414  12.684  14.002
88016W        W88880  13.175  12.167  13.396
88017W        W88881  11.765  12.643  13.503
88018W        W88882  14.044  14.390  13.275
88019W        W88883  13.695  11.260  14.307
88020W        W88884  11.287  11.177  14.002
88021W        W88885  11.806  12.245  13.128
88022W        W88886  12.270  11.942  10.839
88023W        W88887  11.045  13.871  13.864
88024W        W88888  12.702  12.536  13.220
88025W        W88889  12.363  11.423  10.904
88026W        W88890  11.697  12.706  12.439
88027W        W88891  11.254  14.603  13.569
88028W        W88892  13.938  12.470  11.336
88029W        W88893  14.204  11.402  14.152
88030W        W88894  13.811  13.573  12.205
88031W        W88895  11.199  12.473  14.192
88032W        W88896  14.309  11.123  11.600
88033W        W88897  13.958  13.355  11.751
88034W        W88898  12.777  12.161  11.708
88035W        W88899  13.740  11.263  10.873
88036W        W88900  13.601  11.909  13.535
88037W        W88901  11.169  12.522  12.685
88038W        W88902  11.585  13.414  12.515
88039W        W88903  13.527  11.992  12.123
88040W        W88904  12.424  11.531  12.840
88041W        W88905  14.486  13.428  13.422
88042W        W88906  14.404  11.558  13.107
88043W        W88907  11.061  14.305  12.615
88044W        W88908  11.237  13.417  12.118
88045W        W88909  11.412  11.193  14.526
88046W        W88910  12.343  14.067  14.518
88047W        W88911  14.430  12.889  12.467
88048W        W88912  13.687  12.897  11.189
88049W        W88913  13.117  14.503  13.392
88050W        W88914  13.957  13.202  14.420
88051W        W88915  12.511  10.819  11.646
88052W        W88916  13.166  11.788  12.456
88053W        W88917  10.973  13.536  13.095
88054W        W88918  12.308  11.295  11.584
88055W        W88919  12.199  12.970  14.406
88056W        W88920  13.119  11.791  11.917
88057W        W88921  13.118  13.474  13.409
88058W        W88922  11.412  14.131  13.624
88059W        W88923  11.826  14.132  14.447
88060W        W88924  11.953  11.440  11.235
88061W        W88925  13.503  11.561  11.614
88062W        W88926  13.440  13.986  13.954
88063W        W88927  12.024  12.636  12.873
88064W        W88928  11.696  14.485  13.340
88065W        W88929  14.253  14.306  11.064
88066W        W88930  11.079  12.981  14.145
88067W        W88931  13.293  13.184  13.034
88068W        W88932  11.795  13.147  12.145
88069W        W88933  12.064  14.162  13.505
88070W        W88934  12.691  11.167  12.575
88071W        W88935  10.855  13.310  11.765
88072W        W88936  12.742  12.098  10.958
88073W        W88937  11.246  13.014  12.464
88074W        W88938  12.434  11.366  13.767
88075W        W88939  14.213  11.121  11.089
88076W        W88940  14.358  12.986  14.165
88077W        W88941  13.063  14.456  14.358
88078W        W88942  14.561  13.434  13.939
88079W        W88943  13.986  14.055  14.442
88080W        W88944  11.785  14.735  12.896
88081W        W88945  14.743  13.209  12.208
88082W        W88946  13.171  12.302  12.419
88083W        W88947  12.932  10.839  12.271
88084W        W88948  11.850  14.063  12.296
88085W        W88949  12.201  11.814  13.245
88086W        W88950  12.264  11.012  12.843
88087W        W88951  11.183  14.038  11.312
88088W        W88952  12.454  13.386  12.671
88089W        W88953  12.121  14.127  14.007
88090W        W88954  10.979  12.865  12.026
88091W        W88955  10.967  11.555  12.712
88092W        W88956  12.795  13.342  13.036
88093W        W88957  10.772  11.182  11.740
88094W        W88958  13.595  12.479  13.570
88095W        W88959  13.644  11.704  11.131
88096W        W88960  14.179  13.547  12.982
88097W        W88961  12.652  13.826  12.844
88098W        W88962  12.161  14.241  11.637
88099W        W88963  13.301  10.940  10.911
88100W        W88964  11.249  14.379  13.102
88101W        W88965  13.105  11.978  14.312
88102W        W88966  11.455  11.608  14.202
88103W        W88967  11.087  11.919  12.038
88104W        W88968  12.439  12.273  11.322
88105W        W88969  13.442  12.352  14.408
88106W        W88970  11.990  13.000  13.208
88107W        W88971  13.423  10.987  12.349
88108W        W88972  12.555  14.377  12.696
88109W        W88973  13.785  13.991  13.530
88110W        W88974  13.442  14.087  12.737
88111W        W88975  13.545  13.103  12.594
88112W        W88976  12.728  11.297  11.267
88113W        W88977  14.605  11.020  12.278
88114W        W88978  12.016  12.527  10.597
88115W        W88979  14.362  11.832  12.204
88116W        W88980  13.168  12.821  11.124
88117W        W88981  14.066  13.301  13.886
88118W        W88982  13.953  13.917  11.299
88119W        W88983  12.318  11.651  14.180
88120W        W88984  12.219  12.388  13.427
88121W        W88985  14.206  13.803  13.822
88122W        W88986  13.285  11.644  13.909
88123W        W88987  10.874  12.153  13.935
88124W        W88988  13.052  12.592  13.653
88125W        W88989  11.098  13.495  12.613
88126W        W88990  11.335  12.606  13.176
88127W        W88991  13.595  13.042  13.508
88128W        W88992  13.566  14.336  14.314
88129W        W88993  13.321  12.177  13.891
88130W        W88994  13.856  14.196  12.396
88131W        W88995  12.554  14.124  13.687
88132W        W88996  12.017  14.278  13.003
88133W        W88997  13.974  13.518  13.441
88134W        W88998  12.940  13.548  14.589
88135W        W88999  11.479  13.471  13.008
88136W        W89000  14.049  13.277  12.543
88137W        W89001  13.536  14.300  13.197
88138W        W89002  11.665  13.957  13.228
88139W        W89003  12.622  12.053  14.168
88140W        W89004  12.617  14.068  11.805
88141W        W89005  12.418  13.465  14.486
88142W        W89006  12.168  13.837  11.965
88143W        W89007  11.649  12.084  10.602
88144W        W89008  11.070  14.541  18.057
88145W        W89009  11.298  13.411  17.477
88146W        W89010  14.112  13.083  15.532
88147W        W89011  14.547  14.251  17.228
88148W        W89012  12.025  14.325  14.881
88149W        W89013  12.524  12.554  15.515
88150W        W89014  11.644  12.687  16.346
88151W        W89015  12.770  12.971  15.325
88152W        W89016  10.991  11.719  17.641
88153W        W89017  11.583  11.059  17.370
88154W        W89018  13.464  11.514  16.194
88155W        W89019  13.201  12.227  14.866
88156W        W89020  13.576  11.897  17.912
88157W        W89021  11.158  11.386  17.235
88158W        W89022  11.246  14.068  18.147
88159W        W89023  12.509  13.754  14.915
88160W        W89024  11.000  12.099  16.677
88161W        W89025  12.031  12.303  17.837
88162W        W89026  14.325  11.885  16.335
88163W        W89027  14.074  13.054  17.172
88164W        W89028  12.693  12.204  16.285
88165W        W89029  13.156  13.679  16.495
88166W        W89030  11.542  13.013  16.744
88167W        W89031  10.740  12.551  16.599
88168W        W89032  12.016  12.668  17.461
88169W        W89033  14.260  12.505  17.904
88170W        W89034  11.840  13.843  16.227
88171W        W89035  12.846  13.660  17.375
88172W        W89036  12.316  12.207  16.647
88173W        W89037  12.419  13.045  16.224
88174W        W89038  13.446  14.088  18.036
88175W        W89039  12.564  13.002  18.118
88176W        W89040  12.496  12.832  17.604
88177W        W89041  10.834  12.027  18.013
88178W        W89042  13.705  13.816  17.659
88179W        W89043  11.337  11.138  15.751
88180W        W89044  11.922  13.475  16.825
88181W        W89045  14.422  13.392  16.324
88182W        W89046  13.846  11.794  16.579
88183W        W89047  13.939  11.674  14.528
88184W        W89048  14.614  12.416  17.055
88185W        W89049  12.552  14.179  16.912
88186W        W89050  14.410  13.816  15.209
88187W        W89051  11.354  14.591  15.350
88188W        W89052  11.751  14.539  15.696
88189W        W89053  11.687  11.343  16.962
88190W        W89054  14.141  12.534  17.179
88191W        W89055  13.543  12.420  15.800
88192W        W89056  13.630  12.446  15.035
88193W        W89057  12.800  13.503  16.896
88194W        W89058  12.631  11.752  15.994
88195W        W89059  13.135  13.894  17.007
88196W        W89060  13.878  12.792  15.901
88197W        W89061  13.037  11.226  15.397
88198W        W89062  11.677  14.186  15.340
88199W        W89063  11.018  11.542  15.809
88200W        W89064  13.604  12.130  16.230
88201W        W89065  11.323  13.875  16.309
88202W        W89066  12.508  14.252  15.060
88203W        W89067  13.932  12.214  14.519
88204W        W89068  11.119  13.887  16.833
88205W        W89069  11.792  13.512  17.337
88206W        W89070  12.411  13.019  15.694
88207W        W89071  12.167  11.510  16.961
88208W        W89072  14.410  11.066  16.491
88209W        W89073  12.083  13.244  14.835
88210W        W89074  11.423  11.668  14.719
88211W        W89075  11.489  13.861  15.822
88212W        W89076  12.272  13.463  15.891
88213W        W89077  14.076  14.341  17.386
88214W        W89078  12.979  11.837  15.114
88215W        W89079  14.218  14.420  16.251
88216W        W89080  13.820  12.307  17.678
88217W        W89081  14.660  13.743  16.015
88218W        W89082  13.031  13.180  17.345
88219W        W89083  10.913  12.610  15.726
88220W        W89084  11.955  13.045  17.086
88221W        W89085  13.223  12.208  15.411
88222W        W89086  13.044  12.655  15.638
88223W        W89087  11.309  12.221  17.089
88224W        W89088  11.328  12.164  17.801
88225W        W89089  11.292  11.084  16.259
88226W        W89090  12.965  11.537  16.493
88227W        W89091  12.785  11.599  17.775
88228W        W89092  13.156  11.405  14.906
88229W        W89093  14.438  14.176  17.775
88230W        W89094  13.197  11.195  17.686
88231W        W89095  14.133  13.587  17.908
88232W        W89096  13.791  11.648  17.506
88233W        W89097  13.440  11.407  15.665
88234W        W89098  13.817  12.701  18.084
88235W        W89099  11.579  14.301  16.122
88236W        W89100  12.478  11.921  14.960
88237W        W89101  11.843  11.255  17.879
88238W        W89102  13.892  11.667  15.559
88239W        W89103  14.213  12.023  15.346
88240W        W89104  12.047  14.343  18.185
88241W        W89105  11.860  10.992  15.186
88242W        W89106  14.308  11.388  16.107
88243W        W89107  14.466  13.880  14.687
88244W        W89108  11.205  12.995  16.321
88245W        W89109  13.237  11.485  14.396
88246W        W89110  14.470  13.868  16.497
88247W        W89111  14.343  11.103  17.010
88248W        W89112  12.873  12.431  17.660
88249W        W89113  12.708  13.434  15.563
88250W        W89114  13.332  12.897  18.133
88251W        W89115  13.118  11.062  16.402
88252W        W89116  11.448  11.950  16.413
88253W        W89117  11.234  12.996  17.177
88254W        W89118  12.912  14.111  16.122
88255W        W89119  14.188  12.147  16.787
88256W        W89120  12.803  14.171  17.366
88257W        W89121  13.916  12.884  15.071
88258W        W89122  12.659  12.636  16.009
88259W        W89123  14.456  11.111  17.511
88260W        W89124  12.533  13.211  17.226
88261W        W89125  12.822  11.982  16.725
88262W        W89126  13.723  12.126  15.420
88263W        W89127  13.856  11.944  14.966
88264W        W89128  14.033  14.057  15.478
88265W        W89129  13.673  13.570  16.292
88266W        W89130  13.541  12.786  15.448
88267W        W89131  12.998  12.824  16.362
88268W        W89132  13.817  13.026  16.349
88269W        W89133  11.332  11.715  16.864
88270W        W89134  13.921  12.792  17.577
88271W        W89135  14.443  14.324  16.713
88272W        W89136  12.342  13.939  16.117
88273W        W89137  13.584  14.501  17.204
88274W        W89138  13.146  11.690  17.011
88275W        W89139  12.533  14.600  17.217
88276W        W89140  14.282  11.331  15.586
88277W        W89141  13.881  12.721  16.777
88278W        W89142  10.922  11.857  17.145
88279W        W89143  13.906  11.728  16.068
88280W        W89144  14.060  12.035  17.284
88281W        W89145  13.259  13.446  15.991
88282W        W89146  12.502  14.350  15.856
88283W        W89147  11.438  11.264  15.050
88284W        W89148  12.591  11.111  16.633
88285W        W89149  11.532  14.507  14.860
88286W        W89150  12.274  12.913  15.194
88287W        W89151  12.628  13.339  17.720
88288W        W89152  12.620  11.373  15.656
88289W        W89153  13.857  11.221  15.893
88290W        W89154  13.723  14.504  16.384
88291W        W89155  12.993  14.211  16.632
88292W        W89156  12.375  13.150  16.742
88293W        W89157  14.215  13.943  16.963
88294W        W89158  11.783  11.332  15.593
88295W        W89159  12.353  13.707  16.888
88296W        W89160  11.892  11.592  14.465
88297W        W89161  12.744  12.387  17.022
88298W        W89162  13.453  11.407  16.694
88299W        W89163  10.960  13.003  16.759
88300W        W89164  12.670  12.732  14.894
88301W        W89165  11.897  11.090  14.638
88302W        W89166  12.821  12.185  15.753
88303W        W89167  13.457  11.329  17.231
88304W        W89168  12.127  13.188  17.543
88305W        W89169  12.961  12.918  17.784
88306W        W89170  13.367  13.242  17.732
88307W        W89171  12.809  11.237  18.131
88308W        W89172  11.960  11.818  16.575
88309W        W89173  11.494  11.576  15.993
88310W        W89174  11.160  14.210  15.623
88311W        W89175  12.575  13.872  17.775
88312W        W89176  11.739  13.534  15.120
88313W        W89177  13.507  12.624  16.369
88314W        W89178  13.655  12.270  16.739
88315W        W89179  12.862  12.966  16.882
88316W        W89180  13.480  13.348  14.588
88317W        W89181  13.016  11.387  15.993
88318W        W89182  14.601  11.678  15.358
88319W        W89183  11.208  14.256  17.640
88320W        W89184  11.428  13.458  16.964
88321W        W89185  10.809  14.465  15.330
88322W        W89186  12.671  11.539  16.916
88323W        W89187  12.094  13.926  15.191
88324W        W89188  14.051  14.076  14.944
88325W        W89189  13.157  12.677  15.122
88326W        W89190  12.561  11.840  15.455
88327W        W89191  12.820  11.717  14.634
88328W        W89192  13.152  13.729  17.777
88329W        W89193  13.816  11.204  15.355
88330W        W89194  11.042  10.996  14.890
88331W        W89195  12.319  13.642  17.385
88332W        W89196  12.243  13.530  16.407
88333W        W89197  12.023  13.738  14.726
88334W        W89198  11.319  13.812  15.320
88335W        W89199  11.601  12.609  17.916
88336W        W89200  12.314  11.101  18.048
88337W        W89201  12.915  11.400  17.335
88338W        W89202  12.202  11.050  15.764
88339W        W89203  13.410  10.996  15.099
88340W        W89204  11.237  11.159  16.783
88341W        W89205  10.995  11.946  16.175
88342W        W89206  13.913  11.303  16.418
88343W        W89207  11.354  11.600  15.434
88344W        W89208  13.904  11.390  16.935
88345W        W89209  14.140  12.383  14.978
88346W        W89210  11.599  11.462  16.477
88347W        W89211  12.848  11.968  17.385
88348W        W89212  10.945  11.498  14.940
88349W        W89213  11.628  12.993  17.511
88350W        W89214  13.098  12.394  16.606
88351W        W89215  12.947  14.552  14.978
88352W        W89216  10.836  12.652  14.537
88353W        W89217  11.713  13.376  17.833
88354W        W89218  11.304  12.583  17.488
88355W        W89219  12.386  12.743  17.090
88356W        W89220  13.925  11.121  17.391
88357W        W89221  14.440  12.821  17.500
88358W        W89222  14.407  12.780  15.234
88359W        W89223  13.177  13.162  15.537
88360W        W89224  13.900  14.524  14.667
88361W        W89225  12.949  12.539  18.165
88362W        W89226  11.414  13.482  18.228
88363W        W89227  14.575  11.571  18.080
88364W        W89228  13.993  12.463  16.331
88365W        W89229  12.553  14.309  18.095
88366W        W89230  12.330  11.052  14.926
88367W        W89231  13.907  13.628  14.717
88368W        W89232  11.728  11.824  17.793
88369W        W89233  12.006  13.800  17.743
88370W        W89234  14.243  11.545  17.277
88371W        W89235  13.895  14.483  15.194
88372W        W89236  13.729  13.211  16.808
88373W        W89237  11.863  11.503  17.418
88374W        W89238  12.458  12.506  18.027
88375W        W89239  11.898  13.656  15.583
88376W        W89240  13.652  13.235  15.678
88377W        W89241  11.415  11.814  17.383
88378W        W89242  12.748  13.613  16.048
88379W        W89243  14.483  12.375  16.174
88380W        W89244  12.643  11.109  17.647
88381W        W89245  13.581  13.714  16.786
88382W        W89246  13.921  14.050  16.526
88383W        W89247  12.843  14.109  14.700
88384W        W89248  11.037  13.596  17.909
88385W        W89249  11.800  11.880  17.058
88386W        W89250  11.782  11.143  16.090
88387W        W89251  13.327  11.906  16.593
88388W        W89252  12.592  13.247  14.923
88389W        W89253  14.215  13.093  16.678
88390W        W89254  11.469  13.821  17.736
88391W        W89255  14.132  14.554  15.649
88392W        W89256  12.139  11.520  16.000
88393W        W89257  11.952  13.107  16.439
88394W        W89258  12.106  14.456  16.976
88395W        W89259  14.127  14.581  17.858
88396W        W89260  13.363  12.808  16.824
88397W        W89261  11.181  11.992  14.382
88398W        W89262  14.397  14.152  15.833
88399W        W89263  14.141  11.540  15.110
88400W        W89264  12.150  11.084  17.489
88401W        W89265  14.133  13.805  16.134
88402W        W89266  14.029  12.215  15.864
88403W        W89267  12.215  12.022  16.162
88404W        W89268  12.427  12.347  17.441
88405W        W89269  13.408  13.576  17.321
88406W        W89270  12.116  11.946  17.478
88407W        W89271  12.092  14.402  16.167
88408W        W89272  11.590  14.459  17.927
88409W        W89273  11.586  13.983  14.878
88410W        W89274  14.286  13.640  15.678
88411W        W89275  11.696  12.247  17.446
88412W        W89276  14.346  11.883  14.764
88413W        W89277  12.271  13.444  15.289
88414W        W89278  13.427  12.711  17.668
88415W        W89279  13.230  12.192  17.049
88416W        W89280  11.635  12.638  17.093
88417W        W89281  13.960  14.434  16.863
88418W        W89282  13.679  11.326  17.890
88419W        W89283  11.392  11.403  17.701
88420W        W89284  11.701  12.278  16.718
88421W        W89285  12.230  12.024  14.512
88422W        W89286  10.991  13.839  17.432
88423W        W89287  12.569  12.658  16.590
88424W        W89288  12.347  11.510  14.689
88425W        W89289  11.983  12.904  15.970
88426W        W89290  11.112  14.302  17.136
88427W        W89291  13.998  12.544  15.456
88428W        W89292  14.185  11.438  17.777
88429W        W89293  13.764  13.722  15.788
88430W        W89294  11.010  12.571  17.949
88431W        W89295  14.265  11.040  15.134
88432W        W89296  13.947  13.528  15.297
88433W        W89297  12.777  12.303  15.159
88434W        W89298  13.686  11.374  14.862
88435W        W89299  13.631  11.838  17.051
88436W        W89300  11.135  12.479  16.222
88437W        W89301  11.778  13.378  15.997
88438W        W89302  13.483  11.897  15.795
88439W        W89303  12.458  11.686  16.477
88440W        W89304  14.396  13.447  17.013
88441W        W89305  14.395  11.555  16.749
88442W        W89306  11.059  14.281  16.125
88443W        W89307  11.446  13.387  15.580
88444W        W89308  11.404  11.255  18.194
88445W        W89309  12.254  13.866  18.197
88446W        W89310  14.293  12.891  16.219
88447W        W89311  13.510  13.200  15.125
88448W        W89312  13.084  14.490  17.081
88449W        W89313  13.752  13.223  18.097
88450W        W89314  12.551  10.948  15.380
88451W        W89315  13.100  11.898  16.133
88452W        W89316  11.088  13.459  16.562
88453W        W89317  12.227  11.360  15.336
88454W        W89318  12.081  12.867  17.932
88455W        W89319  13.035  11.727  15.611
88456W        W89320  13.255  13.322  16.907
88457W        W89321  11.451  13.891  17.230
88458W        W89322  11.729  13.928  18.158
88459W        W89323  11.895  11.484  14.969
88460W        W89324  13.466  11.700  15.239
88461W        W89325  13.313  14.116  17.448
88462W        W89326  12.201  12.540  16.255
88463W        W89327  11.608  14.321  17.017
88464W        W89328  14.391  14.376  14.659
88465W        W89329  11.249  13.068  17.890
88466W        W89330  13.343  13.184  16.430
88467W        W89331  11.915  13.150  15.524
88468W        W89332  11.958  13.943  17.100
88469W        W89333  12.543  11.232  16.146
88470W        W89334  10.938  13.456  15.453
88471W        W89335  12.742  12.233  14.635
88472W        W89336  11.469  12.965  15.881
88473W        W89337  12.425  11.540  17.405
88474W        W89338  14.175  11.245  14.657
88475W        W89339  14.206  13.055  17.911
88476W        W89340  12.989  14.227  17.839
88477W        W89341  14.371  13.350  17.516
88478W        W89342  13.983  14.093  17.993
88479W        W89343  11.782  14.502  16.567
88480W        W89344  14.520  13.210  15.863
88481W        W89345  13.133  12.410  16.091
88482W        W89346  12.850  10.932  15.818
88483W        W89347  11.967  14.097  15.791
88484W        W89348  12.428  11.956  17.076
88485W        W89349  12.107  11.304  16.486
88486W        W89350  11.144  14.217  15.040
88487W        W89351  12.865  13.103  15.943
88488W        W89352  11.764  14.193  17.515
88489W        W89353  11.175  12.959  15.408
88490W        W89354  11.092  11.530  16.434
88491W        W89355  12.811  13.291  16.443
88492W        W89356  10.998  11.228  15.380
88493W        W89357  13.622  12.518  17.210
88494W        W89358  13.437  11.814  14.713
88495W        W89359  14.058  13.573  16.633
88496W        W89360  12.664  13.830  16.510
88497W        W89361  12.178  14.381  15.422
88498W        W89362  13.290  11.020  14.593
88499W        W89363  11.303  14.300  16.589
88500W        W89364  13.042  12.021  17.915
88501W        W89365  11.284  11.749  18.088
88502W        W89366  11.034  12.105  15.690
88503W        W89367  12.294  12.405  14.855
88504W        W89368  13.423  12.367  18.060
88505W        W89369  12.030  12.687  16.719
88506W        W89370  13.362  10.988  15.949
88507W        W89371  12.536  14.322  16.408
88508W        W89372  13.740  14.016  17.175
88509W        W89373  13.442  14.063  16.281
88510W        W89374  13.361  12.908  15.968
88511W        W89375  12.671  11.422  15.086
88512W        W89376  14.558  10.979  15.893
88513W        W89377  11.990  12.495  14.428
88514W        W89378  14.341  11.801  15.806
88515W        W89379  13.073  13.100  14.836
88516W        W89380  13.854  13.304  17.588
88517W        W89381  13.523  14.242  14.855
88518W        W89382  12.218  11.610  17.875
88519W        W89383  12.063  12.322  17.085
88520W        W89384  14.193  13.842  17.466
88521W        W89385  13.270  11.702  17.546
88522W        W89386  10.932  12.227  17.490
88523W        W89387  13.112  12.671  17.262
88524W        W89388  11.270  13.439  16.063
88525W        W89389  11.261  12.579  16.716
88526W        W89390  13.539  13.040  17.266
88527W        W89391  13.668  14.403  17.705
88528W        W89392  13.334  12.216  17.544
88529W        W89393  13.853  14.216  15.960
88530W        W89394  12.290  14.161  17.410
88531W        W89395  12.120  14.075  16.600
88532W        W89396  13.912  13.543  17.148
88533W        W89397  12.558  13.476  18.344
88534W        W89398  11.580  13.450  16.460
88535W        W89399  14.036  13.313  15.998
88536W        W89400  13.484  14.221  16.775
88537W        W89401  11.630  13.901  16.715
88538W        W89402  12.524  12.033  17.835
88539W        W89403  12.815  14.163  15.479
88540W        W89404  12.194  13.377  18.008
88541W        W89405  12.400  13.877  15.600
88542W        W89406  11.713  12.059  14.316
88543W        W89407  10.940  14.813  21.510
88544W        W89408  11.300  13.610  20.958
88545W        W89409  14.270  12.995  19.121
88546W        W89410  14.247  14.293  21.063
88547W        W89411  11.926  14.007  18.618
88548W        W89412  12.255  12.308  19.329
88549W        W89413  11.883  12.066  19.623
88550W        W89414  12.308  12.752  19.025
88551W        W89415  12.595  14.276  21.282
88552W        W89416  11.002  11.666  21.139
88553W        W89417  11.663  10.973  21.043
88554W        W89418  13.503  11.359  20.021
88555W        W89419  13.156  12.081  18.404
88556W        W89420  13.680  11.881  21.630
88557W        W89421  11.101  11.346  20.748
88558W        W89422  11.131  14.354  21.689
88559W        W89423  12.547  13.154  18.737
88560W        W89424  11.024  12.038  20.208
88561W        W89425  12.186  12.129  21.312
88562W        W89426  14.345  11.668  20.021
88563W        W89427  14.298  13.052  20.886
88564W        W89428  12.680  12.459  19.928
88565W        W89429  13.239  13.711  20.294
88566W        W89430  11.420  12.904  20.469
88567W        W89431  10.840  12.544  20.142
88568W        W89432  11.910  12.703  20.968
88569W        W89433  14.387  12.414  21.619
88570W        W89434  11.911  13.666  19.941
88571W        W89435  13.079  13.598  20.973
88572W        W89436  12.494  12.929  19.947
88573W        W89437  13.433  14.007  21.767
88574W        W89438  12.935  13.047  21.818
88575W        W89439  12.706  12.838  21.209
88576W        W89440  10.649  11.894  21.431
88577W        W89441  13.775  13.649  21.504
88578W        W89442  11.458  11.178  19.212
88579W        W89443  11.951  13.444  20.429
88580W        W89444  14.334  13.354  19.901
88581W        W89445  13.768  11.743  20.244
88582W        W89446  13.964  11.675  18.162
88583W        W89447  14.573  12.343  20.706
88584W        W89448  12.531  14.048  20.439
88585W        W89449  14.536  13.457  19.115
88586W        W89450  11.506  14.573  18.896
88587W        W89451  11.848  14.440  19.288
88588W        W89452  11.600  11.229  20.603
88589W        W89453  14.280  12.566  21.093
88590W        W89454  13.562  12.563  19.556
88591W        W89455  13.560  12.376  18.597
88592W        W89456  12.794  13.596  20.520
88593W        W89457  12.733  11.763  19.716
88594W        W89458  13.290  14.018  20.727
88595W        W89459  14.074  12.676  19.469
88596W        W89460  13.077  11.423  19.028
88597W        W89461  11.597  14.088  19.016
88598W        W89462  11.138  11.520  19.429
88599W        W89463  13.601  12.154  19.963
88600W        W89464  11.376  13.741  19.932
88601W        W89465  12.440  14.119  18.599
88602W        W89466  13.901  12.191  18.184
88603W        W89467  11.161  13.862  20.403
88604W        W89468  11.809  13.668  20.863
88605W        W89469  12.131  13.014  19.447
88606W        W89470  12.071  11.491  20.467
88607W        W89471  14.519  11.150  20.061
88608W        W89472  11.685  13.033  18.219
88609W        W89473  11.383  11.797  18.597
88610W        W89474  11.437  13.752  19.423
88611W        W89475  12.386  13.379  19.721
88612W        W89476  13.869  14.129  21.387
88613W        W89477  12.890  11.912  18.821
88614W        W89478  14.230  14.574  19.855
88615W        W89479  13.952  12.269  21.392
88616W        W89480  14.536  13.702  19.566
88617W        W89481  13.189  13.096  20.945
88618W        W89482  11.005  12.356  19.280
88619W        W89483  11.963  12.951  20.531
88620W        W89484  13.137  12.310  19.151
88621W        W89485  13.060  12.682  19.493
88622W        W89486  11.335  12.120  20.671
88623W        W89487  11.383  12.052  21.199
88624W        W89488  11.427  11.121  19.758
88625W        W89489  13.219  11.465  20.453
88626W        W89490  12.835  11.604  21.474
88627W        W89491  13.199  11.599  18.565
88628W        W89492  14.330  14.104  21.575
88629W        W89493  13.230  11.096  21.279
88630W        W89494  14.267  13.552  21.638
88631W        W89495  13.847  11.675  21.183
88632W        W89496  13.424  11.512  19.435
88633W        W89497  13.941  12.659  21.802
88634W        W89498  11.663  14.161  19.875
88635W        W89499  12.396  11.860  18.706
88636W        W89500  11.792  11.254  21.446
88637W        W89501  13.861  11.849  19.186
88638W        W89502  14.221  12.283  19.169
88639W        W89503  12.123  14.361  21.482
88640W        W89504  11.944  11.088  18.900
88641W        W89505  14.209  11.342  19.656
88642W        W89506  14.415  13.874  18.222
88643W        W89507  11.227  12.887  19.959
88644W        W89508  13.227  11.555  18.063
88645W        W89509  14.478  13.938  20.022
88646W        W89510  14.292  11.056  20.708
88647W        W89511  13.045  12.318  21.190
88648W        W89512  12.543  13.207  19.235
88649W        W89513  13.473  12.919  21.810
88650W        W89514  13.186  10.994  20.231
88651W        W89515  11.532  11.979  20.042
88652W        W89516  11.149  13.093  20.854
88653W        W89517  13.012  14.285  19.763
88654W        W89518  14.201  11.887  20.519
88655W        W89519  13.075  14.336  21.090
88656W        W89520  14.094  12.982  18.424
88657W        W89521  12.552  12.720  19.479
88658W        W89522  14.457  11.017  21.190
88659W        W89523  12.679  13.241  20.883
88660W        W89524  12.822  12.010  20.147
88661W        W89525  13.689  12.329  19.115
88662W        W89526  13.992  12.111  18.737
88663W        W89527  14.216  13.862  19.187
88664W        W89528  13.762  13.446  20.094
88665W        W89529  13.386  12.740  19.029
88666W        W89530  12.993  12.845  19.997
88667W        W89531  13.962  12.575  19.973
88668W        W89532  11.314  11.674  20.428
88669W        W89533  13.866  12.772  21.313
88670W        W89534  14.449  14.350  20.344
88671W        W89535  12.344  13.893  19.742
88672W        W89536  13.583  14.401  20.984
88673W        W89537  13.182  11.834  20.856
88674W        W89538  12.715  14.454  20.738
88675W        W89539  14.067  11.386  19.158
88676W        W89540  14.151  12.656  20.575
88677W        W89541  10.886  11.844  20.665
88678W        W89542  13.815  11.701  19.730
88679W        W89543  14.177  12.027  21.001
88680W        W89544  13.183  13.540  19.806
88681W        W89545  12.567  14.263  19.461
88682W        W89546  11.511  11.292  18.696
88683W        W89547  12.743  11.187  20.433
88684W        W89548  11.588  14.374  18.432
88685W        W89549  11.841  12.775  18.775
88686W        W89550  12.907  13.283  21.351
88687W        W89551  12.690  11.403  19.354
88688W        W89552  13.755  11.138  19.608
88689W        W89553  13.758  14.658  20.066
88690W        W89554  12.997  14.229  20.312
88691W        W89555  12.423  13.176  20.431
88692W        W89556  14.248  13.971  20.660
88693W        W89557  11.926  11.410  19.284
88694W        W89558  12.366  13.626  20.188
88695W        W89559  11.779  11.626  18.260
88696W        W89560  12.769  12.196  20.631
88697W        W89561  13.619  11.090  20.496
88698W        W89562  10.891  12.983  20.403
88699W        W89563  12.505  12.683  18.541
88700W        W89564  11.892  11.139  18.380
88701W        W89565  12.748  12.237  19.479
88702W        W89566  13.483  11.390  20.902
88703W        W89567  12.154  13.244  20.938
88704W        W89568  13.135  12.779  21.447
88705W        W89569  13.509  13.129  21.351
88706W        W89570  12.830  11.204  21.798
88707W        W89571  12.011  11.760  20.025
88708W        W89572  11.620  11.613  19.642
88709W        W89573  11.380  14.268  19.451
88710W        W89574  12.908  13.863  21.398
88711W        W89575  11.605  13.233  18.692
88712W        W89576  13.470  12.675  20.048
88713W        W89577  13.724  12.375  20.404
88714W        W89578  12.944  13.064  20.479
88715W        W89579  12.993  13.333  18.094
88716W        W89580  12.943  11.362  19.973
88717W        W89581  14.373  11.790  19.008
88718W        W89582  11.243  14.326  21.184
88719W        W89583  11.435  13.429  20.517
88720W        W89584  11.055  14.451  19.101
88721W        W89585  12.759  11.689  20.556
88722W        W89586  12.281  13.647  18.762
88723W        W89587  14.458  13.746  18.714
88724W        W89588  13.044  12.494  18.678
88725W        W89589  12.519  11.868  19.204
88726W        W89590  12.750  11.749  18.269
88727W        W89591  13.281  13.544  21.566
88728W        W89592  13.588  11.463  18.919
88729W        W89593  11.076  11.047  18.544
88730W        W89594  12.324  13.667  20.718
88731W        W89595  12.055  13.147  20.022
88732W        W89596  11.913  13.521  18.415
88733W        W89597  11.101  13.928  19.089
88734W        W89598  11.704  12.475  21.372
88735W        W89599  12.307  11.245  21.692
88736W        W89600  12.933  11.411  20.986
88737W        W89601  12.298  11.044  19.319
88738W        W89602  13.230  11.097  18.666
88739W        W89603  11.218  11.147  20.255
88740W        W89604  11.275  12.002  19.573
88741W        W89605  14.006  11.267  20.144
88742W        W89606  11.519  11.675  19.100
88743W        W89607  13.938  11.456  20.641
88744W        W89608  14.221  12.484  18.432
88745W        W89609  11.639  11.446  20.137
88746W        W89610  12.684  11.869  21.039
88747W        W89611  10.968  11.529  18.440
88748W        W89612  11.650  13.163  20.903
88749W        W89613  13.080  12.448  20.307
88750W        W89614  12.881  14.407  18.501
88751W        W89615  11.258  12.785  18.367
88752W        W89616  12.014  13.554  21.325
88753W        W89617  11.396  12.547  20.943
88754W        W89618  12.391  12.813  20.819
88755W        W89619  13.919  11.165  21.101
88756W        W89620  14.685  12.863  21.190
88757W        W89621  14.489  12.626  18.849
88758W        W89622  12.835  12.811  19.031
88759W        W89623  13.773  14.532  18.221
88760W        W89624  13.140  12.541  21.905
88761W        W89625  11.519  13.411  21.365
88762W        W89626  14.615  11.516  21.773
88763W        W89627  14.103  12.104  20.070
88764W        W89628  12.532  14.373  21.800
88765W        W89629  12.355  11.031  18.587
88766W        W89630  14.532  13.360  18.182
88767W        W89631  11.833  11.783  21.252
88768W        W89632  12.517  13.607  21.193
88769W        W89633  14.304  11.511  20.976
88770W        W89634  14.264  14.223  18.787
88771W        W89635  13.819  12.977  20.315
88772W        W89636  11.940  11.400  20.957
88773W        W89637  12.681  12.601  21.666
88774W        W89638  11.799  13.624  19.028
88775W        W89639  13.760  13.030  19.273
88776W        W89640  11.486  11.648  20.906
88777W        W89641  12.753  13.669  19.514
88778W        W89642  14.390  12.330  19.714
88779W        W89643  12.700  11.077  21.314
88780W        W89644  13.727  13.814  20.443
88781W        W89645  14.011  14.145  20.158
88782W        W89646  12.840  13.898  18.222
88783W        W89647  11.069  13.859  21.371
88784W        W89648  11.792  11.924  20.499
88785W        W89649  11.972  11.266  19.804
88786W        W89650  13.303  11.969  20.351
88787W        W89651  12.146  13.055  18.438
88788W        W89652  14.336  13.107  20.357
88789W        W89653  11.600  13.918  21.270
88790W        W89654  14.143  14.596  19.330
88791W        W89655  12.254  11.646  19.588
88792W        W89656  11.694  12.948  19.680
88793W        W89657  12.293  14.504  20.427
88794W        W89658  14.115  14.568  21.503
88795W        W89659  13.391  12.799  20.553
88796W        W89660  11.205  12.264  18.308
88797W        W89661  14.419  14.203  19.531
88798W        W89662  14.027  11.582  18.670
88799W        W89663  12.200  11.035  21.208
88800W        W89664  14.054  13.781  19.776
88801W        W89665  13.922  12.199  19.579
88802W        W89666  12.355  12.094  19.835
88803W        W89667  12.551  12.376  21.057
88804W        W89668  13.580  13.523  21.051
88805W        W89669  12.194  11.853  20.854
88806W        W89670  12.124  14.360  19.711
88807W        W89671  11.624  14.353  21.580
88808W        W89672  11.461  13.746  18.652
88809W        W89673  14.126  13.388  19.431
88810W        W89674  11.805  12.187  20.950
88811W        W89675  14.343  11.944  18.379
88812W        W89676  12.082  13.209  18.955
88813W        W89677  13.430  12.662  21.069
88814W        W89678  13.325  12.305  20.735
88815W        W89679  11.721  12.470  20.547
88816W        W89680  13.958  14.405  20.616
88817W        W89681  13.737  11.347  21.594
88818W        W89682  11.231  11.173  21.236
88819W        W89683  11.959  12.267  20.131
88820W        W89684  12.197  12.011  18.244
88821W        W89685  10.982  13.987  20.870
88822W        W89686  12.607  12.662  20.390
88823W        W89687  12.285  11.496  18.375
88824W        W89688  11.828  12.609  19.299
88825W        W89689  11.132  14.480  20.697
88826W        W89690  13.965  12.667  18.860
88827W        W89691  14.234  11.398  21.463
88828W        W89692  13.653  13.486  19.594
88829W        W89693  11.170  12.443  21.445
88830W        W89694  14.253  11.066  18.776
88831W        W89695  14.057  13.412  18.916
88832W        W89696  12.637  12.336  18.969
88833W        W89697  13.625  11.366  18.401
88834W        W89698  13.699  11.919  20.729
88835W        W89699  11.557  12.438  19.757
88836W        W89700  11.830  13.422  19.515
88837W        W89701  13.458  12.039  19.471
88838W        W89702  12.486  11.562  20.129
88839W        W89703  14.520  13.505  20.724
88840W        W89704  14.502  11.471  20.471
88841W        W89705  11.141  14.240  19.902
88842W        W89706  11.288  13.433  19.048
88843W        W89707  11.356  11.189  21.775
88844W        W89708  12.854  13.943  21.914
88845W        W89709  14.388  12.836  19.863
88846W        W89710  13.603  12.891  18.562
88847W        W89711  13.216  14.568  20.635
88848W        W89712  13.893  13.191  21.732
88849W        W89713  12.704  11.009  18.982
88850W        W89714  13.241  11.779  19.864
88851W        W89715  11.083  13.381  20.146
88852W        W89716  12.353  11.412  18.962
88853W        W89717  12.388  13.172  21.420
88854W        W89718  13.028  11.833  19.315
88855W        W89719  13.500  13.352  20.587
88856W        W89720  11.486  14.079  20.775
88857W        W89721  12.416  13.907  21.591
88858W        W89722  11.922  11.599  18.756
88859W        W89723  13.399  11.937  18.930
88860W        W89724  13.395  13.962  21.248
88861W        W89725  12.104  12.587  19.748
88862W        W89726  11.803  14.541  20.626
88863W        W89727  14.331  14.366  18.294
88864W        W89728  11.379  12.914  21.290
88865W        W89729  13.329  13.182  20.152
88866W        W89730  11.640  13.084  19.188
88867W        W89731  12.031  14.092  20.655
88868W        W89732  12.478  11.208  19.772
88869W        W89733  11.095  13.246  18.573
88870W        W89734  12.649  12.215  18.438
88871W        W89735  11.309  12.748  19.425
88872W        W89736  12.440  11.383  20.836
88873W        W89737  14.178  11.239  18.286
88874W        W89738  14.302  12.950  21.521
88875W        W89739  13.007  14.332  21.604
88876W        W89740  14.558  13.379  21.227
88877W        W89741  13.957  13.943  21.894
88878W        W89742  11.859  14.558  20.128
88879W        W89743  14.568  13.143  19.506
88880W        W89744  13.146  12.293  19.810
88881W        W89745  12.796  10.913  19.508
88882W        W89746  11.897  13.947  19.477
88883W        W89747  12.339  11.977  20.369
88884W        W89748  12.273  11.092  20.224
88885W        W89749  11.184  14.175  18.664
88886W        W89750  12.869  13.151  19.611
88887W        W89751  12.169  13.993  21.130
88888W        W89752  11.263  12.877  18.897
88889W        W89753  11.192  11.602  19.936
88890W        W89754  12.790  13.338  20.076
88891W        W89755  11.075  11.399  18.935
88892W        W89756  13.829  12.406  20.903
88893W        W89757  13.618  11.873  18.470
88894W        W89758  14.194  13.624  20.302
88895W        W89759  12.800  13.853  20.014
88896W        W89760  12.161  14.087  19.068
88897W        W89761  13.286  11.041  18.161
88898W        W89762  11.426  14.313  20.311
88899W        W89763  13.168  12.027  21.620
88900W        W89764  11.413  11.599  21.458
88901W        W89765  11.064  11.906  19.026
88902W        W89766  12.171  12.326  18.752
88903W        W89767  13.511  12.440  21.571
88904W        W89768  11.756  12.740  20.121
88905W        W89769  13.258  11.023  19.717
88906W        W89770  12.555  14.325  20.002
88907W        W89771  13.804  13.960  20.912
88908W        W89772  13.570  13.913  19.943
88909W        W89773  13.389  13.042  19.667
88910W        W89774  12.741  11.383  18.628
88911W        W89775  14.589  11.018  19.556
88912W        W89776  12.009  12.545  18.315
88913W        W89777  14.277  11.844  19.524
88914W        W89778  12.948  12.962  18.476
88915W        W89779  14.012  13.279  21.238
88916W        W89780  14.092  13.500  18.412
88917W        W89781  12.320  11.589  21.305
88918W        W89782  12.212  12.359  20.669
88919W        W89783  14.193  13.762  21.171
88920W        W89784  13.336  11.612  21.340
88921W        W89785  10.921  12.188  21.044
88922W        W89786  12.942  12.655  20.797
88923W        W89787  11.312  13.284  19.609
88924W        W89788  11.336  12.441  20.226
88925W        W89789  13.773  12.997  20.855
88926W        W89790  13.495  14.435  21.483
88927W        W89791  13.508  12.090  21.182
88928W        W89792  13.863  14.274  19.669
88929W        W89793  12.740  13.966  20.898
88930W        W89794  12.104  14.096  20.152
88931W        W89795  13.998  13.475  20.751
88932W        W89796  13.105  13.486  22.057
88933W        W89797  11.575  13.270  20.062
88934W        W89798  13.904  13.055  19.787
88935W        W89799  13.521  14.276  20.330
88936W        W89800  11.676  13.866  20.347
88937W        W89801  12.674  12.107  21.494
88938W        W89802  12.640  13.923  19.057
88939W        W89803  12.664  13.485  21.765
88940W        W89804  12.256  13.625  19.286
88941W        W89805  11.687  12.140  18.198
88942W        W89806  11.170  14.606  25.311
88943W        W89807  11.492  13.495  24.833
88944W        W89808  14.228  13.021  22.866
88945W        W89809  14.478  14.215  24.672
88946W        W89810  12.110  14.264  22.081
88947W        W89811  12.404  12.419  23.171
88948W        W89812  11.823  12.188  23.662
88949W        W89813  12.922  12.907  22.672
88950W        W89814  12.533  14.211  24.880
88951W        W89815  10.984  11.617  24.945
88952W        W89816  11.643  10.951  24.754
88953W        W89817  13.489  11.474  23.640
88954W        W89818  13.268  12.095  22.118
88955W        W89819  13.670  11.900  25.184
88956W        W89820  11.105  11.337  24.519
88957W        W89821  11.308  14.107  25.418
88958W        W89822  12.744  13.212  22.290
88959W        W89823  10.780  11.980  24.070
88960W        W89824  12.138  12.193  25.185
88961W        W89825  14.292  11.893  23.735
88962W        W89826  14.207  13.059  24.523
88963W        W89827  12.645  12.516  23.630
88964W        W89828  13.250  13.765  23.970
88965W        W89829  11.510  13.025  24.143
88966W        W89830  10.674  12.673  24.048
88967W        W89831  12.078  12.644  24.961
88968W        W89832  14.232  12.444  25.140
88969W        W89833  11.802  13.948  23.632
88970W        W89834  13.064  13.710  24.734
88971W        W89835  12.202  12.069  24.050
88972W        W89836  12.435  13.008  23.820
88973W        W89837  13.205  13.871  25.553
88974W        W89838  12.630  13.014  25.527
88975W        W89839  12.573  12.897  25.015
88976W        W89840  10.936  11.975  25.323
88977W        W89841  13.829  13.764  25.196
88978W        W89842  11.321  11.090  23.139
88979W        W89843  12.006  13.733  24.225
88980W        W89844  14.360  13.427  23.601
88981W        W89845  13.812  11.776  23.953
88982W        W89846  14.077  11.633  21.896
88983W        W89847  14.589  12.460  24.411
88984W        W89848  12.578  14.345  24.055
88985W        W89849  14.401  13.608  22.864
88986W        W89850  11.126  14.651  22.561
88987W        W89851  11.973  14.450  23.002
88988W        W89852  11.580  11.208  24.318
88989W        W89853  14.116  12.376  24.613
88990W        W89854  13.589  12.615  23.357
88991W        W89855  13.592  12.561  22.177
88992W        W89856  12.893  13.535  24.277
88993W        W89857  12.714  11.768  23.401
88994W        W89858  13.322  14.041  24.430
88995W        W89859  14.085  12.711  23.228
88996W        W89860  13.188  11.312  22.813
88997W        W89861  11.478  14.351  22.844
88998W        W89862  11.015  11.496  23.096
88999W        W89863  13.617  12.185  23.676
89000W        W89864  11.255  14.006  23.653
89001W        W89865  12.614  14.223  22.290
89002W        W89866  13.998  12.158  21.903
89003W        W89867  11.074  14.023  24.212
89004W        W89868  11.992  13.706  24.737
89005W        W89869  12.368  12.913  23.334
89006W        W89870  12.005  11.466  24.117
89007W        W89871  14.474  11.103  23.877
89008W        W89872  11.890  13.041  21.357
89009W        W89873  11.521  11.634  21.973
89010W        W89874  11.521  13.854  23.203
89011W        W89875  12.327  13.490  23.295
89012W        W89876  14.046  14.225  24.959
89013W        W89877  12.923  12.035  22.503
89014W        W89878  14.165  14.433  23.488
89015W        W89879  13.746  12.383  25.041
89016W        W89880  14.596  13.815  23.329
89017W        W89881  13.181  13.197  24.739
89018W        W89882  10.486  12.548  23.191
89019W        W89883  11.838  13.286  24.458
89020W        W89884  13.229  12.519  22.952
89021W        W89885  13.220  13.064  23.050
89022W        W89886  11.442  12.122  24.409
89023W        W89887  11.310  12.039  24.918
89024W        W89888  11.389  10.924  23.616
89025W        W89889  12.987  11.573  23.831
89026W        W89890  12.799  11.607  25.122
89027W        W89891  13.272  11.672  22.423
89028W        W89892  14.485  14.071  25.192
89029W        W89893  13.235  11.257  25.094
89030W        W89894  14.258  13.537  25.356
89031W        W89895  13.776  11.571  24.815
89032W        W89896  13.535  11.588  23.092
89033W        W89897  13.867  12.771  25.438
89034W        W89898  11.568  14.360  23.378
89035W        W89899  12.469  11.869  22.322
89036W        W89900  11.811  11.273  25.132
89037W        W89901  13.906  11.971  22.879
89038W        W89902  14.249  12.363  22.865
89039W        W89903  12.166  14.394  25.280
89040W        W89904  11.958  11.144  22.488
89041W        W89905  14.279  11.431  23.485
89042W        W89906  14.469  13.850  22.022
89043W        W89907  11.084  13.114  23.811
89044W        W89908  13.347  11.579  21.878
89045W        W89909  14.440  13.901  23.838
89046W        W89910  14.338  11.079  24.397
89047W        W89911  12.896  12.525  25.163
89048W        W89912  12.897  13.425  22.809
89049W        W89913  13.388  13.013  25.588
89050W        W89914  13.077  11.063  23.767
89051W        W89915  11.664  11.857  24.034
89052W        W89916  11.363  13.031  24.652
89053W        W89917  13.171  14.309  23.497
89054W        W89918  14.020  11.873  24.414
89055W        W89919  13.048  14.277  24.818
89056W        W89920  14.217  12.982  22.089
89057W        W89921  12.830  12.736  23.185
89058W        W89922  14.508  11.067  24.894
89059W        W89923  12.697  13.184  24.602
89060W        W89924  12.755  12.057  23.855
89061W        W89925  13.749  12.476  22.883
89062W        W89926  13.915  12.245  22.432
89063W        W89927  13.935  13.825  22.908
89064W        W89928  13.657  13.525  23.696
89065W        W89929  13.484  12.829  22.630
89066W        W89930  12.966  12.917  23.662
89067W        W89931  13.997  12.568  23.720
89068W        W89932  11.194  11.631  24.099
89069W        W89933  13.984  12.802  24.896
89070W        W89934  14.489  14.354  24.092
89071W        W89935  12.349  13.928  23.575
89072W        W89936  13.559  14.388  24.744
89073W        W89937  13.472  11.702  24.346
89074W        W89938  12.686  14.549  24.523
89075W        W89939  14.092  11.511  22.991
89076W        W89940  13.979  12.710  24.214
89077W        W89941  11.002  11.882  24.520
89078W        W89942  13.872  11.756  23.434
89079W        W89943  14.111  11.968  24.921
89080W        W89944  13.159  13.533  23.507
89081W        W89945  12.457  14.201  23.106
89082W        W89946  11.470  11.218  22.308
89083W        W89947  12.698  11.291  24.161
89084W        W89948  11.493  14.466  22.082
89085W        W89949  12.412  12.872  22.515
89086W        W89950  12.765  13.414  25.035
89087W        W89951  12.688  11.397  23.021
89088W        W89952  13.831  11.235  23.328
89089W        W89953  13.662  14.549  23.595
89090W        W89954  13.084  14.248  24.014
89091W        W89955  12.352  13.324  24.259
89092W        W89956  14.217  13.934  24.329
89093W        W89957  11.908  11.231  22.991
89094W        W89958  12.495  13.814  24.076
89095W        W89959  11.974  11.655  21.716
89096W        W89960  12.638  12.184  24.357
89097W        W89961  13.457  11.235  24.090
89098W        W89962  11.002  13.020  24.302
89099W        W89963  12.752  12.696  22.186
89100W        W89964  11.847  11.214  21.954
89101W        W89965  12.885  12.213  23.207
89102W        W89966  13.435  11.239  24.613
89103W        W89967  12.265  13.296  24.877
89104W        W89968  13.045  13.016  25.214
89105W        W89969  13.560  13.028  25.086
89106W        W89970  12.783  11.289  25.547
89107W        W89971  11.964  11.691  23.653
89108W        W89972  11.555  11.502  23.323
89109W        W89973  11.114  14.157  23.156
89110W        W89974  12.839  13.908  25.177
89111W        W89975  12.304  13.422  22.439
89112W        W89976  13.507  12.695  23.887
89113W        W89977  13.685  12.237  24.188
89114W        W89978  12.818  13.021  24.146
89115W        W89979  13.608  13.549  21.985
89116W        W89980  13.092  11.429  23.328
89117W        W89981  14.499  11.744  22.763
89118W        W89982  11.314  14.295  24.877
89119W        W89983  11.330  13.495  24.325
89120W        W89984  10.779  14.426  22.866
89121W        W89985  12.942  11.761  24.315
89122W        W89986  12.365  13.815  22.090
89123W        W89987  14.309  13.988  22.515
89124W        W89988  13.148  12.491  22.435
89125W        W89989  12.582  11.908  22.897
89126W        W89990  12.893  11.691  22.062
89127W        W89991  13.340  13.454  25.286
89128W        W89992  13.726  11.581  22.611
89129W        W89993  11.085  10.920  22.155
89130W        W89994  12.519  13.691  24.648
89131W        W89995  12.200  13.483  23.794
89132W        W89996  12.150  13.447  21.803
89133W        W89997  11.080  13.661  22.991
89134W        W89998  11.575  12.659  25.104
89135W        W89999  12.312  11.209  25.306
89136W        W90000  12.931  11.370  24.656
89137W        W90001  12.346  11.039  23.185
89138W        W90002  13.096  11.235  22.242
89139W        W90003  11.151  11.104  24.048
89140W        W90004  10.893  11.824  23.569
89141W        W90005  13.951  11.285  23.847
89142W        W90006  11.476  11.429  22.786
89143W        W90007  13.886  11.374  24.345
89144W        W90008  14.304  12.474  22.148
89145W        W90009  11.565  11.379  23.830
89146W        W90010  12.845  11.985  24.776
89147W        W90011  11.037  11.468  22.117
89148W        W90012  11.795  13.084  24.934
89149W        W90013  12.985  12.516  24.056
89150W        W90014  12.931  14.631  22.286
89151W        W90015  10.643  12.393  21.905
89152W        W90016  11.900  13.500  25.208
89153W        W90017  11.296  12.515  24.699
89154W        W90018  12.294  12.875  24.566
89155W        W90019  13.956  11.089  24.771
89156W        W90020  14.521  12.763  24.830
89157W        W90021  14.498  12.722  22.554
89158W        W90022  13.384  13.330  22.604
89159W        W90023  13.800  14.450  21.912
89160W        W90024  12.999  12.667  25.642
89161W        W90025  11.481  13.602  25.515
89162W        W90026  14.622  11.275  25.351
89163W        W90027  14.191  12.239  24.105
89164W        W90028  12.638  14.329  25.436
89165W        W90029  12.220  10.915  22.122
89166W        W90030  14.098  13.484  22.135
89167W        W90031  11.854  11.781  24.987
89168W        W90032  12.275  13.870  25.136
89169W        W90033  14.264  11.510  24.676
89170W        W90034  13.928  14.355  22.464
89171W        W90035  13.740  13.162  24.074
89172W        W90036  11.945  11.398  24.637
89173W        W90037  12.450  12.546  25.422
89174W        W90038  11.976  13.518  22.885
89175W        W90039  13.732  13.016  23.034
89176W        W90040  11.488  11.645  24.634
89177W        W90041  12.763  13.773  23.225
89178W        W90042  14.421  12.365  23.481
89179W        W90043  12.744  11.104  25.071
89180W        W90044  13.717  13.872  24.154
89181W        W90045  14.023  14.208  23.918
89182W        W90046  12.761  13.720  22.398
89183W        W90047  11.104  13.640  25.164
89184W        W90048  11.929  11.894  24.466
89185W        W90049  11.936  11.198  23.506
89186W        W90050  13.246  12.043  24.005
89187W        W90051  12.430  13.013  21.918
89188W        W90052  14.267  13.094  23.995
89189W        W90053  11.633  13.921  25.082
89190W        W90054  14.064  14.581  22.929
89191W        W90055  12.263  11.549  23.264
89192W        W90056  11.950  13.043  23.645
89193W        W90057  12.206  14.619  24.312
89194W        W90058  14.259  14.570  25.277
89195W        W90059  13.277  12.868  24.329
89196W        W90060  11.105  11.960  21.652
89197W        W90061  14.310  14.147  23.075
89198W        W90062  14.146  11.789  22.399
89199W        W90063  12.159  10.970  24.851
89200W        W90064  14.061  13.856  23.482
89201W        W90065  13.956  12.241  23.308
89202W        W90066  12.328  12.076  23.549
89203W        W90067  12.517  12.405  24.852
89204W        W90068  13.564  13.513  24.843
89205W        W90069  12.327  11.939  24.786
89206W        W90070  12.097  14.368  23.492
89207W        W90071  11.664  14.443  25.219
89208W        W90072  11.919  13.929  21.692
89209W        W90073  14.053  13.399  23.189
89210W        W90074  11.764  12.263  24.802
89211W        W90075  14.463  11.957  22.031
89212W        W90076  12.442  13.200  22.898
89213W        W90077  13.241  12.696  24.834
89214W        W90078  13.186  12.274  24.485
89215W        W90079  11.764  12.727  24.547
89216W        W90080  13.988  14.381  24.436
89217W        W90081  13.706  11.406  25.341
89218W        W90082  11.297  11.212  25.009
89219W        W90083  11.793  12.404  24.137
89220W        W90084  12.460  11.748  21.807
89221W        W90085  11.091  13.830  24.687
89222W        W90086  12.481  12.620  24.154
89223W        W90087  12.489  11.353  22.178
89224W        W90088  11.919  12.607  23.334
89225W        W90089  11.286  14.572  24.447
89226W        W90090  13.983  12.751  22.502
89227W        W90091  14.187  11.529  25.180
89228W        W90092  13.543  13.483  23.150
89229W        W90093  11.061  12.628  25.198
89230W        W90094  14.149  11.291  22.524
89231W        W90095  13.922  13.367  22.644
89232W        W90096  12.727  12.439  22.754
89233W        W90097  13.737  11.317  22.142
89234W        W90098  13.630  12.057  24.678
89235W        W90099  11.077  12.618  23.676
89236W        W90100  11.833  13.492  23.410
89237W        W90101  13.482  12.118  23.155
89238W        W90102  12.443  11.634  23.838
89239W        W90103  14.463  13.496  24.437
89240W        W90104  14.345  11.546  24.137
89241W        W90105  11.031  14.456  23.564
89242W        W90106  11.461  13.331  23.082
89243W        W90107  11.429  11.207  25.518
89244W        W90108  12.522  13.856  25.615
89245W        W90109  14.429  12.908  23.533
89246W        W90110  13.719  13.102  22.232
89247W        W90111  13.188  14.572  24.394
89248W        W90112  13.816  13.285  25.468
89249W        W90113  12.461  11.042  22.635
89250W        W90114  13.200  11.904  23.507
89251W        W90115  10.971  13.610  23.896
89252W        W90116  12.280  11.517  22.701
89253W        W90117  12.156  13.004  25.304
89254W        W90118  13.089  11.807  22.948
89255W        W90119  13.419  13.491  24.365
89256W        W90120  11.572  13.944  24.570
89257W        W90121  11.929  13.948  25.507
89258W        W90122  12.031  11.598  22.231
89259W        W90123  13.449  12.108  22.633
89260W        W90124  13.383  13.966  25.050
89261W        W90125  12.158  12.556  23.776
89262W        W90126  11.763  14.352  24.332
89263W        W90127  14.279  14.331  22.077
89264W        W90128  11.265  13.125  25.152
89265W        W90129  13.236  13.249  23.952
89266W        W90130  11.929  13.076  23.124
89267W        W90131  12.284  14.120  24.444
89268W        W90132  12.652  11.270  23.540
89269W        W90133  10.898  13.195  22.831
89270W        W90134  12.769  12.189  22.007
89271W        W90135  11.460  12.998  23.478
89272W        W90136  12.424  11.425  24.816
89273W        W90137  14.248  11.166  22.012
89274W        W90138  14.323  12.978  25.270
89275W        W90139  13.135  14.327  25.345
89276W        W90140  14.542  13.292  24.899
89277W        W90141  14.058  14.123  25.476
89278W        W90142  11.848  14.659  23.902
89279W        W90143  14.554  13.239  23.175
89280W        W90144  13.162  12.427  23.577
89281W        W90145  12.867  10.944  23.205
89282W        W90146  12.028  13.943  23.165
89283W        W90147  12.417  11.686  24.355
89284W        W90148  12.301  11.112  23.862
89285W        W90149  10.944  14.287  22.209
89286W        W90150  12.783  13.242  23.297
89287W        W90151  11.969  14.222  24.832
89288W        W90152  10.951  12.773  23.179
89289W        W90153  11.101  11.345  23.590
89290W        W90154  12.734  13.422  23.793
89291W        W90155  11.011  11.287  22.597
89292W        W90156  13.639  12.565  24.568
89293W        W90157  13.694  11.842  22.169
89294W        W90158  14.083  13.568  23.989
89295W        W90159  12.844  13.923  23.708
89296W        W90160  12.232  14.189  22.630
89297W        W90161  13.348  11.066  21.809
89298W        W90162  11.405  14.401  23.950
89299W        W90163  13.096  12.176  25.514
89300W        W90164  11.411  11.657  25.251
89301W        W90165  10.853  12.199  23.180
89302W        W90166  12.288  12.261  21.803
89303W        W90167  13.384  12.586  25.316
89304W        W90168  12.025  12.911  24.135
89305W        W90169  13.379  11.031  23.228
89306W        W90170  12.641  14.369  23.550
89307W        W90171  13.774  13.934  24.659
89308W        W90172  13.585  14.043  23.680
89309W        W90173  13.439  13.084  23.510
89310W        W90174  12.791  11.535  22.552
89311W        W90175  14.568  11.051  23.279
89312W        W90176  12.241  12.651  21.373
89313W        W90177  14.324  11.909  23.222
89314W        W90178  13.205  12.977  22.240
89315W        W90179  14.012  13.301  24.964
89316W        W90180  13.818  13.833  22.391
89317W        W90181  12.302  11.711  25.251
89318W        W90182  12.163  12.370  24.490
89319W        W90183  14.238  13.751  24.844
89320W        W90184  13.278  11.705  24.844
89321W        W90185  10.850  12.260  24.884
89322W        W90186  12.819  12.677  24.544
89323W        W90187  11.341  13.512  23.558
89324W        W90188  11.286  12.574  24.170
89325W        W90189  13.676  13.075  24.583
89326W        W90190  13.650  14.376  25.248
89327W        W90191  13.257  12.187  25.016
89328W        W90192  13.788  14.218  23.213
89329W        W90193  12.809  14.050  24.417
89330W        W90194  12.097  14.189  23.972
89331W        W90195  13.941  13.496  24.471
89332W        W90196  12.886  13.462  25.518
89333W        W90197  11.704  13.438  23.921
89334W        W90198  13.942  13.079  23.585
89335W        W90199  13.580  14.401  24.103
89336W        W90200  11.551  13.914  24.067
89337W        W90201  12.649  12.090  25.244
89338W        W90202  12.816  14.101  22.762
89339W        W90203  12.385  13.438  25.376
89340W        W90204  12.440  13.740  22.831
89341W        W90205  11.632  12.043  21.652
89342W        W90206  11.184  14.497  28.833
89343W        W90207  11.583  13.395  28.499
89344W        W90208  14.108  12.893  26.313
89345W        W90209  14.382  14.211  28.203
89346W        W90210  12.223  14.257  25.801
89347W        W90211  12.217  12.439  26.671
89348W        W90212  11.645  12.084  26.787
89349W        W90213  12.784  12.972  26.348
89350W        W90214  12.502  14.210  28.508
89351W        W90215  11.190  11.727  28.530
89352W        W90216  11.742  11.138  28.300
89353W        W90217  13.548  11.361  27.305
89354W        W90218  13.282  12.171  26.032
89355W        W90219  13.847  11.600  28.916
89356W        W90220  11.292  11.380  28.145
89357W        W90221  11.260  13.951  28.891
89358W        W90222  12.504  13.385  25.883
89359W        W90223  11.227  12.123  27.558
89360W        W90224  12.150  12.254  28.814
89361W        W90225  14.322  11.987  27.284
89362W        W90226  14.211  12.944  28.005
89363W        W90227  12.554  12.335  27.063
89364W        W90228  13.252  13.771  27.603
89365W        W90229  11.638  13.211  27.623
89366W        W90230  10.691  12.622  27.726
89367W        W90231  12.246  12.598  28.434
89368W        W90232  14.370  12.392  28.751
89369W        W90233  11.890  13.797  27.244
89370W        W90234  13.122  13.551  28.146
89371W        W90235  12.343  12.042  27.477
89372W        W90236  12.425  12.939  27.228
89373W        W90237  13.372  13.790   0.076
89374W        W90238  12.531  13.151  28.876
89375W        W90239  12.700  12.852  28.472
89376W        W90240  11.038  12.054  28.936
89377W        W90241  13.761  13.703  28.732
89378W        W90242  11.348  11.184  26.663
89379W        W90243  11.953  13.615  27.725
89380W        W90244  14.530  13.409  27.148
89381W        W90245  13.696  11.697  27.685
89382W        W90246  14.009  11.784  25.597
89383W        W90247  14.680  12.442  27.934
89384W        W90248  12.437  14.355  27.676
89385W        W90249  14.450  13.954  26.221
89386W        W90250  11.625  14.675  26.139
89387W        W90251  11.694  14.440  26.650
89388W        W90252  11.857  11.271  27.819
89389W        W90253  14.391  12.202  28.276
89390W        W90254  13.551  12.559  26.882
89391W        W90255  13.522  12.552  25.802
89392W        W90256  12.819  13.537  27.710
89393W        W90257  12.532  11.775  27.072
89394W        W90258  13.295  14.036  28.074
89395W        W90259  14.028  12.677  26.765
89396W        W90260  13.011  11.440  26.538
89397W        W90261  11.435  14.053  26.389
89398W        W90262  11.071  11.595  26.770
89399W        W90263  13.493  12.264  27.312
89400W        W90264  12.382  14.221  26.338
89401W        W90265  13.916  12.274  25.527
89402W        W90266  11.102  13.927  27.937
89403W        W90267  11.962  13.663  28.245
89404W        W90268  12.092  12.957  26.833
89405W        W90269  12.397  11.301  27.893
89406W        W90270  14.512  11.125  27.365
89407W        W90271  11.682  13.098  25.467
89408W        W90272  11.281  11.599  25.813
89409W        W90273  11.555  13.862  26.859
89410W        W90274  12.453  13.302  26.779
89411W        W90275  13.989  14.133  28.559
89412W        W90276  12.946  11.919  26.329
89413W        W90277  14.212  14.527  27.078
89414W        W90278  13.928  12.243  28.482
89415W        W90279  14.611  13.703  26.676
89416W        W90280  13.178  13.020  28.299
89417W        W90281  10.804  12.925  26.580
89418W        W90282  11.994  13.186  28.004
89419W        W90283  13.255  12.294  26.517
89420W        W90284  13.137  12.766  26.659
89421W        W90285  11.574  12.242  27.927
89422W        W90286  11.519  12.092  28.725
89423W        W90287  11.305  11.076  27.171
89424W        W90288  13.183  11.458  27.657
89425W        W90289  12.881  11.479  28.785
89426W        W90290  13.172  11.673  25.915
89427W        W90291  14.452  13.944  28.711
89428W        W90292  13.246  11.091  28.730
89429W        W90293  14.214  13.488  28.822
89430W        W90294  13.836  11.724  28.383
89431W        W90295  13.443  11.512  26.819
89432W        W90296  13.982  12.622   0.000
89433W        W90297  11.697  14.266  27.161
89434W        W90298  12.494  11.821  26.124
89435W        W90299  11.888  11.171  28.811
89436W        W90300  13.888  11.743  26.666
89437W        W90301  14.272  12.324  26.378
89438W        W90302  12.177  14.429  28.855
89439W        W90303  11.941  10.943  26.130
89440W        W90304  14.324  11.523  27.062
89441W        W90305  14.481  13.886  25.690
89442W        W90306  11.204  13.035  27.350
89443W        W90307  13.224  11.680  25.382
89444W        W90308  14.521  13.856  27.406
89445W        W90309  14.457  11.167  27.877
89446W        W90310  13.055  12.159  28.849
89447W        W90311  12.706  13.466  26.354
89448W        W90312  13.516  12.802   0.146
89449W        W90313  13.248  10.978  27.460
89450W        W90314  11.688  11.927  27.321
89451W        W90315  11.505  13.047  28.108
89452W        W90316  13.126  14.155  26.981
89453W        W90317  14.156  11.886  27.942
89454W        W90318  13.019  14.298  28.453
89455W        W90319  14.187  13.023  25.796
89456W        W90320  12.603  12.782  26.781
89457W        W90321  14.541  11.065  28.381
89458W        W90322  12.757  13.169  28.055
89459W        W90323  12.869  12.047  27.358
89460W        W90324  13.790  12.242  26.521
89461W        W90325  13.827  12.045  26.054
89462W        W90326  14.051  13.794  26.510
89463W        W90327  13.618  13.443  27.362
89464W        W90328  13.599  12.681  26.356
89465W        W90329  12.967  12.862  27.142
89466W        W90330  13.990  12.641  27.307
89467W        W90331  11.435  11.674  27.732
89468W        W90332  14.024  12.766  28.484
89469W        W90333  14.462  14.300  27.662
89470W        W90334  12.366  13.738  27.075
89471W        W90335  13.544  14.379  28.411
89472W        W90336  13.390  11.671  28.116
89473W        W90337  12.681  14.468  28.104
89474W        W90338  14.269  11.403  26.544
89475W        W90339  14.026  12.469  28.018
89476W        W90340  11.074  11.918  28.014
89477W        W90341  13.847  11.753  27.186
89478W        W90342  14.264  11.858  28.631
89479W        W90343  13.219  13.606  27.077
89480W        W90344  12.551  14.167  26.834
89481W        W90345  11.732  11.396  25.983
89482W        W90346  12.757  11.078  27.569
89483W        W90347  11.669  14.345  25.735
89484W        W90348  12.289  12.835  26.351
89485W        W90349  12.815  13.384  28.518
89486W        W90350  12.503  11.497  26.626
89487W        W90351  13.899  11.257  26.936
89488W        W90352  13.728  14.502  27.269
89489W        W90353  12.945  14.188  27.716
89490W        W90354  12.381  13.250  27.640
89491W        W90355  14.242  13.866  27.845
89492W        W90356  11.822  11.292  26.502
89493W        W90357  12.405  13.828  27.582
89494W        W90358  11.854  11.625  25.518
89495W        W90359  12.733  12.196  27.831
89496W        W90360  13.606  11.191  27.792
89497W        W90361  11.067  12.980  27.856
89498W        W90362  12.597  12.708  25.951
89499W        W90363  11.925  11.092  25.611
89500W        W90364  12.517  12.022  26.618
89501W        W90365  13.608  11.245  28.335
89502W        W90366  12.338  13.184  28.379
89503W        W90367  13.057  13.004  28.822
89504W        W90368  13.539  12.905  28.639
89505W        W90369  12.894  11.106   0.142
89506W        W90370  12.176  11.548  27.483
89507W        W90371  11.564  11.594  26.907
89508W        W90372  11.229  14.271  26.825
89509W        W90373  12.843  13.881  28.719
89510W        W90374  11.673  13.346  26.122
89511W        W90375  13.451  12.783  27.340
89512W        W90376  13.570  12.508  27.765
89513W        W90377  12.779  12.934  27.608
89514W        W90378  13.415  13.465  25.820
89515W        W90379  13.019  11.359  27.137
89516W        W90380  14.570  11.884  26.275
89517W        W90381  11.251  14.209  28.410
89518W        W90382  11.498  13.578  28.009
89519W        W90383  11.135  14.461  26.340
89520W        W90384  12.901  11.732  27.975
89521W        W90385  12.219  13.806  26.045
89522W        W90386  14.018  14.241  26.087
89523W        W90387  13.128  12.657  26.134
89524W        W90388  12.050  11.784  26.527
89525W        W90389  12.759  11.788  25.643
89526W        W90390  13.350  13.406  28.593
89527W        W90391  13.762  11.329  26.387
89528W        W90392  11.004  11.125  25.851
89529W        W90393  12.415  13.554  28.028
89530W        W90394  12.039  13.293  27.271
89531W        W90395  11.989  13.469  25.721
89532W        W90396  10.938  13.920  26.291
89533W        W90397  11.727  12.566  28.773
89534W        W90398  12.380  11.077  28.959
89535W        W90399  13.053  11.336  28.310
89536W        W90400  12.225  11.078  26.757
89537W        W90401  13.290  11.231  26.146
89538W        W90402  11.316  11.158  27.684
89539W        W90403  11.203  12.025  27.066
89540W        W90404  14.044  11.339  27.483
89541W        W90405  11.520  11.694  26.398
89542W        W90406  14.014  11.392  28.021
89543W        W90407  14.348  12.559  25.609
89544W        W90408  11.683  11.418  27.367
89545W        W90409  12.969  11.854  28.454
89546W        W90410  10.747  11.601  25.897
89547W        W90411  11.870  12.961  28.473
89548W        W90412  13.064  12.491  27.546
89549W        W90413  12.727  14.175  25.958
89550W        W90414  10.982  13.308  25.565
89551W        W90415  12.053  13.413  28.724
89552W        W90416  11.466  12.574  28.323
89553W        W90417  12.382  12.825  27.981
89554W        W90418  14.025  10.940  28.289
89555W        W90419  14.539  12.727  28.364
89556W        W90420  14.516  12.677  26.076
89557W        W90421  13.296  13.128  26.318
89558W        W90422  13.906  14.577  25.657
89559W        W90423  13.062  12.581   0.116
89560W        W90424  11.707  13.102  28.954
89561W        W90425  14.595  11.479  28.803
89562W        W90426  13.926  12.169  27.566
89563W        W90427  12.681  14.417  28.933
89564W        W90428  12.380  11.036  25.833
89565W        W90429  13.917  13.711  25.752
89566W        W90430  11.751  11.634  28.634
89567W        W90431  12.406  13.713  28.500
89568W        W90432  14.452  11.570  28.247
89569W        W90433  13.588  14.577  26.083
89570W        W90434  13.810  13.025  27.617
89571W        W90435  12.051  11.547  28.216
89572W        W90436  12.614  12.497  28.836
89573W        W90437  11.850  13.755  26.405
89574W        W90438  13.752  13.123  26.591
89575W        W90439  11.575  11.822  28.205
89576W        W90440  12.808  13.729  26.796
89577W        W90441  14.428  12.403  26.984
89578W        W90442  12.747  11.006  28.611
89579W        W90443  13.746  13.795  27.715
89580W        W90444  14.049  14.099  27.398
89581W        W90445  12.934  13.695  25.963
89582W        W90446  11.187  13.389  28.869
89583W        W90447  11.914  11.866  27.802
89584W        W90448  11.766  11.111  26.972
89585W        W90449  13.267  12.008  27.708
89586W        W90450  12.173  12.986  25.823
89587W        W90451  14.314  13.087  27.513
89588W        W90452  11.642  13.621  28.982
89589W        W90453  14.037  14.560  26.568
89590W        W90454  12.074  11.528  26.976
89591W        W90455  11.687  12.910  27.189
89592W        W90456  12.019  14.497  27.986
89593W        W90457  14.263  14.491  28.784
89594W        W90458  13.259  12.904  27.810
89595W        W90459  10.754  12.786  25.624
89596W        W90460  14.357  14.181  26.678
89597W        W90461  14.144  11.639  26.094
89598W        W90462  12.256  11.109  28.441
89599W        W90463  14.211  13.791  27.001
89600W        W90464  13.943  12.221  27.012
89601W        W90465  12.105  12.051  27.010
89602W        W90466  12.681  12.295  28.363
89603W        W90467  13.638  13.681  28.225
89604W        W90468  12.292  11.961  28.406
89605W        W90469  12.221  14.310  27.202
89606W        W90470  11.672  14.348  28.791
89607W        W90471  11.657  13.845  25.938
89608W        W90472  14.223  13.317  26.704
89609W        W90473  11.864  12.242  28.361
89610W        W90474  14.314  12.115  25.872
89611W        W90475  12.175  13.341  26.308
89612W        W90476  13.109  12.561  28.549
89613W        W90477  13.151  12.230  28.139
89614W        W90478  11.885  12.666  28.036
89615W        W90479  13.995  14.499  27.738
89616W        W90480  13.745  11.093  28.843
89617W        W90481  11.392  11.253  28.655
89618W        W90482  11.931  12.348  27.588
89619W        W90483  12.327  12.074  25.667
89620W        W90484  11.156  13.703  28.423
89621W        W90485  12.451  12.535  27.551
89622W        W90486  12.322  11.528  25.725
89623W        W90487  11.719  12.603  26.769
89624W        W90488  11.232  14.438  27.963
89625W        W90489  13.995  12.535  25.980
89626W        W90490  14.133  11.342  28.580
89627W        W90491  13.751  13.572  26.887
89628W        W90492  11.216  12.528  28.806
89629W        W90493  14.170  11.115  26.115
89630W        W90494  14.035  13.387  26.179
89631W        W90495  12.755  12.441  26.421
89632W        W90496  13.676  11.504  25.887
89633W        W90497  13.678  12.085  28.036
89634W        W90498  11.542  12.411  27.227
89635W        W90499  11.970  13.503  26.817
89636W        W90500  13.492  12.019  26.863
89637W        W90501  12.690  11.592  27.529
89638W        W90502  14.492  13.421  27.892
89639W        W90503  14.492  11.615  27.616
89640W        W90504  11.380  13.552  26.498
89641W        W90505  11.480  11.165   0.188
89642W        W90506  12.840  13.913   0.258
89643W        W90507  14.396  12.913  27.045
89644W        W90508  13.707  13.022  25.984
89645W        W90509  13.197  14.550  28.020
89646W        W90510  13.891  13.113  28.943
89647W        W90511  12.444  10.928  26.322
89648W        W90512  13.295  11.784  27.259
89649W        W90513  11.217  13.501  27.567
89650W        W90514  12.221  11.385  26.204
89651W        W90515  12.160  12.804  28.910
89652W        W90516  12.990  11.870  26.845
89653W        W90517  13.479  13.362  27.847
89654W        W90518  11.626  13.896  28.540
89655W        W90519  12.055  13.927  28.838
89656W        W90520  11.994  11.838  26.005
89657W        W90521  13.458  11.789  26.360
89658W        W90522  13.334  13.922  28.573
89659W        W90523  12.080  12.554  27.155
89660W        W90524  11.650  14.097  28.049
89661W        W90525  14.388  14.394  25.760
89662W        W90526  11.332  12.974  28.609
89663W        W90527  13.162  13.243  27.441
89664W        W90528  11.628  13.132  26.713
89665W        W90529  12.283  14.043  28.050
89666W        W90530  12.502  11.270  27.148
89667W        W90531  11.198  13.569  25.996
89668W        W90532  12.780  12.229  25.926
89669W        W90533  11.227  12.723  26.926
89670W        W90534  12.575  11.515  28.340
89671W        W90535  14.215  11.334  25.661
89672W        W90536  14.395  12.958  28.820
89673W        W90537  13.138  14.229  28.965
89674W        W90538  14.379  13.246  28.387
89675W        W90539  14.080  13.962   0.057
89676W        W90540  11.632  14.479  27.632
89677W        W90541  14.721  13.178  26.739
89678W        W90542  13.080  12.367  27.006
89679W        W90543  12.751  11.010  26.768
89680W        W90544  12.028  14.076  26.786
89681W        W90545  12.403  11.806  27.927
89682W        W90546  12.219  11.021  27.496
89683W        W90547  11.219  14.132  25.923
89684W        W90548  12.959  13.235  26.768
89685W        W90549  11.996  14.219  28.419
89686W        W90550  11.267  13.067  26.360
89687W        W90551  11.182  11.563  27.291
89688W        W90552  12.715  13.366  27.223
89689W        W90553  11.075  11.454  26.272
89690W        W90554  13.549  12.520  28.292
89691W        W90555  13.533  11.958  25.661
89692W        W90556  14.109  13.545  27.447
89693W        W90557  12.832  13.866  27.302
89694W        W90558  11.887  14.227  26.205
89695W        W90559  13.300  11.216  25.619
89696W        W90560  11.222  14.328  27.376
89697W        W90561  13.466  11.931   0.045
89698W        W90562  11.385  11.644  28.998
89699W        W90563  11.158  12.068  26.562
89700W        W90564  12.317  12.303  26.170
89701W        W90565  13.531  12.415  28.829
89702W        W90566  12.032  12.863  27.580
89703W        W90567  13.397  11.006  26.953
89704W        W90568  12.740  14.364  27.268
89705W        W90569  13.852  14.134  28.072
89706W        W90570  13.568  13.964  27.240
89707W        W90571  13.415  13.127  26.975
89708W        W90572  12.743  11.373  26.069
89709W        W90573  14.555  11.092  26.850
89710W        W90574  11.932  12.577  25.477
89711W        W90575  14.337  11.958  26.749
89712W        W90576  12.980  13.130  25.900
89713W        W90577  13.870  13.280  28.460
89714W        W90578  13.593  14.173  25.726
89715W        W90579  12.250  11.550  28.736
89716W        W90580  12.252  12.299  27.995
89717W        W90581  14.151  13.710  28.333
89718W        W90582  13.384  11.577  28.653
89719W        W90583  11.115  12.217  28.420
89720W        W90584  12.875  12.652  28.035
89721W        W90585  11.139  13.235  26.850
89722W        W90586  11.510  12.705  27.669
89723W        W90587  13.690  12.964  28.109
89724W        W90588  13.637  14.208  28.909
89725W        W90589  13.449  12.048  28.504
89726W        W90590  13.874  14.171  26.881
89727W        W90591  12.776  13.929  28.157
89728W        W90592  11.984  14.124  27.627
89729W        W90593  13.984  13.398  27.949
89730W        W90594  12.949  13.466   0.008
89731W        W90595  11.540  13.413  27.145
89732W        W90596  13.932  13.123  27.106
89733W        W90597  13.514  14.256  27.673
89734W        W90598  11.505  13.934  27.583
89735W        W90599  12.596  11.941  28.824
89736W        W90600  12.907  14.201  26.463
89737W        W90601  12.460  13.657   0.005
89738W        W90602  12.349  13.762  26.555
89739W        W90603  11.640  12.144  25.304
89740W        W90604  10.905  18.249   3.388
89741W        W90605  11.349  17.171   2.835
89742W        W90606  14.161  16.796   0.718
89743W        W90607  14.315  17.991   2.700
89744W        W90608  12.314  17.899   0.380
89745W        W90609  12.080  16.055   1.068
89746W        W90610  11.825  15.985   1.558
89747W        W90611  12.689  16.583   0.781
89748W        W90612  12.411  18.007   2.993
89749W        W90613  11.031  15.383   2.882
89750W        W90614  11.690  14.798   2.805
89751W        W90615  13.470  14.980   1.747
89752W        W90616  13.218  15.712   0.552
89753W        W90617  13.728  15.430   3.110
89754W        W90618  11.190  14.968   2.539
89755W        W90619  11.109  17.787   3.484
89756W        W90620  12.654  16.895   0.387
89757W        W90621  11.087  15.765   1.950
89758W        W90622  12.171  15.961   3.216
89759W        W90623  14.348  15.519   1.767
89760W        W90624  14.182  16.667   2.455
89761W        W90625  12.697  16.175   1.588
89762W        W90626  13.184  17.410   1.959
89763W        W90627  11.568  16.657   2.265
89764W        W90628  10.867  16.226   1.888
89765W        W90629  12.160  16.467   2.996
89766W        W90630  14.311  16.120   3.151
89767W        W90631  11.910  17.372   1.674
89768W        W90632  13.000  17.336   2.757
89769W        W90633  12.560  15.866   1.982
89770W        W90634  12.486  16.649   1.642
89771W        W90635  13.141  17.422   3.358
89772W        W90636  12.497  16.727   3.392
89773W        W90637  12.681  16.561   2.938
89774W        W90638  11.044  15.708   3.287
89775W        W90639  13.664  17.306   3.312
89776W        W90640  11.557  14.897   1.019
89777W        W90641  11.908  17.097   2.121
89778W        W90642  14.316  17.022   1.559
89779W        W90643  13.942  15.172   1.813
89780W        W90644  14.265  15.430   0.111
89781W        W90645  14.628  16.094   2.360
89782W        W90646  12.547  17.876   2.133
89783W        W90647  14.255  17.319   0.711
89784W        W90648  11.580  18.172   0.589
89785W        W90649  11.834  18.088   1.180
89786W        W90650  11.685  14.967   2.337
89787W        W90651  14.169  16.065   2.573
89788W        W90652  13.672  16.248   1.284
89789W        W90653  13.615  15.979   0.345
89790W        W90654  12.770  17.332   2.247
89791W        W90655  12.884  15.706   1.580
89792W        W90656  13.124  17.694   2.419
89793W        W90657  14.191  16.381   1.085
89794W        W90658  12.960  15.028   1.069
89795W        W90659  11.719  17.675   0.701
89796W        W90660  11.133  15.114   1.209
89797W        W90661  13.880  15.712   1.750
89798W        W90662  11.390  17.396   1.596
89799W        W90663  12.634  17.612   0.744
89800W        W90664  13.898  15.741  28.970
89801W        W90665  11.091  17.546   2.239
89802W        W90666  11.821  17.427   2.496
89803W        W90667  12.006  16.441   1.401
89804W        W90668  12.177  15.186   2.113
89805W        W90669  14.525  14.653   1.752
89806W        W90670  11.538  16.425   0.232
89807W        W90671  11.321  15.580   0.407
89808W        W90672  11.326  17.398   1.066
89809W        W90673  12.265  16.853   1.222
89810W        W90674  13.849  17.872   2.864
89811W        W90675  12.792  15.457   0.732
89812W        W90676  14.215  17.971   1.514
89813W        W90677  13.852  15.931   2.981
89814W        W90678  14.503  17.329   1.193
89815W        W90679  13.143  16.789   2.798
89816W        W90680  11.087  16.261   1.144
89817W        W90681  11.951  16.876   2.573
89818W        W90682  13.274  15.985   1.006
89819W        W90683  12.990  16.378   1.177
89820W        W90684  11.386  15.801   2.404
89821W        W90685  11.428  15.782   2.914
89822W        W90686  11.327  14.743   1.515
89823W        W90687  13.097  15.050   2.130
89824W        W90688  12.829  15.192   3.265
89825W        W90689  13.340  15.189   0.557
89826W        W90690  14.479  17.729   3.153
89827W        W90691  13.245  14.728   3.057
89828W        W90692  14.182  17.193   3.359
89829W        W90693  13.806  15.225   2.658
89830W        W90694  13.451  15.190   1.282
89831W        W90695  13.878  16.293   3.401
89832W        W90696  11.651  17.838   1.593
89833W        W90697  12.306  15.603   0.919
89834W        W90698  11.850  15.036   3.222
89835W        W90699  14.064  15.545   0.868
89836W        W90700  14.385  15.953   0.845
89837W        W90701  11.982  18.125   3.250
89838W        W90702  12.079  14.750   0.707
89839W        W90703  14.350  15.063   1.524
89840W        W90704  14.471  17.388   0.230
89841W        W90705  11.144  16.588   1.671
89842W        W90706  13.376  15.065   0.048
89843W        W90707  14.431  17.506   1.706
89844W        W90708  14.414  14.655   2.269
89845W        W90709  12.935  16.000   3.049
89846W        W90710  12.714  17.104   0.850
89847W        W90711  13.418  16.490   3.627
89848W        W90712  13.034  14.707   1.736
89849W        W90713  11.563  15.622   1.809
89850W        W90714  11.194  16.742   2.620
89851W        W90715  13.080  17.856   1.437
89852W        W90716  14.067  15.440   2.228
89853W        W90717  12.951  18.039   2.843
89854W        W90718  14.268  16.714   0.242
89855W        W90719  12.467  16.371   1.182
89856W        W90720  14.516  14.710   2.811
89857W        W90721  12.706  16.953   2.591
89858W        W90722  13.002  15.596   2.072
89859W        W90723  13.775  15.978   0.843
89860W        W90724  14.106  15.828   0.426
89861W        W90725  13.816  17.499   0.902
89862W        W90726  13.786  17.088   1.655
89863W        W90727  13.431  16.347   0.675
89864W        W90728  13.011  16.557   1.711
89865W        W90729  14.084  16.211   1.666
89866W        W90730  11.303  15.343   2.197
89867W        W90731  14.002  16.438   2.884
89868W        W90732  14.355  17.900   2.038
89869W        W90733  12.395  17.199   1.566
89870W        W90734  13.444  18.057   2.598
89871W        W90735  13.205  15.412   2.497
89872W        W90736  12.520  18.234   2.546
89873W        W90737  14.230  15.070   1.035
89874W        W90738  13.935  16.311   2.150
89875W        W90739  10.891  15.594   2.405
89876W        W90740  13.929  15.367   1.339
89877W        W90741  14.162  15.577   2.741
89878W        W90742  13.182  17.176   1.492
89879W        W90743  12.599  17.851   1.190
89880W        W90744  11.411  15.083   0.504
89881W        W90745  12.629  14.794   2.125
89882W        W90746  11.777  17.818   0.213
89883W        W90747  11.890  16.260   0.615
89884W        W90748  12.809  17.040   3.117
89885W        W90749  12.598  15.361   1.282
89886W        W90750  13.843  14.840   1.400
89887W        W90751  13.519  18.070   1.665
89888W        W90752  13.042  17.915   1.957
89889W        W90753  12.427  16.917   2.117
89890W        W90754  14.149  17.570   2.374
89891W        W90755  12.009  15.133   1.103
89892W        W90756  12.307  17.422   2.017
89893W        W90757  11.775  15.439   0.173
89894W        W90758  12.731  15.818   2.470
89895W        W90759  13.521  14.672   2.154
89896W        W90760  11.030  16.654   2.158
89897W        W90761  12.687  16.304   0.202
89898W        W90762  12.024  14.965   0.209
89899W        W90763  12.732  15.907   1.092
89900W        W90764  13.430  14.902   2.587
89901W        W90765  12.323  16.960   2.927
89902W        W90766  13.064  16.476   3.248
89903W        W90767  13.562  16.567   3.104
89904W        W90768  12.924  14.792   3.573
89905W        W90769  12.091  15.657   1.876
89906W        W90770  11.590  15.235   1.404
89907W        W90771  11.379  17.911   1.011
89908W        W90772  12.738  17.622   3.119
89909W        W90773  11.809  16.789   0.479
89910W        W90774  13.590  16.440   1.774
89911W        W90775  13.524  15.976   2.018
89912W        W90776  12.948  16.746   2.202
89913W        W90777  13.414  16.948   0.158
89914W        W90778  13.019  15.204   1.580
89915W        W90779  14.579  15.462   0.793
89916W        W90780  11.090  17.937   2.974
89917W        W90781  11.398  17.135   2.316
89918W        W90782  11.045  18.089   0.649
89919W        W90783  12.680  15.289   2.371
89920W        W90784  12.184  17.429   0.573
89921W        W90785  14.054  17.846   0.578
89922W        W90786  12.947  16.153   0.641
89923W        W90787  11.875  15.611   1.225
89924W        W90788  12.981  15.370   0.238
89925W        W90789  13.286  16.939   3.290
89926W        W90790  13.743  14.994   0.886
89927W        W90791  11.081  14.724   0.280
89928W        W90792  12.305  17.258   2.494
89929W        W90793  12.028  16.853   1.698
89930W        W90794  12.193  17.034   0.232
89931W        W90795  11.208  17.587   0.584
89932W        W90796  11.734  16.175   3.033
89933W        W90797  12.401  14.834   3.480
89934W        W90798  12.933  14.948   2.669
89935W        W90799  12.293  14.729   1.222
89936W        W90800  13.296  14.720   0.753
89937W        W90801  11.269  14.873   2.015
89938W        W90802  11.304  15.657   1.345
89939W        W90803  14.012  14.644   1.858
89940W        W90804  11.489  15.404   0.919
89941W        W90805  13.954  14.922   2.268
89942W        W90806  14.452  16.215   0.235
89943W        W90807  11.718  15.124   1.869
89944W        W90808  12.858  15.514   2.867
89945W        W90809  10.935  15.220   0.288
89946W        W90810  11.626  16.686   2.913
89947W        W90811  13.010  16.124   2.012
89948W        W90812  12.837  17.919   0.362
89949W        W90813  11.056  16.582   0.252
89950W        W90814  11.849  17.224   2.961
89951W        W90815  11.352  16.252   2.664
89952W        W90816  12.372  16.573   2.531
89953W        W90817  13.955  14.736   2.745
89954W        W90818  14.525  16.420   2.772
89955W        W90819  14.559  16.457   0.674
89956W        W90820  13.176  16.791   0.895
89957W        W90821  13.922  18.118   0.159
89958W        W90822  13.040  16.084   3.596
89959W        W90823  11.501  17.054   3.313
89960W        W90824  14.241  15.905   2.079
89961W        W90825  12.572  18.070   3.529
89962W        W90826  12.439  14.657   0.327
89963W        W90827  13.954  17.123   0.324
89964W        W90828  11.883  15.550   3.083
89965W        W90829  12.278  17.501   2.935
89966W        W90830  14.312  15.116   2.558
89967W        W90831  13.681  18.264   0.596
89968W        W90832  13.789  16.802   2.117
89969W        W90833  12.023  15.246   2.672
89970W        W90834  12.595  16.228   3.371
89971W        W90835  11.814  17.180   0.832
89972W        W90836  13.730  16.659   0.972
89973W        W90837  11.521  15.325   2.702
89974W        W90838  12.779  17.386   1.265
89975W        W90839  14.511  15.954   1.500
89976W        W90840  12.717  14.701   3.078
89977W        W90841  13.664  17.302   2.096
89978W        W90842  13.949  17.668   1.868
89979W        W90843  13.082  17.174   0.485
89980W        W90844  11.036  17.315   3.230
89981W        W90845  11.784  15.490   2.267
89982W        W90846  11.837  14.790   1.468
89983W        W90847  13.575  15.255   2.182
89984W        W90848  12.270  16.538   0.395
89985W        W90849  14.252  16.671   1.925
89986W        W90850  11.480  17.578   3.171
89987W        W90851  14.068  18.239   0.957
89988W        W90852  12.146  15.233   1.580
89989W        W90853  11.680  16.437   1.798
89990W        W90854  12.116  18.273   2.224
89991W        W90855  14.161  18.152   3.190
89992W        W90856  13.361  16.443   2.245
89993W        W90857  11.191  16.078   0.421
89994W        W90858  14.266  17.760   1.041
89995W        W90859  14.202  15.187   0.542
89996W        W90860  12.192  14.713   2.976
89997W        W90861  14.019  17.476   1.397
89998W        W90862  14.055  15.888   1.266
89999W        W90863  12.348  15.798   1.449
90000W        W90864  12.477  16.108   2.815
90001W        W90865  13.485  17.173   2.852
90002W        W90866  12.351  15.615   2.869
90003W        W90867  12.183  17.782   1.473
90004W        W90868  11.452  18.136   3.295
90005W        W90869  11.753  17.308   0.320
90006W        W90870  14.063  17.052   1.126
90007W        W90871  11.893  15.836   2.645
90008W        W90872  14.605  15.764   0.392
90009W        W90873  12.252  16.929   0.726
90010W        W90874  13.257  16.296   2.804
90011W        W90875  13.226  15.938   2.436
90012W        W90876  11.866  16.354   2.564
90013W        W90877  13.905  18.024   2.358
90014W        W90878  13.734  14.887   3.194
90015W        W90879  11.255  14.941   3.047
90016W        W90880  11.800  16.020   2.120
90017W        W90881  12.216  15.575   0.404
90018W        W90882  10.937  17.478   2.740
90019W        W90883  12.585  16.409   2.072
90020W        W90884  12.504  15.173   0.294
90021W        W90885  11.570  16.051   1.105
90022W        W90886  11.136  18.034   2.441
90023W        W90887  14.073  16.305   0.586
90024W        W90888  14.177  15.129   3.056
90025W        W90889  13.573  17.140   1.186
90026W        W90890  11.222  16.187   3.179
90027W        W90891  14.233  14.686   0.578
90028W        W90892  13.574  17.064   0.680
90029W        W90893  12.432  16.113   0.695
90030W        W90894  13.770  14.920   0.372
90031W        W90895  13.691  15.692   2.476
90032W        W90896  11.332  16.108   1.606
90033W        W90897  11.727  17.031   1.314
90034W        W90898  13.564  15.736   1.339
90035W        W90899  12.580  15.373   1.849
90036W        W90900  14.498  17.105   2.420
90037W        W90901  14.461  15.114   2.051
90038W        W90902  11.127  17.800   1.441
90039W        W90903  11.382  16.902   0.890
90040W        W90904  11.407  14.990   3.546
90041W        W90905  12.721  17.598   3.634
90042W        W90906  14.504  16.540   1.477
90043W        W90907  13.757  16.660   0.435
90044W        W90908  12.997  18.228   2.365
90045W        W90909  13.793  16.831   3.498
90046W        W90910  12.591  14.584   0.811
90047W        W90911  13.400  15.503   1.758
90048W        W90912  11.065  17.104   1.894
90049W        W90913  12.447  15.091   0.834
90050W        W90914  11.976  16.845   3.284
90051W        W90915  13.095  15.527   1.147
90052W        W90916  13.281  17.104   2.382
90053W        W90917  11.402  17.655   2.658
90054W        W90918  12.239  17.713   3.409
90055W        W90919  11.895  15.236   0.630
90056W        W90920  13.557  15.507   0.886
90057W        W90921  13.328  17.684   2.947
90058W        W90922  12.211  16.194   1.802
90059W        W90923  11.687  17.948   2.348
90060W        W90924  14.399  17.928   0.170
90061W        W90925  11.160  16.719   3.146
90062W        W90926  13.344  16.905   1.895
90063W        W90927  11.860  16.651   0.960
90064W        W90928  12.170  17.808   2.481
90065W        W90929  12.586  14.931   1.592
90066W        W90930  11.026  17.039   0.498
90067W        W90931  12.689  15.794   0.340
90068W        W90932  11.498  16.542   1.304
90069W        W90933  12.490  15.117   2.848
90070W        W90934  14.204  14.904   0.105
90071W        W90935  14.248  16.659   3.277
90072W        W90936  13.053  17.970   3.363
90073W        W90937  14.430  16.999   2.911
90074W        W90938  13.999  17.690   3.326
90075W        W90939  11.695  18.240   1.906
90076W        W90940  14.552  16.819   1.054
90077W        W90941  13.240  16.096   1.546
90078W        W90942  12.800  14.578   1.285
90079W        W90943  11.803  17.553   1.195
90080W        W90944  12.276  15.609   2.363
90081W        W90945  12.182  14.759   1.845
90082W        W90946  11.294  17.960   0.207
90083W        W90947  12.809  16.850   1.296
90084W        W90948  11.853  17.781   2.889
90085W        W90949  11.407  16.411   0.753
90086W        W90950  11.162  15.290   1.697
90087W        W90951  12.817  17.040   1.807
90088W        W90952  11.077  14.806   0.796
90089W        W90953  13.676  16.190   2.565
90090W        W90954  13.771  15.443   0.403
90091W        W90955  14.163  17.184   2.026
90092W        W90956  12.731  17.557   1.747
90093W        W90957  12.173  17.830   0.903
90094W        W90958  13.419  14.568   0.241
90095W        W90959  11.266  17.931   1.934
90096W        W90960  13.160  15.618   3.373
90097W        W90961  11.433  15.375   3.223
90098W        W90962  11.167  15.816   0.866
90099W        W90963  11.818  15.750   0.715
90100W        W90964  13.427  16.084   3.264
90101W        W90965  12.058  16.561   2.127
90102W        W90966  13.322  14.687   1.281
90103W        W90967  12.637  18.054   1.645
90104W        W90968  13.632  17.553   2.537
90105W        W90969  13.528  17.552   1.591
90106W        W90970  13.384  16.694   1.375
90107W        W90971  12.873  14.947   0.562
90108W        W90972  14.550  14.684   1.191
90109W        W90973  12.203  16.050   0.238
90110W        W90974  14.412  15.522   1.262
90111W        W90975  13.078  16.619   0.403
90112W        W90976  13.915  16.940   2.994
90113W        W90977  13.536  17.439   0.334
90114W        W90978  12.295  15.302   3.301
90115W        W90979  12.264  16.110   2.337
90116W        W90980  14.117  17.428   2.885
90117W        W90981  13.279  15.230   2.957
90118W        W90982  10.942  15.902   2.820
90119W        W90983  12.851  16.327   2.501
90120W        W90984  11.213  16.985   1.372
90121W        W90985  11.323  16.225   2.120
90122W        W90986  13.627  16.712   2.607
90123W        W90987  13.574  18.006   3.268
90124W        W90988  13.363  15.740   2.888
90125W        W90989  13.770  17.913   1.241
90126W        W90990  12.644  17.691   2.612
90127W        W90991  12.019  17.831   1.967
90128W        W90992  13.934  17.121   2.507
90129W        W90993  12.817  17.087   3.635
90130W        W90994  11.532  16.935   1.803
90131W        W90995  13.955  16.657   1.454
90132W        W90996  13.517  17.797   2.101
90133W        W90997  11.589  17.535   2.048
90134W        W90998  12.627  15.702   3.322
90135W        W90999  13.031  17.932   0.897
90136W        W91000  12.399  17.230   3.362
90137W        W91001  12.283  17.356   1.080
90138W        W91002  11.684  15.941   0.250
90139W        W91003  10.866  18.287   7.130
90140W        W91004  11.462  17.228   6.571
90141W        W91005  13.921  16.645   4.477
90142W        W91006  14.425  17.961   6.355
90143W        W91007  12.119  18.097   3.767
90144W        W91008  12.228  16.011   4.780
90145W        W91009  11.843  15.838   5.165
90146W        W91010  12.658  16.513   4.440
90147W        W91011  12.508  17.856   6.729
90148W        W91012  10.975  15.335   6.640
90149W        W91013  11.653  14.545   6.532
90150W        W91014  13.526  14.986   5.326
90151W        W91015  13.092  15.719   3.982
90152W        W91016  13.608  15.505   7.001
90153W        W91017  11.139  15.012   6.250
90154W        W91018  11.203  17.896   7.203
90155W        W91019  12.585  16.874   4.049
90156W        W91020  11.067  15.647   5.681
90157W        W91021  12.149  15.884   6.871
90158W        W91022  14.136  15.629   5.451
90159W        W91023  14.319  16.592   6.187
90160W        W91024  12.676  16.050   5.320
90161W        W91025  13.204  17.320   5.521
90162W        W91026  11.511  16.568   5.912
90163W        W91027  10.885  16.115   5.504
90164W        W91028  12.109  16.258   6.529
90165W        W91029  14.392  15.963   6.866
90166W        W91030  11.936  17.589   5.430
90167W        W91031  13.029  17.188   6.364
90168W        W91032  12.365  15.779   5.639
90169W        W91033  12.568  16.566   5.327
90170W        W91034  13.287  17.452   7.094
90171W        W91035  12.699  16.632   7.153
90172W        W91036  12.611  16.450   6.568
90173W        W91037  10.700  15.679   6.947
90174W        W91038  13.729  17.395   6.791
90175W        W91039  11.459  14.864   4.805
90176W        W91040  11.930  17.192   5.762
90177W        W91041  14.208  17.061   5.235
90178W        W91042  13.764  15.319   5.665
90179W        W91043  13.935  15.254   3.542
90180W        W91044  14.536  16.039   6.133
90181W        W91045  12.686  17.698   5.824
90182W        W91046  14.272  17.455   4.226
90183W        W91047  11.094  18.197   4.368
90184W        W91048  11.784  18.112   4.696
90185W        W91049  11.658  14.870   6.104
90186W        W91050  14.232  15.720   6.402
90187W        W91051  13.484  16.090   5.067
90188W        W91052  13.514  16.020   3.802
90189W        W91053  12.799  17.201   5.848
90190W        W91054  12.775  15.393   5.139
90191W        W91055  13.158  17.553   6.025
90192W        W91056  13.653  16.226   4.612
90193W        W91057  13.110  14.946   4.491
90194W        W91058  11.465  17.795   4.449
90195W        W91059  11.114  15.240   4.858
90196W        W91060  13.633  15.778   5.440
90197W        W91061  11.418  17.480   5.449
90198W        W91062  12.472  17.848   4.064
90199W        W91063  13.798  15.773   3.474
90200W        W91064  11.138  17.516   5.878
90201W        W91065  11.891  17.344   6.285
90202W        W91066  12.326  16.508   4.884
90203W        W91067  12.111  15.051   5.891
90204W        W91068  14.493  14.775   5.573
90205W        W91069  11.579  16.510   3.400
90206W        W91070  11.297  15.489   3.708
90207W        W91071  11.360  17.518   4.924
90208W        W91072  12.396  16.997   5.016
90209W        W91073  13.998  17.868   6.629
90210W        W91074  12.841  15.375   4.296
90211W        W91075  14.181  18.058   5.310
90212W        W91076  13.882  15.960   6.842
90213W        W91077  14.561  17.462   5.109
90214W        W91078  13.201  16.711   6.395
90215W        W91079  11.064  16.370   4.713
90216W        W91080  11.920  16.832   6.123
90217W        W91081  13.066  15.887   4.493
90218W        W91082  13.150  16.388   4.630
90219W        W91083  11.451  15.786   6.110
90220W        W91084  11.526  15.856   6.638
90221W        W91085  11.385  14.695   5.288
90222W        W91086  13.039  15.139   5.537
90223W        W91087  12.734  15.187   6.859
90224W        W91088  13.122  15.194   3.879
90225W        W91089  14.507  17.799   6.859
90226W        W91090  13.106  14.805   6.897
90227W        W91091  14.139  17.176   7.061
90228W        W91092  13.742  15.260   6.566
90229W        W91093  13.541  15.138   4.797
90230W        W91094  13.654  16.380   7.294
90231W        W91095  11.576  17.920   5.192
90232W        W91096  12.390  15.546   4.151
90233W        W91097  11.768  14.961   6.833
90234W        W91098  13.836  15.393   4.452
90235W        W91099  14.001  15.858   4.516
90236W        W91100  12.065  18.116   6.938
90237W        W91101  11.889  14.796   4.286
90238W        W91102  14.265  15.151   5.290
90239W        W91103  14.464  17.433   3.722
90240W        W91104  11.173  16.550   5.502
90241W        W91105  13.357  15.140   3.437
90242W        W91106  14.445  17.687   5.545
90243W        W91107  14.293  14.782   6.046
90244W        W91108  12.996  15.990   6.638
90245W        W91109  12.785  17.029   4.499
90246W        W91110  13.214  16.674   7.254
90247W        W91111  13.123  14.660   5.384
90248W        W91112  11.544  15.601   5.522
90249W        W91113  11.327  16.777   6.355
90250W        W91114  13.195  17.632   5.062
90251W        W91115  14.100  15.892   5.889
90252W        W91116  12.963  17.958   6.497
90253W        W91117  14.136  16.531   3.781
90254W        W91118  12.721  16.182   4.826
90255W        W91119  14.422  14.700   6.534
90256W        W91120  12.735  16.814   6.186
90257W        W91121  12.869  15.644   5.563
90258W        W91122  13.536  15.841   4.279
90259W        W91123  13.949  15.678   4.009
90260W        W91124  13.914  17.697   4.517
90261W        W91125  13.690  17.162   5.357
90262W        W91126  13.422  16.358   4.178
90263W        W91127  13.058  16.380   5.235
90264W        W91128  13.864  16.676   5.357
90265W        W91129  11.379  15.300   5.910
90266W        W91130  14.080  16.411   6.628
90267W        W91131  14.390  18.098   5.813
90268W        W91132  12.335  17.499   5.099
90269W        W91133  13.537  18.015   6.421
90270W        W91134  13.328  15.310   6.236
90271W        W91135  12.472  17.985   6.208
90272W        W91136  14.156  15.003   4.555
90273W        W91137  13.914  16.396   5.896
90274W        W91138  11.011  15.523   6.180
90275W        W91139  13.803  15.376   5.156
90276W        W91140  14.129  15.492   6.846
90277W        W91141  13.265  17.088   5.021
90278W        W91142  12.611  17.923   4.980
90279W        W91143  11.497  15.014   4.047
90280W        W91144  12.705  14.780   5.762
90281W        W91145  11.332  18.141   3.817
90282W        W91146  12.137  16.382   4.417
90283W        W91147  12.776  16.911   6.707
90284W        W91148  12.673  15.099   4.732
90285W        W91149  13.933  14.816   5.032
90286W        W91150  13.705  18.158   5.474
90287W        W91151  13.135  17.841   5.562
90288W        W91152  12.412  16.828   5.745
90289W        W91153  14.285  17.561   6.069
90290W        W91154  11.922  15.069   4.703
90291W        W91155  12.383  17.326   5.578
90292W        W91156  11.792  15.343   3.627
90293W        W91157  12.713  15.839   6.015
90294W        W91158  13.468  14.773   5.791
90295W        W91159  11.000  16.541   6.008
90296W        W91160  12.453  16.386   3.945
90297W        W91161  11.879  14.807   3.700
90298W        W91162  12.653  15.664   4.711
90299W        W91163  13.436  14.851   6.500
90300W        W91164  12.285  16.874   6.517
90301W        W91165  13.059  16.464   6.818
90302W        W91166  13.572  16.577   6.805
90303W        W91167  12.712  14.844   7.238
90304W        W91168  12.031  15.433   5.455
90305W        W91169  11.615  15.319   5.075
90306W        W91170  11.205  18.009   4.842
90307W        W91171  12.847  17.443   6.780
90308W        W91172  11.796  16.926   4.346
90309W        W91173  13.501  16.339   5.506
90310W        W91174  13.575  16.001   5.895
90311W        W91175  12.913  16.637   5.727
90312W        W91176  13.297  16.966   3.798
90313W        W91177  13.106  15.012   5.018
90314W        W91178  14.340  15.461   4.350
90315W        W91179  11.173  17.967   6.681
90316W        W91180  11.472  17.140   6.018
90317W        W91181  10.596  18.005   4.370
90318W        W91182  12.842  15.301   5.985
90319W        W91183  12.290  17.393   3.841
90320W        W91184  14.162  17.946   4.110
90321W        W91185  12.940  16.217   4.101
90322W        W91186  12.184  15.496   4.648
90323W        W91187  12.681  15.397   3.732
90324W        W91188  13.276  17.025   6.800
90325W        W91189  13.658  14.915   4.359
90326W        W91190  10.996  14.619   3.996
90327W        W91191  12.352  17.196   6.107
90328W        W91192  12.054  16.752   5.341
90329W        W91193  11.904  17.330   3.471
90330W        W91194  10.962  17.686   4.532
90331W        W91195  11.756  16.262   6.912
90332W        W91196  12.265  14.976   6.960
90333W        W91197  12.949  14.999   6.424
90334W        W91198  12.306  14.728   4.833
90335W        W91199  13.204  14.711   4.030
90336W        W91200  11.270  14.800   5.781
90337W        W91201  11.153  15.644   5.175
90338W        W91202  13.974  14.852   5.601
90339W        W91203  11.494  15.309   4.519
90340W        W91204  13.805  15.025   6.092
90341W        W91205  14.217  15.992   3.665
90342W        W91206  11.690  15.087   5.583
90343W        W91207  12.854  15.523   6.444
90344W        W91208  10.998  15.137   3.939
90345W        W91209  11.800  16.681   6.602
90346W        W91210  13.067  16.108   5.708
90347W        W91211  12.934  18.027   3.894
90348W        W91212  10.966  16.458   3.553
90349W        W91213  11.924  17.159   6.789
90350W        W91214  11.295  16.255   6.325
90351W        W91215  12.335  16.515   6.156
90352W        W91216  13.920  14.664   6.446
90353W        W91217  14.586  16.328   6.547
90354W        W91218  14.372  15.942   4.161
90355W        W91219  13.063  16.719   4.191
90356W        W91220  13.885  18.084   3.674
90357W        W91221  12.985  16.182   7.269
90358W        W91222  11.510  17.214   7.096
90359W        W91223  14.480  15.161   7.115
90360W        W91224  13.971  16.165   5.452
90361W        W91225  12.506  18.041   7.209
90362W        W91226  12.292  14.663   3.993
90363W        W91227  14.103  17.065   3.883
90364W        W91228  11.879  15.456   6.784
90365W        W91229  12.347  17.377   6.607
90366W        W91230  14.222  15.195   6.353
90367W        W91231  13.678  18.200   4.163
90368W        W91232  13.703  16.859   5.805
90369W        W91233  11.980  15.172   6.372
90370W        W91234  12.565  16.169   6.977
90371W        W91235  11.829  17.351   4.658
90372W        W91236  13.443  16.813   4.534
90373W        W91237  11.492  15.362   6.419
90374W        W91238  12.796  17.320   4.909
90375W        W91239  14.397  16.027   5.242
90376W        W91240  12.622  14.703   6.708
90377W        W91241  13.608  17.372   5.841
90378W        W91242  13.969  17.780   5.707
90379W        W91243  12.734  17.375   4.109
90380W        W91244  11.108  17.490   6.896
90381W        W91245  11.851  15.495   5.942
90382W        W91246  11.853  14.857   5.155
90383W        W91247  13.316  15.537   5.773
90384W        W91248  12.166  16.889   3.756
90385W        W91249  14.209  16.805   5.729
90386W        W91250  11.602  17.673   6.852
90387W        W91251  14.007  18.213   4.581
90388W        W91252  12.275  15.184   5.075
90389W        W91253  11.675  16.391   5.431
90390W        W91254  12.095  18.298   6.045
90391W        W91255  14.192  18.207   6.971
90392W        W91256  13.358  16.478   5.966
90393W        W91257  11.144  15.999   3.692
90394W        W91258  14.275  17.830   4.860
90395W        W91259  14.044  15.146   4.048
90396W        W91260  12.159  14.594   6.399
90397W        W91261  14.052  17.552   5.228
90398W        W91262  13.954  15.863   5.024
90399W        W91263  12.356  15.687   5.141
90400W        W91264  12.508  15.929   6.488
90401W        W91265  13.534  17.129   6.353
90402W        W91266  12.362  15.437   6.597
90403W        W91267  12.080  17.953   5.077
90404W        W91268  11.564  18.183   6.965
90405W        W91269  11.722  17.813   3.581
90406W        W91270  14.190  17.308   4.764
90407W        W91271  11.965  15.743   6.381
90408W        W91272  14.361  15.468   3.769
90409W        W91273  12.292  16.870   4.502
90410W        W91274  13.394  16.240   6.437
90411W        W91275  13.186  15.835   6.174
90412W        W91276  11.768  16.197   6.149
90413W        W91277  13.978  18.043   6.134
90414W        W91278  13.621  14.927   7.008
90415W        W91279  11.278  14.883   6.727
90416W        W91280  11.874  15.958   5.686
90417W        W91281  12.203  15.662   3.658
90418W        W91282  11.075  17.502   6.383
90419W        W91283  12.550  16.276   5.757
90420W        W91284  12.237  15.159   3.840
90421W        W91285  11.843  16.321   4.955
90422W        W91286  11.136  17.971   6.152
90423W        W91287  13.911  16.205   4.129
90424W        W91288  14.105  14.987   6.820
90425W        W91289  13.667  17.433   4.904
90426W        W91290  11.218  16.273   6.830
90427W        W91291  14.219  14.643   4.064
90428W        W91292  13.844  17.160   4.396
90429W        W91293  12.536  16.013   4.348
90430W        W91294  13.611  14.983   3.853
90431W        W91295  13.779  15.563   6.134
90432W        W91296  11.301  16.151   5.167
90433W        W91297  11.734  17.197   5.150
90434W        W91298  13.542  15.674   4.775
90435W        W91299  12.506  15.264   5.583
90436W        W91300  14.498  17.091   6.233
90437W        W91301  14.261  15.266   5.823
90438W        W91302  11.017  17.802   5.271
90439W        W91303  11.427  17.040   4.727
90440W        W91304  11.369  14.945   7.251
90441W        W91305  12.550  17.519   7.206
90442W        W91306  14.376  16.567   5.302
90443W        W91307  13.713  16.743   4.018
90444W        W91308  12.984  18.060   5.999
90445W        W91309  13.639  16.973   7.158
90446W        W91310  12.630  14.632   4.431
90447W        W91311  13.301  15.450   5.223
90448W        W91312  11.051  17.008   5.710
90449W        W91313  12.327  15.061   4.361
90450W        W91314  12.233  16.562   6.925
90451W        W91315  13.103  15.422   4.732
90452W        W91316  13.241  16.989   5.945
90453W        W91317  11.544  17.741   6.358
90454W        W91318  12.097  17.620   6.990
90455W        W91319  11.908  15.326   4.201
90456W        W91320  13.363  15.359   4.293
90457W        W91321  13.307  17.571   6.558
90458W        W91322  12.186  16.203   5.329
90459W        W91323  11.601  18.150   6.015
90460W        W91324  14.364  17.923   3.632
90461W        W91325  11.363  16.767   6.872
90462W        W91326  13.311  16.811   5.455
90463W        W91327  11.905  16.826   4.846
90464W        W91328  12.168  17.665   5.930
90465W        W91329  12.673  14.899   5.236
90466W        W91330  11.160  16.763   4.365
90467W        W91331  12.621  15.906   3.829
90468W        W91332  11.426  16.653   5.062
90469W        W91333  12.468  14.996   6.266
90470W        W91334  14.324  14.913   3.620
90471W        W91335  14.037  16.656   7.068
90472W        W91336  12.972  17.890   7.025
90473W        W91337  14.432  16.819   6.668
90474W        W91338  14.053  17.689   7.098
90475W        W91339  11.900  18.074   5.590
90476W        W91340  14.298  16.752   4.829
90477W        W91341  13.041  15.841   5.031
90478W        W91342  12.868  14.563   4.905
90479W        W91343  12.349  15.484   6.081
90480W        W91344  12.245  14.823   5.468
90481W        W91345  10.945  17.832   4.013
90482W        W91346  12.843  16.723   4.908
90483W        W91347  12.053  17.807   6.482
90484W        W91348  11.563  16.525   4.580
90485W        W91349  11.223  15.181   5.402
90486W        W91350  12.809  17.024   5.355
90487W        W91351  11.136  14.943   4.421
90488W        W91352  13.860  16.068   6.318
90489W        W91353  13.523  15.493   3.798
90490W        W91354  14.087  17.291   5.675
90491W        W91355  12.775  17.560   5.349
90492W        W91356  12.266  17.880   4.583
90493W        W91357  13.410  14.638   3.544
90494W        W91358  11.330  17.956   5.638
90495W        W91359  13.154  15.694   7.177
90496W        W91360  11.406  15.348   6.929
90497W        W91361  11.144  15.736   4.661
90498W        W91362  12.026  15.868   4.313
90499W        W91363  13.401  16.087   6.954
90500W        W91364  12.037  16.450   5.768
90501W        W91365  13.434  14.627   4.949
90502W        W91366  12.814  18.204   5.357
90503W        W91367  13.787  17.573   6.272
90504W        W91368  13.581  17.665   5.397
90505W        W91369  13.475  16.592   5.006
90506W        W91370  12.705  14.955   4.024
90507W        W91371  14.468  14.751   5.023
90508W        W91372  12.110  16.392   3.515
90509W        W91373  14.185  15.438   4.845
90510W        W91374  12.891  16.577   3.719
90511W        W91375  13.925  16.941   6.650
90512W        W91376  13.964  17.566   3.816
90513W        W91377  12.290  15.461   7.107
90514W        W91378  12.234  16.021   6.062
90515W        W91379  14.209  17.389   6.570
90516W        W91380  13.226  15.301   6.745
90517W        W91381  11.001  15.880   6.554
90518W        W91382  12.909  16.302   6.177
90519W        W91383  11.197  17.090   5.220
90520W        W91384  11.365  16.095   5.709
90521W        W91385  13.722  16.636   6.299
90522W        W91386  13.556  17.878   6.935
90523W        W91387  13.496  15.733   6.558
90524W        W91388  13.773  17.943   4.988
90525W        W91389  12.702  17.552   6.298
90526W        W91390  12.379  17.873   5.478
90527W        W91391  14.001  17.094   6.150
90528W        W91392  12.900  17.114   7.168
90529W        W91393  11.562  16.906   5.534
90530W        W91394  13.825  16.944   4.894
90531W        W91395  13.511  17.917   5.909
90532W        W91396  11.659  17.632   5.876
90533W        W91397  12.704  15.686   6.919
90534W        W91398  12.758  17.706   4.523
90535W        W91399  12.392  17.056   7.018
90536W        W91400  12.368  17.365   4.599
90537W        W91401  11.576  15.840   3.411
90538W        W91402  10.969  18.180  10.643
90539W        W91403  11.328  17.048  10.105
90540W        W91404  13.764  16.672   8.154
90541W        W91405  14.269  18.001  10.037
90542W        W91406  12.048  17.952   7.442
90543W        W91407  12.191  15.997   8.385
90544W        W91408  11.748  15.926   8.750
90545W        W91409  12.664  16.643   8.034
90546W        W91410  12.356  17.977  10.106
90547W        W91411  11.035  15.317  10.204
90548W        W91412  11.567  14.528  10.052
90549W        W91413  13.512  14.994   9.062
90550W        W91414  12.926  15.800   7.643
90551W        W91415  13.660  15.336  10.514
90552W        W91416  11.304  15.010   9.880
90553W        W91417  11.129  17.679  10.710
90554W        W91418  12.393  17.228   7.669
90555W        W91419  11.270  15.767   9.297
90556W        W91420  12.222  15.854  10.473
90557W        W91421  14.300  15.461   9.174
90558W        W91422  14.179  16.601  10.004
90559W        W91423  12.553  15.937   8.790
90560W        W91424  13.182  17.525   9.482
90561W        W91425  11.618  16.702   9.480
90562W        W91426  10.884  16.116   9.206
90563W        W91427  12.124  16.409  10.139
90564W        W91428  14.136  16.044  10.576
90565W        W91429  11.885  17.411   8.953
90566W        W91430  12.862  17.348   9.954
90567W        W91431  12.214  15.821   9.179
90568W        W91432  12.495  16.629   8.955
90569W        W91433  13.218  17.396  10.932
90570W        W91434  12.497  16.718  10.678
90571W        W91435  12.639  16.549  10.208
90572W        W91436  10.994  15.653  10.604
90573W        W91437  13.675  17.292  10.684
90574W        W91438  11.422  14.860   8.454
90575W        W91439  11.943  17.151   9.459
90576W        W91440  14.218  16.962   8.969
90577W        W91441  13.845  15.311   9.340
90578W        W91442  13.936  15.337   7.336
90579W        W91443  14.636  16.136   9.859
90580W        W91444  12.450  18.048   9.351
90581W        W91445  14.081  17.217   8.035
90582W        W91446  11.435  18.166   8.017
90583W        W91447  11.825  18.132   8.404
90584W        W91448  11.798  14.933   9.689
90585W        W91449  14.174  15.985  10.060
90586W        W91450  13.380  16.305   8.632
90587W        W91451  13.367  16.071   7.627
90588W        W91452  12.806  17.200   9.444
90589W        W91453  12.628  15.429   8.774
90590W        W91454  13.289  17.645   9.962
90591W        W91455  13.774  16.182   8.341
90592W        W91456  13.103  14.989   8.286
90593W        W91457  11.656  17.726   8.124
90594W        W91458  11.072  15.223   8.570
90595W        W91459  13.238  15.917   8.949
90596W        W91460  11.278  17.495   9.017
90597W        W91461  12.455  17.754   7.679
90598W        W91462  13.735  15.853   7.347
90599W        W91463  11.025  17.532   9.488
90600W        W91464  11.766  17.278   9.917
90601W        W91465  12.144  16.686   8.574
90602W        W91466  12.307  15.007   9.546
90603W        W91467  14.443  14.748   9.266
90604W        W91468  11.824  16.781   7.135
90605W        W91469  11.361  15.434   7.437
90606W        W91470  11.522  17.466   8.569
90607W        W91471  12.212  17.198   8.596
90608W        W91472  13.824  17.763  10.535
90609W        W91473  12.928  15.413   7.984
90610W        W91474  14.189  18.077   9.017
90611W        W91475  13.704  15.866  10.271
90612W        W91476  14.653  17.443   8.818
90613W        W91477  13.132  16.721  10.150
90614W        W91478  10.996  16.230   8.330
90615W        W91479  12.038  16.772   9.783
90616W        W91480  13.184  15.849   8.077
90617W        W91481  12.998  16.537   8.408
90618W        W91482  11.658  15.802   9.631
90619W        W91483  11.409  15.692  10.256
90620W        W91484  11.398  14.674   8.920
90621W        W91485  13.115  14.952   9.382
90622W        W91486  12.944  15.295  10.388
90623W        W91487  13.237  15.065   7.778
90624W        W91488  14.341  17.788  10.601
90625W        W91489  13.176  14.857  10.430
90626W        W91490  14.206  17.215  10.693
90627W        W91491  13.833  15.401  10.037
90628W        W91492  13.487  15.192   8.591
90629W        W91493  13.804  16.336  10.862
90630W        W91494  11.632  17.887   8.911
90631W        W91495  12.468  15.477   7.783
90632W        W91496  11.723  14.976  10.239
90633W        W91497  13.862  15.446   8.365
90634W        W91498  14.141  15.857   8.219
90635W        W91499  12.076  18.175  10.512
90636W        W91500  11.868  14.723   7.851
90637W        W91501  13.972  15.190   8.851
90638W        W91502  14.498  17.516   7.308
90639W        W91503  11.244  16.643   9.114
90640W        W91504  13.239  15.192   7.257
90641W        W91505  14.363  17.610   9.196
90642W        W91506  14.389  14.721   9.801
90643W        W91507  12.961  16.123  10.316
90644W        W91508  12.747  17.162   8.054
90645W        W91509  13.345  16.405  11.102
90646W        W91510  13.110  14.620   8.948
90647W        W91511  11.746  15.586   9.128
90648W        W91512  11.389  16.575   9.948
90649W        W91513  12.977  17.773   8.704
90650W        W91514  14.163  15.603   9.685
90651W        W91515  12.851  17.818  10.185
90652W        W91516  14.014  16.673   7.582
90653W        W91517  12.538  16.357   8.496
90654W        W91518  14.464  14.732  10.314
90655W        W91519  12.768  16.851   9.813
90656W        W91520  12.804  15.725   9.188
90657W        W91521  13.679  15.804   7.994
90658W        W91522  14.099  15.764   7.707
90659W        W91523  13.899  17.552   8.388
90660W        W91524  13.579  17.382   9.183
90661W        W91525  13.358  16.337   8.092
90662W        W91526  12.904  16.324   8.898
90663W        W91527  13.844  16.510   9.313
90664W        W91528  11.487  15.318   9.479
90665W        W91529  13.845  16.373  10.325
90666W        W91530  14.347  18.013   9.509
90667W        W91531  12.374  17.610   8.879
90668W        W91532  13.545  18.142  10.320
90669W        W91533  13.463  15.225   9.642
90670W        W91534  12.646  18.277   9.770
90671W        W91535  14.107  14.990   8.388
90672W        W91536  14.205  16.141   9.550
90673W        W91537  11.199  15.578   9.790
90674W        W91538  13.613  15.552   8.938
90675W        W91539  14.153  15.558  10.416
90676W        W91540  13.084  17.335   8.970
90677W        W91541  12.502  17.881   8.466
90678W        W91542  11.430  15.006   7.757
90679W        W91543  12.719  14.631   9.288
90680W        W91544  11.555  18.120   7.504
90681W        W91545  12.198  16.434   8.101
90682W        W91546  12.745  17.034  10.329
90683W        W91547  12.618  15.171   8.308
90684W        W91548  13.895  14.697   8.769
90685W        W91549  13.668  18.212   9.167
90686W        W91550  12.995  18.067   9.438
90687W        W91551  12.409  16.878   9.412
90688W        W91552  14.181  17.578   9.731
90689W        W91553  11.859  15.032   8.263
90690W        W91554  12.358  17.418   9.346
90691W        W91555  11.818  15.272   7.259
90692W        W91556  12.688  15.928   9.655
90693W        W91557  13.537  14.725   9.573
90694W        W91558  11.061  16.694   9.603
90695W        W91559  12.560  16.338   7.574
90696W        W91560  11.913  14.782   7.322
90697W        W91561  12.615  15.705   8.290
90698W        W91562  13.555  14.971  10.078
90699W        W91563  12.266  16.909  10.237
90700W        W91564  12.996  16.571  10.632
90701W        W91565  13.497  16.682  10.526
90702W        W91566  12.790  14.993  10.797
90703W        W91567  12.222  15.319   9.110
90704W        W91568  11.696  15.296   8.688
90705W        W91569  11.327  17.955   8.488
90706W        W91570  12.822  17.495  10.579
90707W        W91571  11.918  17.008   7.756
90708W        W91572  13.357  16.510   9.099
90709W        W91573  13.533  16.128   9.401
90710W        W91574  12.862  16.635   9.345
90711W        W91575  13.260  17.095   7.548
90712W        W91576  14.318  15.382   8.126
90713W        W91577  11.122  17.882  10.236
90714W        W91578  11.345  17.138   9.609
90715W        W91579  10.946  18.030   8.124
90716W        W91580  12.980  15.432   9.619
90717W        W91581  11.982  17.538   7.765
90718W        W91582  14.279  17.736   8.086
90719W        W91583  13.038  16.455   7.707
90720W        W91584  12.161  15.463   8.214
90721W        W91585  12.755  15.376   7.354
90722W        W91586  13.229  17.126  10.470
90723W        W91587  13.627  14.941   8.134
90724W        W91588  11.024  14.669   7.623
90725W        W91589  12.367  17.189   9.811
90726W        W91590  12.080  16.932   9.024
90727W        W91591  12.010  17.242   7.312
90728W        W91592  11.157  17.555   8.203
90729W        W91593  11.643  16.305  10.289
90730W        W91594  12.152  15.033  10.556
90731W        W91595  13.075  14.961   9.912
90732W        W91596  12.241  14.702   8.366
90733W        W91597  13.157  14.585   7.944
90734W        W91598  11.392  14.816   9.412
90735W        W91599  11.316  15.644   8.791
90736W        W91600  13.944  14.811   9.267
90737W        W91601  11.430  15.318   8.196
90738W        W91602  13.954  15.002   9.736
90739W        W91603  14.133  16.170   7.285
90740W        W91604  11.791  15.071   9.167
90741W        W91605  12.814  15.674  10.087
90742W        W91606  10.939  15.175   7.640
90743W        W91607  11.765  16.800  10.223
90744W        W91608  13.039  16.156   9.367
90745W        W91609  12.868  18.055   7.611
90746W        W91610  11.013  16.211   7.307
90747W        W91611  11.937  17.270  10.398
90748W        W91612  11.336  16.072   9.934
90749W        W91613  12.446  16.448   9.718
90750W        W91614  13.986  14.687  10.138
90751W        W91615  14.548  16.366  10.313
90752W        W91616  14.199  16.386   8.140
90753W        W91617  13.163  16.846   8.029
90754W        W91618  13.835  18.083   7.351
90755W        W91619  12.884  16.181  10.966
90756W        W91620  11.511  17.042  10.602
90757W        W91621  14.565  15.106  10.821
90758W        W91622  13.908  15.804   9.287
90759W        W91623  12.575  17.980  10.600
90760W        W91624  12.350  14.641   7.638
90761W        W91625  13.770  17.136   7.634
90762W        W91626  11.912  15.460  10.381
90763W        W91627  12.422  17.480  10.224
90764W        W91628  14.291  15.171  10.091
90765W        W91629  13.879  18.028   7.882
90766W        W91630  13.692  16.938   9.531
90767W        W91631  12.143  15.145  10.026
90768W        W91632  12.544  16.229  10.588
90769W        W91633  11.855  17.265   8.216
90770W        W91634  13.422  16.816   8.535
90771W        W91635  11.665  15.387   9.948
90772W        W91636  12.694  17.390   8.525
90773W        W91637  14.348  15.958   9.085
90774W        W91638  12.625  14.876  10.319
90775W        W91639  13.676  17.435   9.675
90776W        W91640  13.893  17.769   9.325
90777W        W91641  12.869  17.433   7.606
90778W        W91642  11.019  17.211  10.485
90779W        W91643  11.988  15.417   9.561
90780W        W91644  11.855  14.803   8.736
90781W        W91645  13.367  15.652   9.374
90782W        W91646  12.274  16.764   7.435
90783W        W91647  14.329  16.744   9.480
90784W        W91648  11.446  17.486  10.325
90785W        W91649  14.103  18.149   8.371
90786W        W91650  12.224  15.130   8.633
90787W        W91651  11.733  16.552   8.961
90788W        W91652  12.130  18.250   9.703
90789W        W91653  14.064  18.240  10.472
90790W        W91654  13.334  16.566   9.625
90791W        W91655  11.187  15.793   7.040
90792W        W91656  14.325  17.775   8.624
90793W        W91657  13.863  15.325   7.859
90794W        W91658  12.121  14.639   9.947
90795W        W91659  14.005  17.419   8.880
90796W        W91660  13.749  16.088   8.904
90797W        W91661  12.142  15.619   8.713
90798W        W91662  12.493  16.073  10.093
90799W        W91663  13.616  17.291  10.165
90800W        W91664  12.281  15.627   9.964
90801W        W91665  12.132  18.051   8.827
90802W        W91666  11.562  17.957  10.518
90803W        W91667  11.653  17.634   7.360
90804W        W91668  13.906  17.022   8.528
90805W        W91669  11.867  15.898  10.090
90806W        W91670  14.343  15.637   7.284
90807W        W91671  12.269  16.956   8.132
90808W        W91672  13.392  16.279  10.102
90809W        W91673  13.189  15.900   9.804
90810W        W91674  11.778  16.303   9.757
90811W        W91675  13.899  18.221   9.678
90812W        W91676  13.671  14.777  10.529
90813W        W91677  11.254  14.841  10.369
90814W        W91678  11.768  16.104   9.236
90815W        W91679  12.053  15.668   7.515
90816W        W91680  10.964  17.398  10.001
90817W        W91681  12.532  16.213   9.254
90818W        W91682  12.286  15.115   7.466
90819W        W91683  11.799  16.333   8.464
90820W        W91684  11.291  18.159   9.846
90821W        W91685  13.826  16.244   7.793
90822W        W91686  14.110  15.052  10.565
90823W        W91687  13.515  17.329   8.673
90824W        W91688  11.203  16.113  10.455
90825W        W91689  14.087  14.842   7.881
90826W        W91690  13.571  17.159   8.146
90827W        W91691  12.774  16.150   8.046
90828W        W91692  13.665  14.962   7.550
90829W        W91693  13.688  15.794   9.759
90830W        W91694  11.326  16.161   8.931
90831W        W91695  11.724  16.989   8.649
90832W        W91696  13.488  15.790   8.500
90833W        W91697  12.689  15.147   9.204
90834W        W91698  14.527  17.155   9.751
90835W        W91699  14.438  15.184   9.597
90836W        W91700  11.048  17.946   8.920
90837W        W91701  11.352  17.062   8.257
90838W        W91702  11.196  14.772  10.868
90839W        W91703  12.634  17.438  11.071
90840W        W91704  14.255  16.453   9.041
90841W        W91705  13.511  16.663   7.696
90842W        W91706  13.155  18.156   9.943
90843W        W91707  13.851  16.849  10.877
90844W        W91708  12.647  14.646   8.069
90845W        W91709  13.135  15.377   8.999
90846W        W91710  11.008  17.084   9.216
90847W        W91711  12.283  15.018   7.970
90848W        W91712  11.998  16.846  10.699
90849W        W91713  13.058  15.498   8.489
90850W        W91714  13.277  17.095   9.804
90851W        W91715  11.383  17.636   9.846
90852W        W91716  12.152  17.679  10.621
90853W        W91717  11.876  15.259   7.783
90854W        W91718  13.413  15.397   8.129
90855W        W91719  13.316  17.642  10.467
90856W        W91720  12.147  16.245   8.867
90857W        W91721  11.730  17.951   9.671
90858W        W91722  14.376  18.011   7.417
90859W        W91723  11.211  16.656  10.436
90860W        W91724  13.247  16.982   9.298
90861W        W91725  11.787  16.760   8.194
90862W        W91726  12.144  17.653   9.747
90863W        W91727  12.639  14.803   8.692
90864W        W91728  11.025  16.727   7.723
90865W        W91729  12.509  15.849   7.373
90866W        W91730  11.373  16.581   8.597
90867W        W91731  12.632  15.214   9.922
90868W        W91732  14.108  14.837   7.329
90869W        W91733  14.217  16.583  10.625
90870W        W91734  13.093  18.102  10.585
90871W        W91735  14.436  17.011  10.250
90872W        W91736  14.007  17.575  11.013
90873W        W91737  11.808  18.267   9.270
90874W        W91738  13.851  16.545   8.704
90875W        W91739  12.976  16.014   8.504
90876W        W91740  12.967  14.490   8.438
90877W        W91741  12.007  17.666   8.510
90878W        W91742  12.479  15.498   9.513
90879W        W91743  12.274  14.813   9.061
90880W        W91744  11.286  17.729   7.730
90881W        W91745  12.622  16.879   8.506
90882W        W91746  11.882  17.735  10.174
90883W        W91747  11.330  16.544   8.091
90884W        W91748  11.288  15.171   9.030
90885W        W91749  12.585  17.138   8.974
90886W        W91750  11.054  14.958   8.115
90887W        W91751  13.800  16.305   9.805
90888W        W91752  13.417  15.534   7.619
90889W        W91753  14.075  17.228   9.375
90890W        W91754  12.779  17.678   9.184
90891W        W91755  12.170  17.942   8.069
90892W        W91756  13.227  14.705   7.392
90893W        W91757  11.314  17.968   9.355
90894W        W91758  13.209  15.799  10.994
90895W        W91759  11.424  15.293  10.556
90896W        W91760  11.069  15.701   8.336
90897W        W91761  12.328  15.962   7.871
90898W        W91762  13.369  16.186  10.629
90899W        W91763  12.089  16.485   9.340
90900W        W91764  13.439  14.668   8.548
90901W        W91765  12.663  18.126   8.902
90902W        W91766  13.787  17.807  10.009
90903W        W91767  13.324  17.829   9.086
90904W        W91768  13.002  16.827   8.862
90905W        W91769  12.736  15.005   7.724
90906W        W91770  14.408  14.744   8.757
90907W        W91771  12.132  16.197   7.291
90908W        W91772  14.063  15.693   8.758
90909W        W91773  12.779  16.885   7.603
90910W        W91774  13.933  16.932  10.370
90911W        W91775  14.072  17.612   7.617
90912W        W91776  12.454  15.396  10.377
90913W        W91777  12.171  16.010   9.646
90914W        W91778  14.107  17.448  10.245
90915W        W91779  13.310  15.455  10.058
90916W        W91780  10.924  15.838  10.122
90917W        W91781  12.930  16.345   9.841
90918W        W91782  11.219  17.038   8.753
90919W        W91783  11.329  16.264   9.461
90920W        W91784  13.630  16.754  10.011
90921W        W91785  13.462  17.859  10.908
90922W        W91786  13.255  15.706  10.490
90923W        W91787  13.776  17.876   8.783
90924W        W91788  12.661  17.734   9.698
90925W        W91789  12.020  17.798   9.261
90926W        W91790  14.032  17.089   9.883
90927W        W91791  12.860  17.043  10.826
90928W        W91792  11.553  17.064   9.133
90929W        W91793  13.687  16.923   9.002
90930W        W91794  13.478  17.945   9.583
90931W        W91795  11.607  17.530   9.397
90932W        W91796  12.757  15.756  10.633
90933W        W91797  12.793  17.698   8.073
90934W        W91798  12.384  17.215  10.667
90935W        W91799  12.335  17.467   8.149
90936W        W91800  11.701  15.777   7.140
90937W        W91801  10.902  18.135  14.423
90938W        W91802  11.358  17.154  13.687
90939W        W91803  14.242  16.718  11.651
90940W        W91804  14.422  17.833  13.681
90941W        W91805  12.361  17.862  11.059
90942W        W91806  12.413  16.073  12.290
90943W        W91807  11.980  15.852  12.559
90944W        W91808  12.778  16.732  11.680
90945W        W91809  12.594  17.824  14.180
90946W        W91810  11.019  15.348  13.955
90947W        W91811  11.710  14.471  13.866
90948W        W91812  13.653  15.038  12.709
90949W        W91813  13.250  15.789  11.523
90950W        W91814  13.671  15.504  14.279
90951W        W91815  11.144  15.087  13.529
90952W        W91816  11.265  17.763  14.470
90953W        W91817  12.454  16.973  11.134
90954W        W91818  11.074  15.798  12.910
90955W        W91819  12.183  15.885  14.181
90956W        W91820  14.462  15.528  12.731
90957W        W91821  14.175  16.638  13.507
90958W        W91822  12.747  16.155  12.680
90959W        W91823  13.277  17.456  13.040
90960W        W91824  11.831  16.541  13.024
90961W        W91825  10.992  16.331  12.831
90962W        W91826  12.134  16.366  13.961
90963W        W91827  14.272  16.116  14.226
90964W        W91828  11.898  17.406  12.770
90965W        W91829  13.078  17.284  13.802
90966W        W91830  12.438  15.950  13.041
90967W        W91831  12.596  16.641  12.782
90968W        W91832  13.515  17.607  14.524
90969W        W91833  12.807  16.675  14.610
90970W        W91834  12.719  16.530  14.055
90971W        W91835  10.876  15.734  14.274
90972W        W91836  13.826  17.267  14.260
90973W        W91837  11.109  14.748  12.119
90974W        W91838  11.941  17.413  13.287
90975W        W91839  14.367  16.961  12.601
90976W        W91840  13.990  15.359  12.995
90977W        W91841  13.996  15.411  10.930
90978W        W91842  14.793  16.119  13.420
90979W        W91843  12.597  17.791  13.191
90980W        W91844  14.307  17.554  11.469
90981W        W91845  11.335  18.066  10.986
90982W        W91846  11.761  18.382  12.496
90983W        W91847  11.684  14.948  13.568
90984W        W91848  14.196  15.918  13.720
90985W        W91849  13.641  16.328  12.179
90986W        W91850  13.631  16.007  11.251
90987W        W91851  12.847  17.316  13.325
90988W        W91852  12.826  15.328  12.501
90989W        W91853  13.209  17.675  13.501
90990W        W91854  14.139  16.359  12.029
90991W        W91855  13.257  14.900  11.900
90992W        W91856  10.896  15.137  12.387
90993W        W91857  13.556  15.967  12.555
90994W        W91858  12.697  17.713  11.782
90995W        W91859  13.702  15.805  10.782
90996W        W91860  10.932  17.530  13.133
90997W        W91861  11.884  17.228  13.760
90998W        W91862  12.270  16.678  12.402
90999W        W91863  12.024  15.107  13.186
91000W        W91864  14.487  14.758  12.807
91001W        W91865  11.514  16.387  10.776
91002W        W91866  11.373  15.210  11.059
91003W        W91867  11.472  17.530  12.351
91004W        W91868  12.518  17.136  12.540
91005W        W91869  13.940  17.777  13.969
91006W        W91870  12.888  15.427  11.636
91007W        W91871  14.152  18.080  12.521
91008W        W91872  13.825  15.942  14.065
91009W        W91873  14.569  17.366  12.297
91010W        W91874  13.194  16.766  13.802
91011W        W91875  10.773  16.053  12.089
91012W        W91876  12.039  16.844  13.408
91013W        W91877  13.241  16.065  11.966
91014W        W91878  13.192  16.595  11.982
91015W        W91879  11.524  15.822  13.407
91016W        W91880  11.378  15.804  14.039
91017W        W91881  11.342  14.757  12.600
91018W        W91882  13.108  15.114  12.943
91019W        W91883  12.849  15.234  14.199
91020W        W91884  13.150  15.139  11.292
91021W        W91885  14.479  17.675  14.165
91022W        W91886  13.522  14.809  14.139
91023W        W91887  14.315  17.174  14.335
91024W        W91888  13.822  15.500  13.786
91025W        W91889  13.608  15.177  12.213
91026W        W91890  13.867  16.346  14.446
91027W        W91891  11.650  17.874  12.743
91028W        W91892  12.419  15.450  11.378
91029W        W91893  11.883  14.941  14.093
91030W        W91894  13.912  15.426  11.885
91031W        W91895  14.262  15.885  11.805
91032W        W91896  12.091  17.998  14.358
91033W        W91897  11.760  14.546  11.534
91034W        W91898  14.191  15.125  12.587
91035W        W91899  14.524  17.453  11.017
91036W        W91900  11.363  16.678  12.909
91037W        W91901  13.243  15.279  10.805
91038W        W91902  14.408  17.430  12.841
91039W        W91903  14.398  14.773  13.397
91040W        W91904  13.017  16.089  14.167
91041W        W91905  12.886  17.211  11.916
91042W        W91906  13.463  16.680  14.654
91043W        W91907  13.193  14.593  12.833
91044W        W91908  11.577  15.719  12.881
91045W        W91909  11.465  16.694  13.422
91046W        W91910  13.193  17.863  12.584
91047W        W91911  14.406  15.713  13.264
91048W        W91912  13.078  17.903  13.942
91049W        W91913  14.213  16.521  11.141
91050W        W91914  12.733  16.478  12.256
91051W        W91915  14.514  14.774  13.905
91052W        W91916  12.722  16.940  13.705
91053W        W91917  12.918  15.671  12.892
91054W        W91918  13.709  15.888  11.746
91055W        W91919  14.010  15.632  11.421
91056W        W91920  14.023  17.613  11.912
91057W        W91921  13.874  17.133  12.639
91058W        W91922  13.526  16.356  11.651
91059W        W91923  13.102  16.593  12.834
91060W        W91924  13.995  16.230  12.566
91061W        W91925  11.547  15.332  13.225
91062W        W91926  13.989  16.396  13.924
91063W        W91927  14.480  17.891  13.128
91064W        W91928  12.384  17.631  12.607
91065W        W91929  13.565  18.008  13.688
91066W        W91930  13.472  15.400  13.419
91067W        W91931  12.617  18.180  13.519
91068W        W91932  14.235  15.002  12.074
91069W        W91933  14.185  16.182  13.280
91070W        W91934  11.088  15.555  13.361
91071W        W91935  13.835  15.521  12.536
91072W        W91936  14.181  15.580  14.159
91073W        W91937  13.231  17.315  12.540
91074W        W91938  12.524  17.962  12.211
91075W        W91939  11.311  14.856  11.432
91076W        W91940  12.732  14.721  13.122
91077W        W91941  11.851  17.942  10.955
91078W        W91942  12.352  16.442  11.923
91079W        W91943  12.888  16.984  14.189
91080W        W91944  12.743  15.025  12.055
91081W        W91945  14.099  14.658  12.443
91082W        W91946  13.638  18.132  12.717
91083W        W91947  13.069  17.971  13.096
91084W        W91948  12.524  16.884  13.231
91085W        W91949  14.230  17.478  13.338
91086W        W91950  11.567  14.834  11.912
91087W        W91951  12.393  17.341  13.029
91088W        W91952  11.858  15.354  10.881
91089W        W91953  12.747  15.913  13.447
91090W        W91954  13.523  14.828  13.177
91091W        W91955  10.974  16.620  13.255
91092W        W91956  12.541  16.340  11.431
91093W        W91957  11.682  14.895  10.743
91094W        W91958  13.035  15.819  12.393
91095W        W91959  13.609  14.968  13.668
91096W        W91960  12.252  16.867  13.874
91097W        W91961  13.170  16.571  14.267
91098W        W91962  13.641  16.714  14.165
91099W        W91963  12.918  14.888  14.579
91100W        W91964  12.087  15.557  12.962
91101W        W91965  11.403  15.186  12.324
91102W        W91966  11.188  17.968  12.495
91103W        W91967  12.991  17.486  14.276
91104W        W91968  12.259  16.800  11.570
91105W        W91969  13.588  16.507  12.697
91106W        W91970  13.723  16.155  13.041
91107W        W91971  13.019  16.799  13.311
91108W        W91972  13.329  16.894  10.965
91109W        W91973  13.194  14.950  12.424
91110W        W91974  14.403  15.384  11.748
91111W        W91975  11.194  17.993  14.010
91112W        W91976  11.202  17.089  13.204
91113W        W91977  10.788  18.045  11.748
91114W        W91978  12.958  15.455  13.352
91115W        W91979  12.488  17.273  11.577
91116W        W91980  13.999  17.965  11.453
91117W        W91981  13.045  16.288  11.506
91118W        W91982  12.658  15.615  12.096
91119W        W91983  12.819  15.450  11.056
91120W        W91984  13.354  17.108  14.337
91121W        W91985  13.786  14.895  11.831
91122W        W91986  10.965  14.502  11.251
91123W        W91987  12.364  17.272  13.551
91124W        W91988  12.148  16.916  12.854
91125W        W91989  12.112  17.400  11.075
91126W        W91990  11.040  17.569  12.029
91127W        W91991  11.597  16.294  14.141
91128W        W91992  12.554  14.814  14.164
91129W        W91993  13.122  14.997  13.484
91130W        W91994  12.345  14.781  12.295
91131W        W91995  13.499  14.793  11.403
91132W        W91996  11.353  14.874  13.121
91133W        W91997  11.101  15.624  12.424
91134W        W91998  14.038  14.847  13.024
91135W        W91999  11.165  15.174  11.858
91136W        W92000  14.035  15.145  13.454
91137W        W92001  14.119  15.985  11.084
91138W        W92002  11.720  15.225  12.753
91139W        W92003  12.903  15.632  13.848
91140W        W92004  10.845  14.988  11.170
91141W        W92005  11.745  16.734  13.847
91142W        W92006  13.211  16.096  12.905
91143W        W92007  12.937  17.826  10.975
91144W        W92008  10.946  16.366  10.816
91145W        W92009  12.079  17.180  14.249
91146W        W92010  11.349  16.227  13.672
91147W        W92011  12.516  16.478  13.604
91148W        W92012  14.014  14.654  13.717
91149W        W92013  14.505  16.365  13.821
91150W        W92014  14.504  16.258  11.512
91151W        W92015  13.276  16.769  11.482
91152W        W92016  13.924  18.082  10.932
91153W        W92017  13.118  16.265  14.660
91154W        W92018  11.561  17.152  14.164
91155W        W92019  14.455  15.136  14.283
91156W        W92020  14.091  15.845  12.867
91157W        W92021  12.530  18.069  14.635
91158W        W92022  12.250  14.649  11.342
91159W        W92023  14.186  17.075  11.208
91160W        W92024  11.904  15.471  14.005
91161W        W92025  12.535  17.316  14.047
91162W        W92026  14.375  15.415  13.718
91163W        W92027  13.743  18.392  11.295
91164W        W92028  13.775  16.713  13.146
91165W        W92029  12.171  15.120  13.692
91166W        W92030  12.581  16.223  14.449
91167W        W92031  12.031  17.242  11.828
91168W        W92032  13.774  16.746  11.905
91169W        W92033  11.485  15.412  13.725
91170W        W92034  12.837  17.552  12.320
91171W        W92035  14.409  15.942  12.431
91172W        W92036  13.040  14.808  13.965
91173W        W92037  13.783  17.347  13.093
91174W        W92038  14.031  17.781  12.921
91175W        W92039  12.939  17.129  11.342
91176W        W92040  11.110  17.468  14.043
91177W        W92041  11.952  15.554  13.484
91178W        W92042  11.816  14.875  12.376
91179W        W92043  13.537  15.667  12.975
91180W        W92044  12.227  16.519  11.069
91181W        W92045  14.198  16.544  12.906
91182W        W92046  11.594  17.636  13.941
91183W        W92047  14.080  18.154  11.952
91184W        W92048  12.223  15.224  12.563
91185W        W92049  11.767  16.717  12.538
91186W        W92050  12.106  18.243  13.431
91187W        W92051  14.217  18.118  14.237
91188W        W92052  13.354  16.419  13.290
91189W        W92053  11.246  15.939  10.940
91190W        W92054  14.431  17.825  12.124
91191W        W92055  13.888  15.142  11.406
91192W        W92056  12.206  14.604  13.829
91193W        W92057  14.101  17.569  12.443
91194W        W92058  13.946  15.898  12.198
91195W        W92059  12.478  15.681  12.613
91196W        W92060  12.578  16.064  13.912
91197W        W92061  13.576  17.107  13.859
91198W        W92062  12.383  15.599  13.816
91199W        W92063  12.194  18.112  12.593
91200W        W92064  11.598  18.142  14.302
91201W        W92065  11.669  17.504  10.781
91202W        W92066  14.102  17.138  12.156
91203W        W92067  11.819  15.946  13.818
91204W        W92068  14.515  15.756  11.351
91205W        W92069  12.459  16.951  12.028
91206W        W92070  13.454  16.290  13.959
91207W        W92071  13.275  15.900  13.379
91208W        W92072  11.848  16.353  13.505
91209W        W92073  14.007  17.941  13.407
91210W        W92074  13.851  15.031  14.454
91211W        W92075  11.371  14.906  13.982
91212W        W92076  11.921  16.033  13.100
91213W        W92077  12.344  15.523  10.855
91214W        W92078  10.789  17.433  13.629
91215W        W92079  12.806  16.343  13.175
91216W        W92080  12.330  15.046  11.040
91217W        W92081  11.941  16.301  12.261
91218W        W92082  11.065  18.156  13.550
91219W        W92083  14.002  16.250  11.528
91220W        W92084  14.042  15.085  13.983
91221W        W92085  13.649  17.369  12.218
91222W        W92086  11.067  16.204  14.104
91223W        W92087  14.285  14.860  11.583
91224W        W92088  13.951  17.165  11.654
91225W        W92089  12.738  16.094  11.873
91226W        W92090  13.666  15.025  10.965
91227W        W92091  13.896  15.723  13.337
91228W        W92092  11.617  16.228  12.676
91229W        W92093  12.029  17.146  12.353
91230W        W92094  13.504  15.668  12.148
91231W        W92095  12.586  15.226  12.945
91232W        W92096  14.513  17.043  13.487
91233W        W92097  14.484  15.214  13.146
91234W        W92098  10.725  17.857  12.751
91235W        W92099  11.533  17.031  12.155
91236W        W92100  11.443  14.994  14.645
91237W        W92101  12.790  17.611  14.744
91238W        W92102  14.447  16.447  12.470
91239W        W92103  13.783  16.713  11.368
91240W        W92104  13.132  18.237  13.556
91241W        W92105  13.953  16.846  14.547
91242W        W92106  12.486  14.602  11.823
91243W        W92107  13.323  15.434  12.579
91244W        W92108  10.974  16.962  12.759
91245W        W92109  12.075  14.920  11.745
91246W        W92110  12.365  16.739  14.351
91247W        W92111  13.121  15.364  12.091
91248W        W92112  13.417  17.104  13.387
91249W        W92113  11.255  17.669  13.541
91250W        W92114  12.304  17.567  14.524
91251W        W92115  11.827  14.952  11.232
91252W        W92116  13.454  15.333  11.688
91253W        W92117  13.453  17.564  14.010
91254W        W92118  12.191  16.287  12.713
91255W        W92119  11.702  17.908  13.327
91256W        W92120  14.387  17.945  11.103
91257W        W92121  11.228  16.674  13.921
91258W        W92122  13.433  16.985  12.878
91259W        W92123  11.953  16.762  12.010
91260W        W92124  12.209  17.764  13.527
91261W        W92125  12.746  14.847  12.627
91262W        W92126  10.517  16.873  12.045
91263W        W92127  12.763  15.866  11.366
91264W        W92128  11.228  16.624  12.423
91265W        W92129  12.684  15.165  13.717
91266W        W92130  14.160  14.835  11.054
91267W        W92131  14.391  16.629  14.387
91268W        W92132  13.020  17.979  14.438
91269W        W92133  14.582  16.891  13.973
91270W        W92134  14.070  17.652  14.461
91271W        W92135  11.871  18.268  12.987
91272W        W92136  14.485  16.801  12.124
91273W        W92137  13.188  16.315  12.421
91274W        W92138  12.821  14.531  12.235
91275W        W92139  11.970  17.695  12.321
91276W        W92140  12.441  15.506  13.333
91277W        W92141  12.286  14.797  12.842
91278W        W92142  10.945  17.766  11.230
91279W        W92143  12.956  16.915  12.370
91280W        W92144  12.119  17.626  14.009
91281W        W92145  10.909  16.547  11.966
91282W        W92146  11.192  15.273  12.820
91283W        W92147  12.902  17.057  12.880
91284W        W92148  10.837  14.772  11.675
91285W        W92149  13.724  16.138  13.561
91286W        W92150  13.553  15.483  11.197
91287W        W92151  14.195  17.021  13.077
91288W        W92152  12.837  17.548  12.825
91289W        W92153  12.184  17.803  11.819
91290W        W92154  13.233  14.735  10.929
91291W        W92155  11.233  17.978  13.086
91292W        W92156  13.156  15.625  14.311
91293W        W92157  11.459  15.337  14.240
91294W        W92158  10.797  15.533  12.011
91295W        W92159  12.389  16.012  11.019
91296W        W92160  13.477  15.999  14.422
91297W        W92161  12.287  16.427  13.177
91298W        W92162  13.610  14.664  12.284
91299W        W92163  12.712  18.029  12.710
91300W        W92164  13.718  17.531  13.565
91301W        W92165  13.627  17.606  12.679
91302W        W92166  13.483  16.870  12.348
91303W        W92167  12.654  14.985  11.466
91304W        W92168  14.601  14.710  12.317
91305W        W92169  12.034  16.319  10.635
91306W        W92170  14.260  15.498  12.241
91307W        W92171  12.868  16.650  11.156
91308W        W92172  14.070  16.890  13.974
91309W        W92173  13.667  17.212  11.205
91310W        W92174  12.328  15.268  14.192
91311W        W92175  12.240  16.011  13.521
91312W        W92176  14.208  17.361  13.847
91313W        W92177  13.299  15.278  13.932
91314W        W92178  10.954  15.839  13.765
91315W        W92179  13.013  16.293  13.675
91316W        W92180  11.453  17.107  12.647
91317W        W92181  11.425  16.241  13.152
91318W        W92182  13.663  16.656  13.638
91319W        W92183  13.519  18.018  14.204
91320W        W92184  13.388  15.787  13.869
91321W        W92185  13.728  17.904  12.259
91322W        W92186  12.698  17.666  13.691
91323W        W92187  12.117  17.819  13.014
91324W        W92188  13.938  17.079  13.507
91325W        W92189  13.080  17.096  14.780
91326W        W92190  11.694  17.029  13.083
91327W        W92191  13.980  16.697  12.387
91328W        W92192  13.571  17.860  13.160
91329W        W92193  11.475  17.510  13.090
91330W        W92194  12.652  15.709  14.293
91331W        W92195  13.056  17.952  12.083
91332W        W92196  12.605  17.160  14.568
91333W        W92197  12.394  17.446  12.120
91334W        W92198  11.704  15.896  10.618
91335W        W92199  11.064  18.126  17.944
91336W        W92200  11.490  16.992  17.616
91337W        W92201  14.271  16.671  15.449
91338W        W92202  14.401  18.013  17.308
91339W        W92203  12.100  17.895  14.894
91340W        W92204  12.649  16.047  15.785
91341W        W92205  11.953  15.849  16.271
91342W        W92206  12.961  16.350  15.472
91343W        W92207  12.441  17.903  17.602
91344W        W92208  11.027  15.354  17.610
91345W        W92209  11.496  14.625  17.425
91346W        W92210  13.569  14.985  16.324
91347W        W92211  13.287  15.666  14.805
91348W        W92212  13.698  15.438  17.936
91349W        W92213  11.159  14.990  17.250
91350W        W92214  11.217  17.651  18.105
91351W        W92215  12.642  16.914  15.038
91352W        W92216  11.239  15.887  16.534
91353W        W92217  12.157  15.787  17.865
91354W        W92218  14.269  15.613  16.404
91355W        W92219  14.268  16.678  17.210
91356W        W92220  12.730  16.144  16.298
91357W        W92221  13.236  17.441  16.600
91358W        W92222  11.679  16.663  16.753
91359W        W92223  10.915  16.281  16.550
91360W        W92224  12.130  16.200  17.581
91361W        W92225  14.347  16.107  17.922
91362W        W92226  11.911  17.459  16.360
91363W        W92227  13.015  17.227  17.352
91364W        W92228  12.337  15.911  16.608
91365W        W92229  12.565  16.648  16.381
91366W        W92230  13.310  17.497  18.089
91367W        W92231  12.678  16.603  18.132
91368W        W92232  12.643  16.459  17.631
91369W        W92233  10.882  15.669  17.978
91370W        W92234  13.739  17.275  17.864
91371W        W92235  11.329  14.793  15.834
91372W        W92236  11.956  17.120  16.766
91373W        W92237  14.432  17.110  16.221
91374W        W92238  13.490  15.248  16.768
91375W        W92239  14.198  15.387  14.651
91376W        W92240  14.469  16.189  17.068
91377W        W92241  12.516  17.949  16.777
91378W        W92242  14.485  17.102  15.217
91379W        W92243  11.336  18.154  15.299
91380W        W92244  11.817  18.218  15.783
91381W        W92245  11.708  14.817  17.001
91382W        W92246  14.107  15.686  17.313
91383W        W92247  13.617  16.265  15.947
91384W        W92248  13.608  16.209  14.883
91385W        W92249  12.759  17.211  16.896
91386W        W92250  12.783  15.294  16.176
91387W        W92251  13.203  17.623  17.093
91388W        W92252  14.089  16.269  15.752
91389W        W92253  13.096  14.933  15.461
91390W        W92254  11.703  17.818  15.458
91391W        W92255  10.933  15.108  15.983
91392W        W92256  13.743  15.643  16.505
91393W        W92257  11.396  17.534  16.408
91394W        W92258  12.566  17.879  15.123
91395W        W92259  13.965  15.844  14.572
91396W        W92260  11.161  17.570  16.866
91397W        W92261  11.794  17.268  17.286
91398W        W92262  12.298  16.806  15.958
91399W        W92263  12.204  15.006  16.981
91400W        W92264  14.569  14.736  16.452
91401W        W92265  11.847  16.730  14.346
91402W        W92266  11.388  15.504  14.731
91403W        W92267  11.580  17.530  15.912
91404W        W92268  12.299  17.329  15.944
91405W        W92269  13.990  17.861  17.564
91406W        W92270  12.977  15.495  15.211
91407W        W92271  14.228  18.057  16.255
91408W        W92272  13.869  15.939  17.709
91409W        W92273  14.632  17.473  15.922
91410W        W92274  13.205  16.735  17.388
91411W        W92275  10.333  16.524  15.930
91412W        W92276  11.974  16.788  17.147
91413W        W92277  13.123  15.857  15.573
91414W        W92278  13.118  16.210  15.945
91415W        W92279  11.424  15.757  17.011
91416W        W92280  11.391  15.737  17.729
91417W        W92281  11.391  14.750  16.342
91418W        W92282  13.064  15.008  16.528
91419W        W92283  12.790  15.143  17.792
91420W        W92284  13.275  15.132  14.976
91421W        W92285  14.472  17.808  17.783
91422W        W92286  13.237  14.653  17.568
91423W        W92287  14.246  17.172  17.980
91424W        W92288  13.748  15.316  17.432
91425W        W92289  13.554  15.157  15.823
91426W        W92290  13.918  16.338  18.104
91427W        W92291  11.685  17.937  16.217
91428W        W92292  12.491  15.482  15.044
91429W        W92293  11.859  14.910  17.886
91430W        W92294  13.904  15.472  15.617
91431W        W92295  14.227  15.859  15.473
91432W        W92296  12.067  18.018  17.979
91433W        W92297  11.842  14.718  15.214
91434W        W92298  14.386  15.137  16.189
91435W        W92299  14.548  17.532  14.649
91436W        W92300  11.240  16.663  16.483
91437W        W92301  13.326  15.177  14.463
91438W        W92302  14.491  17.624  16.414
91439W        W92303  14.354  14.757  16.971
91440W        W92304  13.008  16.063  17.689
91441W        W92305  12.920  16.870  15.485
91442W        W92306  13.458  16.514  18.294
91443W        W92307  13.199  14.546  16.311
91444W        W92308  11.613  15.536  16.528
91445W        W92309  11.465  16.650  17.222
91446W        W92310  13.176  17.842  16.196
91447W        W92311  14.062  15.377  16.830
91448W        W92312  13.021  17.908  17.490
91449W        W92313  14.284  16.701  14.931
91450W        W92314  12.738  16.550  15.892
91451W        W92315  14.455  14.717  17.486
91452W        W92316  12.703  16.823  17.239
91453W        W92317  12.781  15.660  16.538
91454W        W92318  13.701  15.955  15.538
91455W        W92319  13.874  15.787  15.084
91456W        W92320  14.275  17.412  15.574
91457W        W92321  13.908  17.151  16.319
91458W        W92322  13.465  16.382  15.370
91459W        W92323  13.060  16.579  16.296
91460W        W92324  13.968  16.220  16.363
91461W        W92325  11.421  15.226  16.880
91462W        W92326  14.039  16.406  17.601
91463W        W92327  14.402  18.006  16.753
91464W        W92328  12.339  17.713  16.283
91465W        W92329  13.540  18.002  17.377
91466W        W92330  13.250  15.480  17.219
91467W        W92331  12.676  18.172  17.209
91468W        W92332  14.279  15.080  15.666
91469W        W92333  14.016  16.404  16.852
91470W        W92334  11.010  15.462  17.102
91471W        W92335  13.912  15.339  16.134
91472W        W92336  14.225  15.586  17.807
91473W        W92337  13.186  17.327  16.094
91474W        W92338  12.500  17.993  15.846
91475W        W92339  11.446  15.065  15.165
91476W        W92340  12.731  14.668  16.743
91477W        W92341  11.602  18.002  14.802
91478W        W92342  12.490  16.566  15.415
91479W        W92343  12.771  16.953  17.728
91480W        W92344  12.688  15.014  15.768
91481W        W92345  13.974  14.842  16.026
91482W        W92346  13.700  18.110  16.369
91483W        W92347  13.029  17.920  16.690
91484W        W92348  12.389  16.816  16.824
91485W        W92349  14.249  17.604  17.048
91486W        W92350  11.765  15.044  15.617
91487W        W92351  12.308  17.488  16.758
91488W        W92352  11.888  15.266  14.499
91489W        W92353  12.812  15.854  17.016
91490W        W92354  13.429  14.725  16.756
91491W        W92355  11.027  16.598  16.966
91492W        W92356  12.737  16.336  15.000
91493W        W92357  11.928  14.797  14.694
91494W        W92358  12.972  15.744  16.058
91495W        W92359  13.405  14.984  17.210
91496W        W92360  12.290  16.834  17.556
91497W        W92361  13.117  16.568  17.868
91498W        W92362  13.597  16.715  17.761
91499W        W92363  12.802  14.798  18.179
91500W        W92364  12.135  15.440  16.534
91501W        W92365  11.480  15.225  16.128
91502W        W92366  11.346  18.002  15.803
91503W        W92367  12.891  17.494  17.777
91504W        W92368  11.967  16.837  15.563
91505W        W92369  13.516  16.460  16.460
91506W        W92370  13.622  16.074  16.757
91507W        W92371  12.927  16.690  16.796
91508W        W92372  13.627  17.162  14.802
91509W        W92373  13.139  14.969  16.027
91510W        W92374  14.554  15.449  15.405
91511W        W92375  11.138  17.783  17.569
91512W        W92376  11.423  17.080  16.920
91513W        W92377  10.763  18.001  15.234
91514W        W92378  12.912  15.316  16.901
91515W        W92379  12.372  17.402  15.022
91516W        W92380  14.355  17.604  15.106
91517W        W92381  13.168  16.047  15.113
91518W        W92382  12.626  15.533  15.647
91519W        W92383  12.868  15.376  14.692
91520W        W92384  13.252  17.086  17.793
91521W        W92385  13.824  14.935  15.464
91522W        W92386  11.073  14.744  14.942
91523W        W92387  12.305  17.194  17.172
91524W        W92388  12.392  17.138  16.402
91525W        W92389  12.139  17.031  14.736
91526W        W92390  11.199  17.582  15.519
91527W        W92391  11.658  16.171  17.831
91528W        W92392  12.329  14.763  17.974
91529W        W92393  12.900  14.968  17.297
91530W        W92394  12.219  14.766  15.762
91531W        W92395  13.422  14.667  15.176
91532W        W92396  11.182  14.740  16.811
91533W        W92397  11.033  15.566  16.176
91534W        W92398  14.075  14.884  16.526
91535W        W92399  11.303  15.292  15.650
91536W        W92400  13.853  14.934  16.975
91537W        W92401  14.310  16.212  14.731
91538W        W92402  11.801  15.049  16.562
91539W        W92403  12.744  15.466  17.383
91540W        W92404  10.966  15.240  14.995
91541W        W92405  11.822  16.604  17.593
91542W        W92406  13.092  16.182  16.674
91543W        W92407  12.963  18.156  14.932
91544W        W92408  11.151  16.534  14.471
91545W        W92409  11.943  17.144  17.792
91546W        W92410  11.366  16.143  17.373
91547W        W92411  12.356  16.442  17.199
91548W        W92412  13.898  14.811  17.454
91549W        W92413  14.567  16.414  17.532
91550W        W92414  14.507  16.248  15.208
91551W        W92415  13.433  16.936  15.365
91552W        W92416  13.833  18.104  14.591
91553W        W92417  13.012  16.179  18.188
91554W        W92418  11.435  17.165  18.144
91555W        W92419  14.560  15.200  18.057
91556W        W92420  14.120  15.897  16.812
91557W        W92421  12.567  17.981  18.111
91558W        W92422  12.318  14.737  15.034
91559W        W92423  14.149  17.229  14.825
91560W        W92424  11.791  15.421  17.771
91561W        W92425  12.425  17.348  17.637
91562W        W92426  14.233  15.169  17.286
91563W        W92427  13.986  17.815  15.410
91564W        W92428  13.737  16.826  16.773
91565W        W92429  11.887  15.095  17.393
91566W        W92430  12.537  16.119  17.994
91567W        W92431  11.950  17.358  15.556
91568W        W92432  13.791  16.667  15.621
91569W        W92433  11.477  15.394  17.359
91570W        W92434  12.753  17.582  15.981
91571W        W92435  14.401  16.039  16.102
91572W        W92436  12.738  14.645  17.682
91573W        W92437  13.708  17.334  16.754
91574W        W92438  14.009  17.718  16.587
91575W        W92439  12.828  17.361  15.254
91576W        W92440  11.053  17.270  17.785
91577W        W92441  11.886  15.461  17.005
91578W        W92442  11.833  14.835  16.103
91579W        W92443  13.252  15.698  16.740
91580W        W92444  12.322  16.556  14.825
91581W        W92445  14.186  16.765  16.530
91582W        W92446  11.522  17.469  17.730
91583W        W92447  14.077  18.307  15.574
91584W        W92448  12.290  15.112  16.146
91585W        W92449  12.026  16.760  16.391
91586W        W92450  12.198  18.305  17.027
91587W        W92451  14.202  18.236  17.861
91588W        W92452  13.374  16.486  16.966
91589W        W92453  11.264  15.985  14.521
91590W        W92454  14.356  17.902  15.751
91591W        W92455  14.103  15.316  15.167
91592W        W92456  12.061  14.622  17.488
91593W        W92457  14.128  17.537  16.066
91594W        W92458  13.931  15.844  16.018
91595W        W92459  12.446  15.693  16.142
91596W        W92460  12.563  15.954  17.473
91597W        W92461  13.565  17.114  17.377
91598W        W92462  12.218  15.516  17.432
91599W        W92463  12.146  18.169  16.184
91600W        W92464  11.572  17.963  17.818
91601W        W92465  11.775  17.601  14.430
91602W        W92466  14.108  17.007  15.840
91603W        W92467  11.794  15.822  17.409
91604W        W92468  14.393  15.735  14.990
91605W        W92469  12.436  17.080  15.505
91606W        W92470  13.468  16.271  17.568
91607W        W92471  13.300  15.998  17.165
91608W        W92472  11.825  16.288  17.164
91609W        W92473  13.949  18.060  17.020
91610W        W92474  13.630  14.909  17.873
91611W        W92475  11.396  15.025  17.717
91612W        W92476  11.831  15.936  16.770
91613W        W92477  12.265  15.589  14.600
91614W        W92478  11.252  17.346  17.313
91615W        W92479  12.606  16.299  16.781
91616W        W92480  12.422  15.072  14.653
91617W        W92481  11.477  15.792  16.081
91618W        W92482  11.209  18.058  17.132
91619W        W92483  13.994  16.275  15.236
91620W        W92484  14.122  15.092  17.808
91621W        W92485  13.601  17.087  15.891
91622W        W92486  11.095  16.121  17.835
91623W        W92487  14.276  14.823  15.205
91624W        W92488  13.965  17.086  15.315
91625W        W92489  12.684  15.916  15.282
91626W        W92490  13.810  14.936  14.955
91627W        W92491  13.685  15.654  17.034
91628W        W92492  11.662  16.268  16.411
91629W        W92493  11.856  17.090  16.005
91630W        W92494  13.479  15.664  15.892
91631W        W92495  12.550  15.137  16.598
91632W        W92496  14.561  17.165  17.093
91633W        W92497  14.516  15.185  16.701
91634W        W92498  11.124  17.961  16.253
91635W        W92499  11.475  17.094  15.650
91636W        W92500  11.429  14.882  18.207
91637W        W92501  12.309  17.530  18.113
91638W        W92502  14.333  16.568  16.090
91639W        W92503  13.773  16.694  15.052
91640W        W92504  13.183  18.185  17.079
91641W        W92505  13.899  16.843  18.133
91642W        W92506  12.637  14.644  15.419
91643W        W92507  13.290  15.417  16.299
91644W        W92508  11.066  17.152  16.544
91645W        W92509  12.352  15.111  15.395
91646W        W92510  12.181  16.531  17.968
91647W        W92511  13.097  15.370  15.721
91648W        W92512  13.284  17.041  16.935
91649W        W92513  11.595  17.753  17.321
91650W        W92514  11.804  17.573  18.126
91651W        W92515  12.027  15.193  15.001
91652W        W92516  13.479  15.509  15.324
91653W        W92517  13.384  17.552  17.583
91654W        W92518  12.228  16.290  16.237
91655W        W92519  11.725  18.132  17.026
91656W        W92520  14.316  17.993  14.754
91657W        W92521  11.297  16.546  17.705
91658W        W92522  13.423  16.975  16.394
91659W        W92523  11.578  16.658  16.076
91660W        W92524  12.123  17.768  17.149
91661W        W92525  12.693  14.768  16.221
91662W        W92526  11.012  17.055  15.395
91663W        W92527  12.808  15.868  14.769
91664W        W92528  11.207  16.251  16.128
91665W        W92529  12.401  15.026  17.478
91666W        W92530  14.280  14.874  14.691
91667W        W92531  14.338  16.649  17.939
91668W        W92532  13.068  17.949  18.007
91669W        W92533  14.544  16.951  17.559
91670W        W92534  14.035  17.673  18.045
91671W        W92535  11.821  18.350  16.564
91672W        W92536  14.601  16.891  15.783
91673W        W92537  13.388  15.961  16.306
91674W        W92538  12.977  14.543  15.814
91675W        W92539  12.037  17.763  15.868
91676W        W92540  12.427  15.500  16.955
91677W        W92541  12.239  14.737  16.529
91678W        W92542  11.189  17.747  15.005
91679W        W92543  12.749  17.062  15.950
91680W        W92544  11.996  17.634  17.639
91681W        W92545  11.146  16.641  15.730
91682W        W92546  11.112  15.169  16.481
91683W        W92547  12.910  17.052  16.437
91684W        W92548  10.989  14.944  15.433
91685W        W92549  13.824  16.118  17.225
91686W        W92550  13.707  15.401  14.791
91687W        W92551  14.252  17.253  16.682
91688W        W92552  12.754  17.540  16.494
91689W        W92553  12.187  18.049  15.441
91690W        W92554  13.415  14.716  14.658
91691W        W92555  11.431  17.980  16.657
91692W        W92556  13.148  15.639  18.091
91693W        W92557  11.329  15.390  18.087
91694W        W92558  10.902  15.881  15.797
91695W        W92559  12.333  16.027  14.871
91696W        W92560  13.492  16.027  18.059
91697W        W92561  12.104  16.376  16.738
91698W        W92562  13.519  14.634  15.894
91699W        W92563  12.713  18.061  16.310
91700W        W92564  13.754  17.572  17.203
91701W        W92565  13.624  17.584  16.272
91702W        W92566  13.288  16.674  15.814
91703W        W92567  12.757  15.029  15.068
91704W        W92568  14.575  14.708  15.918
91705W        W92569  12.053  16.275  14.474
91706W        W92570  14.331  15.552  15.884
91707W        W92571  13.138  16.639  15.051
91708W        W92572  14.026  16.926  17.598
91709W        W92573  13.870  17.686  14.922
91710W        W92574  12.274  15.281  17.913
91711W        W92575  12.215  15.948  17.107
91712W        W92576  14.233  17.401  17.522
91713W        W92577  13.277  15.219  17.654
91714W        W92578  10.961  15.826  17.453
91715W        W92579  12.909  16.335  17.205
91716W        W92580  11.197  17.009  16.076
91717W        W92581  11.393  16.255  16.858
91718W        W92582  13.746  16.646  17.261
91719W        W92583  13.585  17.928  17.899
91720W        W92584  13.408  15.737  17.624
91721W        W92585  13.859  17.949  15.904
91722W        W92586  12.652  17.624  17.203
91723W        W92587  12.014  17.898  16.643
91724W        W92588  14.019  17.121  17.119
91725W        W92589  12.927  17.048  18.219
91726W        W92590  11.575  17.055  16.427
91727W        W92591  13.833  16.684  16.140
91728W        W92592  13.539  17.842  16.781
91729W        W92593  11.689  17.555  16.850
91730W        W92594  12.665  15.640  17.879
91731W        W92595  12.890  17.825  15.534
91732W        W92596  12.377  17.014  18.045
91733W        W92597  12.422  17.593  15.526
91734W        W92598  11.739  15.771  14.408
91735W        W92599  11.219  18.498  21.801
91736W        W92600  11.527  17.122  21.102
91737W        W92601  14.173  16.832  18.991
91738W        W92602  14.373  17.899  21.001
91739W        W92603  11.988  17.905  18.479
91740W        W92604  12.409  16.092  19.335
91741W        W92605  11.893  16.197  20.082
91742W        W92606  12.710  16.775  19.150
91743W        W92607  12.598  17.888  21.358
91744W        W92608  10.914  15.185  21.146
91745W        W92609  11.769  14.364  21.094
91746W        W92610  13.533  15.148  19.928
91747W        W92611  13.243  15.886  18.553
91748W        W92612  13.696  15.499  21.546
91749W        W92613  11.090  15.008  20.689
91750W        W92614  11.184  18.017  21.951
91751W        W92615  12.493  17.205  18.501
91752W        W92616  11.121  15.649  20.287
91753W        W92617  12.428  16.067  21.303
91754W        W92618  14.339  15.541  20.022
91755W        W92619  14.304  16.652  20.775
91756W        W92620  12.844  16.059  19.896
91757W        W92621  13.275  17.406  20.239
91758W        W92622  11.590  16.675  20.392
91759W        W92623  11.007  16.111  20.087
91760W        W92624  12.162  16.436  21.083
91761W        W92625  14.334  16.115  21.561
91762W        W92626  11.948  17.553  19.864
91763W        W92627  13.105  17.258  21.046
91764W        W92628  12.418  15.949  20.210
91765W        W92629  12.590  16.744  19.868
91766W        W92630  13.415  17.620  21.758
91767W        W92631  12.961  16.767  21.872
91768W        W92632  12.742  16.476  21.135
91769W        W92633  10.531  15.634  21.584
91770W        W92634  13.821  17.366  21.523
91771W        W92635  11.441  14.779  19.357
91772W        W92636  12.115  17.402  20.345
91773W        W92637  14.382  17.030  19.793
91774W        W92638  13.818  15.525  20.259
91775W        W92639  14.094  15.348  18.262
91776W        W92640  14.647  16.089  20.674
91777W        W92641  12.702  17.928  20.463
91778W        W92642  14.374  17.423  18.814
91779W        W92643  11.424  18.053  18.864
91780W        W92644  11.901  18.098  19.305
91781W        W92645  11.681  14.992  20.823
91782W        W92646  14.201  16.012  20.917
91783W        W92647  13.720  16.394  19.359
91784W        W92648  13.710  16.101  18.527
91785W        W92649  12.918  17.278  20.569
91786W        W92650  12.711  15.292  19.670
91787W        W92651  13.248  17.643  20.737
91788W        W92652  14.242  16.417  19.317
91789W        W92653  13.235  15.024  19.036
91790W        W92654  11.823  17.742  18.957
91791W        W92655  11.125  15.137  19.525
91792W        W92656  13.562  15.873  19.911
91793W        W92657  11.418  17.541  19.881
91794W        W92658  12.460  17.731  18.573
91795W        W92659  13.985  15.833  18.192
91796W        W92660  11.254  17.500  20.360
91797W        W92661  11.938  17.363  20.852
91798W        W92662  12.319  16.613  19.438
91799W        W92663  12.099  14.980  20.469
91800W        W92664  14.551  14.819  20.147
91801W        W92665  11.649  16.688  18.064
91802W        W92666  11.454  15.528  18.573
91803W        W92667  11.629  17.549  19.414
91804W        W92668  12.315  17.126  19.418
91805W        W92669  13.929  17.805  21.246
91806W        W92670  12.889  15.758  18.898
91807W        W92671  14.179  18.032  19.906
91808W        W92672  13.876  15.956  21.325
91809W        W92673  14.674  17.443  19.550
91810W        W92674  13.210  16.748  20.997
91811W        W92675  11.017  16.260  19.220
91812W        W92676  12.036  16.933  20.515
91813W        W92677  13.259  16.066  19.064
91814W        W92678  13.192  16.563  19.218
91815W        W92679  11.534  15.776  20.675
91816W        W92680  11.512  15.783  21.202
91817W        W92681  11.442  14.675  19.860
91818W        W92682  13.030  15.128  20.066
91819W        W92683  12.852  15.176  21.422
91820W        W92684  13.112  15.362  18.624
91821W        W92685  14.364  17.725  21.520
91822W        W92686  13.152  14.774  21.353
91823W        W92687  14.289  17.169  21.622
91824W        W92688  13.834  15.289  21.107
91825W        W92689  13.547  15.270  19.412
91826W        W92690  13.879  16.348  21.671
91827W        W92691  11.665  17.959  19.732
91828W        W92692  12.547  15.396  18.746
91829W        W92693  11.831  14.812  21.341
91830W        W92694  13.939  15.523  19.187
91831W        W92695  14.288  15.951  19.117
91832W        W92696  12.108  18.050  21.527
91833W        W92697  12.012  14.491  18.797
91834W        W92698  14.389  15.115  19.763
91835W        W92699  14.465  17.488  18.301
91836W        W92700  11.248  16.575  20.017
91837W        W92701  13.228  15.130  18.152
91838W        W92702  14.518  17.484  20.051
91839W        W92703  14.339  14.778  20.628
91840W        W92704  13.048  16.033  21.455
91841W        W92705  12.849  17.202  18.875
91842W        W92706  13.472  16.629  21.903
91843W        W92707  13.229  14.649  20.062
91844W        W92708  11.622  15.726  20.144
91845W        W92709  11.266  16.769  20.784
91846W        W92710  13.311  17.896  19.684
91847W        W92711  14.250  15.751  20.481
91848W        W92712  13.103  17.970  21.152
91849W        W92713  14.253  16.685  18.473
91850W        W92714  12.797  16.411  19.525
91851W        W92715  14.486  14.755  21.144
91852W        W92716  12.731  16.930  20.895
91853W        W92717  12.791  15.591  20.089
91854W        W92718  13.762  15.991  19.044
91855W        W92719  14.034  15.734  18.703
91856W        W92720  14.011  17.696  19.096
91857W        W92721  13.843  17.069  19.911
91858W        W92722  13.543  16.438  18.867
91859W        W92723  13.079  16.559  19.960
91860W        W92724  14.074  16.431  19.803
91861W        W92725  11.496  15.316  20.449
91862W        W92726  14.061  16.417  21.184
91863W        W92727  14.481  17.919  20.347
91864W        W92728  12.441  17.509  19.761
91865W        W92729  13.575  18.018  20.918
91866W        W92730  13.424  15.377  20.740
91867W        W92731  12.687  18.177  20.911
91868W        W92732  14.262  15.100  19.261
91869W        W92733  14.124  16.276  20.467
91870W        W92734  10.906  15.515  20.734
91871W        W92735  13.891  15.485  19.742
91872W        W92736  14.219  15.587  21.431
91873W        W92737  13.339  17.229  19.745
91874W        W92738  12.598  17.854  19.412
91875W        W92739  11.535  15.033  18.684
91876W        W92740  12.770  14.723  20.302
91877W        W92741  11.506  18.031  18.339
91878W        W92742  12.319  16.445  18.934
91879W        W92743  12.893  16.949  21.387
91880W        W92744  12.719  15.080  19.184
91881W        W92745  13.920  14.961  19.636
91882W        W92746  13.659  18.111  20.006
91883W        W92747  13.140  17.892  20.200
91884W        W92748  12.528  16.975  20.350
91885W        W92749  14.302  17.534  20.646
91886W        W92750  11.857  14.921  19.101
91887W        W92751  12.606  17.487  20.235
91888W        W92752  11.812  15.266  18.263
91889W        W92753  12.836  15.874  20.502
91890W        W92754  13.415  14.994  20.405
91891W        W92755  11.004  16.465  20.473
91892W        W92756  12.595  16.273  18.515
91893W        W92757  11.902  14.786  18.400
91894W        W92758  12.909  15.909  19.416
91895W        W92759  13.527  14.897  20.913
91896W        W92760  12.215  16.942  21.001
91897W        W92761  13.161  16.527  21.483
91898W        W92762  13.618  16.639  21.329
91899W        W92763  12.821  14.811  21.796
91900W        W92764  12.096  15.475  20.164
91901W        W92765  11.617  15.235  19.633
91902W        W92766  11.289  17.920  19.362
91903W        W92767  12.956  17.512  21.464
91904W        W92768  11.544  17.100  18.748
91905W        W92769  13.603  16.400  20.030
91906W        W92770  13.687  16.012  20.385
91907W        W92771  12.996  16.782  20.448
91908W        W92772  13.450  17.037  18.275
91909W        W92773  13.133  15.028  19.566
91910W        W92774  14.454  15.478  18.974
91911W        W92775  11.219  17.978  21.349
91912W        W92776  11.570  17.148  20.589
91913W        W92777  10.921  18.022  19.010
91914W        W92778  12.918  15.337  20.525
91915W        W92779  12.043  17.419  18.626
91916W        W92780  14.080  17.763  18.587
91917W        W92781  13.093  16.374  18.649
91918W        W92782  12.546  15.574  19.244
91919W        W92783  12.745  15.306  18.270
91920W        W92784  13.372  17.051  21.546
91921W        W92785  13.789  14.931  19.114
91922W        W92786  11.110  14.664  18.562
91923W        W92787  12.433  17.310  20.726
91924W        W92788  12.202  17.074  19.957
91925W        W92789  11.923  17.062  18.300
91926W        W92790  11.312  17.544  18.998
91927W        W92791  11.723  16.257  21.337
91928W        W92792  12.336  14.812  21.563
91929W        W92793  13.034  14.991  20.887
91930W        W92794  12.357  14.750  19.411
91931W        W92795  13.257  14.812  18.551
91932W        W92796  11.449  14.813  20.376
91933W        W92797  11.284  15.612  19.766
91934W        W92798  14.056  15.077  20.136
91935W        W92799  11.481  15.280  19.140
91936W        W92800  13.890  15.133  20.616
91937W        W92801  14.305  16.155  18.445
91938W        W92802  11.782  15.069  20.079
91939W        W92803  13.016  15.522  20.999
91940W        W92804  11.070  15.173  18.477
91941W        W92805  11.763  16.725  20.894
91942W        W92806  13.204  16.126  20.240
91943W        W92807  12.897  18.028  18.513
91944W        W92808  11.186  16.436  18.219
91945W        W92809  12.000  17.246  21.370
91946W        W92810  11.494  16.290  20.866
91947W        W92811  12.438  16.583  20.671
91948W        W92812  13.995  14.762  21.025
91949W        W92813  14.574  16.406  21.148
91950W        W92814  14.538  16.468  18.858
91951W        W92815  13.251  16.858  18.742
91952W        W92816  13.904  18.132  18.260
91953W        W92817  13.117  16.260  21.945
91954W        W92818  11.512  17.241  21.596
91955W        W92819  14.552  15.229  21.753
91956W        W92820  14.063  15.968  20.034
91957W        W92821  12.557  18.164  21.809
91958W        W92822  12.401  14.613  18.479
91959W        W92823  13.921  17.298  18.384
91960W        W92824  11.840  15.349  21.196
91961W        W92825  12.525  17.300  21.240
91962W        W92826  14.299  15.206  20.925
91963W        W92827  13.734  18.076  18.823
91964W        W92828  13.866  16.759  20.353
91965W        W92829  12.168  14.993  20.999
91966W        W92830  12.699  16.365  21.636
91967W        W92831  11.911  17.253  19.098
91968W        W92832  13.622  16.867  19.144
91969W        W92833  11.357  15.369  20.946
91970W        W92834  12.778  17.355  19.377
91971W        W92835  14.446  16.055  19.654
91972W        W92836  12.653  14.769  21.159
91973W        W92837  13.748  17.285  20.367
91974W        W92838  14.058  17.655  20.221
91975W        W92839  12.830  17.553  18.283
91976W        W92840  11.135  17.472  21.263
91977W        W92841  11.945  15.423  20.699
91978W        W92842  11.888  14.806  19.640
91979W        W92843  13.295  15.589  20.270
91980W        W92844  12.263  16.690  18.454
91981W        W92845  14.340  16.663  20.183
91982W        W92846  11.640  17.605  21.249
91983W        W92847  14.096  18.195  19.204
91984W        W92848  12.199  15.217  19.721
91985W        W92849  11.778  16.695  19.912
91986W        W92850  12.318  18.287  20.556
91987W        W92851  14.176  18.194  21.512
91988W        W92852  13.429  16.494  20.523
91989W        W92853  11.261  15.909  18.260
91990W        W92854  14.345  17.820  19.455
91991W        W92855  14.036  15.225  18.760
91992W        W92856  12.244  14.484  20.955
91993W        W92857  14.119  17.477  19.743
91994W        W92858  13.955  15.962  19.527
91995W        W92859  12.446  15.742  19.732
91996W        W92860  12.830  15.981  21.002
91997W        W92861  13.610  17.131  21.094
91998W        W92862  12.294  15.648  21.031
91999W        W92863  12.197  18.002  19.724
92000W        W92864  11.611  18.178  21.682
92001W        W92865  11.546  17.578  18.553
92002W        W92866  14.269  17.257  19.292
92003W        W92867  11.924  15.990  20.953
92004W        W92868  14.457  15.649  18.437
92005W        W92869  12.287  16.956  18.908
92006W        W92870  13.285  16.254  21.070
92007W        W92871  13.301  15.893  20.704
92008W        W92872  11.962  16.368  20.588
92009W        W92873  14.018  17.994  20.610
92010W        W92874  13.704  14.903  21.445
92011W        W92875  11.317  14.843  21.152
92012W        W92876  11.995  15.873  20.469
92013W        W92877  12.252  15.603  18.343
92014W        W92878  11.136  17.266  20.799
92015W        W92879  12.685  16.394  20.254
92016W        W92880  12.304  15.095  18.390
92017W        W92881  11.910  16.321  19.570
92018W        W92882  11.323  18.145  20.821
92019W        W92883  14.040  16.360  18.837
92020W        W92884  14.196  15.070  21.425
92021W        W92885  13.756  17.308  19.427
92022W        W92886  11.174  16.162  21.295
92023W        W92887  14.259  14.765  18.832
92024W        W92888  13.884  17.247  18.903
92025W        W92889  12.782  16.258  19.028
92026W        W92890  13.702  15.037  18.372
92027W        W92891  13.822  15.686  20.777
92028W        W92892  11.440  16.128  19.807
92029W        W92893  11.832  17.115  19.608
92030W        W92894  13.481  15.775  19.417
92031W        W92895  12.521  15.172  20.187
92032W        W92896  14.567  17.088  20.693
92033W        W92897  14.472  15.250  20.433
92034W        W92898  10.999  17.884  19.778
92035W        W92899  11.457  17.080  19.273
92036W        W92900  11.441  14.823  21.683
92037W        W92901  12.720  17.666  21.915
92038W        W92902  14.611  16.540  19.765
92039W        W92903  13.777  16.818  18.630
92040W        W92904  13.133  18.159  20.653
92041W        W92905  13.870  16.879  21.709
92042W        W92906  12.531  14.471  18.975
92043W        W92907  13.188  15.528  19.760
92044W        W92908  11.122  16.992  20.314
92045W        W92909  12.312  14.930  18.886
92046W        W92910  12.416  16.769  21.434
92047W        W92911  13.072  15.452  19.264
92048W        W92912  13.391  17.063  20.640
92049W        W92913  11.510  17.659  20.770
92050W        W92914  12.304  17.571  21.639
92051W        W92915  11.983  15.313  18.746
92052W        W92916  13.470  15.569  18.939
92053W        W92917  13.445  17.595  21.234
92054W        W92918  12.373  16.270  19.820
92055W        W92919  11.831  18.091  20.661
92056W        W92920  14.395  17.986  18.266
92057W        W92921  11.374  16.640  21.263
92058W        W92922  13.412  16.902  20.151
92059W        W92923  11.867  16.751  19.226
92060W        W92924  12.264  17.789  20.698
92061W        W92925  12.755  14.761  19.782
92062W        W92926  11.132  16.806  18.557
92063W        W92927  12.736  15.794  18.400
92064W        W92928  11.454  16.581  19.526
92065W        W92929  12.598  15.250  20.951
92066W        W92930  14.211  14.858  18.296
92067W        W92931  14.326  16.647  21.559
92068W        W92932  13.043  17.991  21.669
92069W        W92933  14.556  16.972  21.198
92070W        W92934  13.896  17.834  21.771
92071W        W92935  11.810  18.209  20.152
92072W        W92936  14.582  16.821  19.339
92073W        W92937  13.289  16.223  19.618
92074W        W92938  12.923  14.621  19.310
92075W        W92939  12.125  17.633  19.378
92076W        W92940  12.436  15.551  20.546
92077W        W92941  12.286  14.776  19.980
92078W        W92942  11.065  17.825  18.563
92079W        W92943  12.987  16.899  19.565
92080W        W92944  12.151  17.691  21.173
92081W        W92945  11.340  16.644  19.007
92082W        W92946  11.236  15.161  20.029
92083W        W92947  12.923  17.093  20.044
92084W        W92948  11.102  14.952  18.993
92085W        W92949  13.730  16.189  20.857
92086W        W92950  13.611  15.551  18.432
92087W        W92951  14.230  17.149  20.282
92088W        W92952  12.946  17.568  19.839
92089W        W92953  12.302  17.970  18.997
92090W        W92954  13.269  14.593  18.078
92091W        W92955  11.329  17.986  20.153
92092W        W92956  13.189  15.565  21.593
92093W        W92957  11.394  15.286  21.450
92094W        W92958  11.250  15.778  19.269
92095W        W92959  12.400  15.904  18.817
92096W        W92960  13.499  15.980  21.709
92097W        W92961  12.209  16.590  20.187
92098W        W92962  13.496  14.672  19.604
92099W        W92963  12.685  18.018  19.933
92100W        W92964  13.790  17.547  20.821
92101W        W92965  13.648  17.584  19.930
92102W        W92966  13.488  16.743  19.651
92103W        W92967  12.778  14.935  18.677
92104W        W92968  14.617  14.734  19.525
92105W        W92969  12.129  16.118  18.302
92106W        W92970  14.337  15.577  19.501
92107W        W92971  12.739  16.755  18.636
92108W        W92972  14.048  16.923  21.229
92109W        W92973  13.592  17.763  18.412
92110W        W92974  12.325  15.299  21.409
92111W        W92975  12.399  16.075  20.734
92112W        W92976  14.228  17.395  21.143
92113W        W92977  13.348  15.236  21.243
92114W        W92978  10.978  15.689  21.216
92115W        W92979  12.958  16.343  20.682
92116W        W92980  11.331  17.036  19.781
92117W        W92981  11.444  16.177  20.356
92118W        W92982  13.756  16.698  20.849
92119W        W92983  13.536  18.050  21.459
92120W        W92984  13.438  15.754  21.173
92121W        W92985  13.824  17.883  19.544
92122W        W92986  12.758  17.653  20.921
92123W        W92987  12.234  17.891  20.206
92124W        W92988  14.039  17.102  20.752
92125W        W92989  13.069  17.265  21.914
92126W        W92990  11.705  17.169  20.113
92127W        W92991  14.008  16.842  19.484
92128W        W92992  13.597  17.795  20.408
92129W        W92993  11.727  17.713  20.301
92130W        W92994  12.705  15.652  21.385
92131W        W92995  12.822  17.730  18.952
92132W        W92996  12.595  17.156  21.749
92133W        W92997  12.402  17.444  19.002
92134W        W92998  11.739  15.762  18.161
92135W        W92999  10.970  18.370  25.379
92136W        W93000  11.453  17.294  24.918
92137W        W93001  14.119  16.878  22.680
92138W        W93002  14.421  17.918  24.706
92139W        W93003  12.164  17.888  22.025
92140W        W93004  12.832  16.236  22.768
92141W        W93005  12.027  15.939  23.604
92142W        W93006  13.108  16.676  22.766
92143W        W93007  12.426  17.834  24.922
92144W        W93008  11.231  15.459  24.971
92145W        W93009  11.722  14.667  24.742
92146W        W93010  13.581  15.065  23.602
92147W        W93011  13.386  15.877  22.221
92148W        W93012  13.726  15.407  25.275
92149W        W93013  11.214  15.105  24.568
92150W        W93014  11.076  17.866  25.456
92151W        W93015  12.731  17.034  22.247
92152W        W93016  11.109  15.797  23.988
92153W        W93017  12.206  15.818  25.142
92154W        W93018  14.237  15.738  23.630
92155W        W93019  14.196  16.639  24.440
92156W        W93020  12.739  16.132  23.599
92157W        W93021  13.215  17.422  23.921
92158W        W93022  11.457  16.768  24.200
92159W        W93023  10.756  16.201  23.988
92160W        W93024  12.104  16.185  24.784
92161W        W93025  14.300  16.073  25.109
92162W        W93026  11.899  17.565  23.735
92163W        W93027  13.001  17.181  24.736
92164W        W93028  12.433  15.854  23.928
92165W        W93029  12.550  16.623  23.649
92166W        W93030  13.223  17.460  25.419
92167W        W93031  12.701  16.597  25.501
92168W        W93032  12.617  16.368  24.850
92169W        W93033  10.948  15.610  25.397
92170W        W93034  13.742  17.454  25.150
92171W        W93035  11.169  14.705  23.120
92172W        W93036  11.944  17.245  24.158
92173W        W93037  14.307  17.070  23.495
92174W        W93038  13.855  15.408  23.896
92175W        W93039  14.043  15.313  21.866
92176W        W93040  14.560  16.068  24.350
92177W        W93041  12.879  17.721  24.191
92178W        W93042  14.231  17.395  22.506
92179W        W93043  11.450  18.218  22.708
92180W        W93044  11.800  18.124  23.072
92181W        W93045  11.682  14.962  24.315
92182W        W93046  14.211  15.846  24.636
92183W        W93047  13.644  16.241  23.269
92184W        W93048  13.747  16.231  22.155
92185W        W93049  12.889  17.176  24.241
92186W        W93050  12.851  15.348  23.382
92187W        W93051  13.276  17.505  24.435
92188W        W93052  14.070  16.475  23.096
92189W        W93053  13.224  14.932  22.750
92190W        W93054  11.576  17.716  22.829
92191W        W93055  10.911  15.207  23.258
92192W        W93056  13.723  15.842  23.627
92193W        W93057  11.343  17.519  23.787
92194W        W93058  12.519  17.796  22.400
92195W        W93059  13.981  15.838  21.836
92196W        W93060  11.123  17.635  24.255
92197W        W93061  11.905  17.408  24.670
92198W        W93062  11.988  16.671  23.527
92199W        W93063  12.164  15.082  24.116
92200W        W93064  14.482  14.763  23.737
92201W        W93065  11.881  16.752  21.393
92202W        W93066  11.288  15.228  21.978
92203W        W93067  11.480  17.420  23.294
92204W        W93068  12.476  16.997  23.305
92205W        W93069  13.987  17.890  24.985
92206W        W93070  13.068  15.504  22.391
92207W        W93071  14.239  18.019  23.575
92208W        W93072  13.835  15.982  24.964
92209W        W93073  14.653  17.456  23.300
92210W        W93074  13.202  16.709  24.730
92211W        W93075  10.556  16.327  23.104
92212W        W93076  11.849  16.891  24.537
92213W        W93077  13.224  15.890  22.728
92214W        W93078  13.166  16.335  23.144
92215W        W93079  11.580  15.890  24.319
92216W        W93080  11.418  15.813  25.295
92217W        W93081  11.407  14.795  23.610
92218W        W93082  13.100  15.185  23.811
92219W        W93083  12.837  15.143  25.121
92220W        W93084  13.244  15.046  22.244
92221W        W93085  14.448  17.753  25.218
92222W        W93086  13.257  14.712  25.046
92223W        W93087  14.166  17.257  25.398
92224W        W93088  13.826  15.276  24.787
92225W        W93089  13.601  15.195  23.048
92226W        W93090  13.914  16.344  25.398
92227W        W93091  11.587  17.906  23.514
92228W        W93092  12.576  15.581  22.240
92229W        W93093  11.942  14.890  25.162
92230W        W93094  13.934  15.544  22.827
92231W        W93095  14.252  15.931  22.686
92232W        W93096  12.008  18.105  25.169
92233W        W93097  11.871  14.555  22.460
92234W        W93098  14.277  15.228  23.639
92235W        W93099  14.266  17.521  21.998
92236W        W93100  11.021  16.645  23.889
92237W        W93101  13.329  15.096  21.734
92238W        W93102  14.483  17.586  23.773
92239W        W93103  14.408  14.690  24.460
92240W        W93104  13.006  16.000  24.927
92241W        W93105  12.947  17.175  22.788
92242W        W93106  13.459  16.508  25.587
92243W        W93107  13.225  14.701  23.829
92244W        W93108  11.597  15.693  23.807
92245W        W93109  11.354  16.829  24.701
92246W        W93110  13.197  17.729  23.326
92247W        W93111  14.103  15.426  24.347
92248W        W93112  12.938  17.878  24.748
92249W        W93113  14.118  16.583  22.061
92250W        W93114  12.664  16.485  23.178
92251W        W93115  14.627  14.674  24.926
92252W        W93116  12.717  16.771  24.544
92253W        W93117  12.920  15.685  23.791
92254W        W93118  13.710  16.048  22.734
92255W        W93119  13.889  15.753  22.340
92256W        W93120  13.933  17.667  22.820
92257W        W93121  13.761  17.175  23.642
92258W        W93122  13.616  16.569  22.854
92259W        W93123  13.063  16.528  23.621
92260W        W93124  14.061  16.217  23.568
92261W        W93125  11.387  15.399  24.177
92262W        W93126  14.052  16.472  24.914
92263W        W93127  14.455  17.940  24.140
92264W        W93128  12.361  17.509  23.544
92265W        W93129  13.459  17.990  24.653
92266W        W93130  13.376  15.357  24.497
92267W        W93131  12.555  18.021  24.452
92268W        W93132  14.172  15.093  22.904
92269W        W93133  13.995  16.376  24.037
92270W        W93134  11.143  15.719  24.507
92271W        W93135  13.888  15.439  23.370
92272W        W93136  14.177  15.571  25.064
92273W        W93137  13.281  17.229  23.449
92274W        W93138  12.583  17.882  23.250
92275W        W93139  11.497  14.920  22.342
92276W        W93140  12.780  14.842  24.097
92277W        W93141  11.640  18.228  22.209
92278W        W93142  12.613  16.786  22.721
92279W        W93143  12.723  16.857  25.048
92280W        W93144  12.744  15.031  22.973
92281W        W93145  13.994  14.902  23.341
92282W        W93146  13.799  18.144  23.793
92283W        W93147  13.154  18.015  23.859
92284W        W93148  12.508  16.839  24.090
92285W        W93149  14.260  17.539  24.383
92286W        W93150  11.642  14.836  22.874
92287W        W93151  12.492  17.398  24.030
92288W        W93152  11.902  15.180  21.702
92289W        W93153  12.789  15.848  24.289
92290W        W93154  13.513  15.027  24.118
92291W        W93155  10.992  16.652  24.397
92292W        W93156  12.836  16.518  22.314
92293W        W93157  11.925  14.685  21.860
92294W        W93158  12.956  15.835  23.194
92295W        W93159  13.530  14.882  24.636
92296W        W93160  12.253  16.749  24.843
92297W        W93161  13.082  16.460  25.172
92298W        W93162  13.580  16.623  25.103
92299W        W93163  12.924  14.797  25.508
92300W        W93164  12.119  15.464  23.765
92301W        W93165  11.448  15.157  23.261
92302W        W93166  11.267  17.974  23.143
92303W        W93167  12.792  17.482  25.098
92304W        W93168  12.238  16.933  22.367
92305W        W93169  13.551  16.400  23.762
92306W        W93170  13.618  16.013  24.099
92307W        W93171  13.000  16.681  24.114
92308W        W93172  13.563  17.158  22.022
92309W        W93173  13.191  14.980  23.280
92310W        W93174  14.451  15.449  22.649
92311W        W93175  11.121  18.060  24.973
92312W        W93176  11.476  17.254  24.410
92313W        W93177  10.942  18.146  22.789
92314W        W93178  12.911  15.339  24.262
92315W        W93179  12.501  17.315  22.595
92316W        W93180  14.169  17.889  22.418
92317W        W93181  13.325  16.346  22.441
92318W        W93182  12.739  15.687  22.743
92319W        W93183  12.904  15.306  21.938
92320W        W93184  13.213  16.993  25.172
92321W        W93185  13.752  14.915  22.643
92322W        W93186  11.066  14.755  22.030
92323W        W93187  12.319  17.108  24.465
92324W        W93188  12.217  17.067  23.755
92325W        W93189  12.326  17.392  22.125
92326W        W93190  11.063  17.585  22.885
92327W        W93191  11.833  16.155  25.261
92328W        W93192  12.427  14.875  25.363
92329W        W93193  13.006  14.979  24.650
92330W        W93194  12.396  14.696  23.207
92331W        W93195  13.453  14.584  22.400
92332W        W93196  11.237  14.912  24.076
92333W        W93197  11.145  15.719  23.449
92334W        W93198  13.985  14.846  23.867
92335W        W93199  11.206  15.121  22.797
92336W        W93200  13.963  14.933  24.368
92337W        W93201  14.264  16.106  22.183
92338W        W93202  11.706  15.158  23.831
92339W        W93203  12.945  15.513  24.745
92340W        W93204  10.928  15.121  22.356
92341W        W93205  11.748  16.540  24.912
92342W        W93206  13.122  16.146  24.013
92343W        W93207  12.927  18.057  22.193
92344W        W93208  10.979  16.313  21.792
92345W        W93209  11.881  17.038  25.043
92346W        W93210  11.322  16.295  24.667
92347W        W93211  12.266  16.501  24.398
92348W        W93212  14.001  14.724  24.840
92349W        W93213  14.550  16.380  24.776
92350W        W93214  14.496  16.549  22.421
92351W        W93215  13.411  17.047  22.960
92352W        W93216  13.901  18.218  22.129
92353W        W93217  13.085  16.165  25.637
92354W        W93218  11.599  17.262  25.416
92355W        W93219  14.658  14.972  25.349
92356W        W93220  14.121  15.883  24.112
92357W        W93221  12.485  18.042  25.393
92358W        W93222  12.405  14.698  22.193
92359W        W93223  14.049  17.078  22.160
92360W        W93224  11.794  15.434  25.101
92361W        W93225  12.346  17.260  24.946
92362W        W93226  14.313  15.128  24.710
92363W        W93227  13.667  18.009  22.533
92364W        W93228  13.810  16.845  24.092
92365W        W93229  12.015  15.114  24.670
92366W        W93230  12.682  16.126  25.302
92367W        W93231  12.008  17.456  22.678
92368W        W93232  13.889  16.960  23.148
92369W        W93233  11.601  15.431  24.630
92370W        W93234  12.822  17.377  23.265
92371W        W93235  14.498  16.072  23.336
92372W        W93236  12.752  14.647  25.031
92373W        W93237  13.684  17.354  24.134
92374W        W93238  14.016  17.717  23.961
92375W        W93239  12.943  17.498  22.361
92376W        W93240  11.063  17.254  25.256
92377W        W93241  11.891  15.497  24.216
92378W        W93242  11.891  14.834  23.392
92379W        W93243  13.371  15.573  24.022
92380W        W93244  12.457  16.684  21.959
92381W        W93245  14.325  16.747  23.924
92382W        W93246  11.649  17.743  25.088
92383W        W93247  14.073  18.168  22.867
92384W        W93248  12.358  15.154  23.421
92385W        W93249  11.496  16.625  23.717
92386W        W93250  12.130  18.228  24.290
92387W        W93251  14.326  18.257  25.163
92388W        W93252  13.442  16.467  24.267
92389W        W93253  11.016  15.802  21.717
92390W        W93254  14.346  17.810  23.114
92391W        W93255  14.039  15.263  22.383
92392W        W93256  12.267  14.667  24.830
92393W        W93257  14.085  17.531  23.467
92394W        W93258  14.028  15.929  23.155
92395W        W93259  12.487  15.688  23.452
92396W        W93260  12.532  15.862  24.735
92397W        W93261  13.529  17.149  24.785
92398W        W93262  12.062  15.644  24.687
92399W        W93263  12.154  17.999  23.516
92400W        W93264  11.490  18.185  25.342
92401W        W93265  11.798  17.680  21.722
92402W        W93266  14.243  17.298  23.016
92403W        W93267  11.635  15.915  24.838
92404W        W93268  14.383  15.606  22.117
92405W        W93269  12.169  16.999  22.883
92406W        W93270  13.436  16.249  24.768
92407W        W93271  13.257  15.869  24.459
92408W        W93272  11.758  16.384  24.409
92409W        W93273  13.986  18.024  24.399
92410W        W93274  13.699  14.895  25.227
92411W        W93275  11.444  14.985  25.038
92412W        W93276  11.705  16.201  23.925
92413W        W93277  12.365  15.685  21.769
92414W        W93278  11.003  17.394  24.687
92415W        W93279  12.648  16.315  24.098
92416W        W93280  12.411  15.166  21.929
92417W        W93281  11.656  16.256  23.406
92418W        W93282  11.135  18.152  24.458
92419W        W93283  14.038  16.388  22.568
92420W        W93284  14.171  15.077  25.196
92421W        W93285  13.666  17.437  23.188
92422W        W93286  11.345  16.313  25.174
92423W        W93287  14.216  14.781  22.461
92424W        W93288  13.742  17.214  22.594
92425W        W93289  12.902  15.995  22.337
92426W        W93290  13.725  14.938  22.097
92427W        W93291  13.734  15.724  24.514
92428W        W93292  11.192  16.201  23.660
92429W        W93293  11.974  17.179  23.328
92430W        W93294  13.537  15.748  23.111
92431W        W93295  12.590  15.281  23.861
92432W        W93296  14.492  17.062  24.359
92433W        W93297  14.447  15.109  24.151
92434W        W93298  11.018  17.926  23.599
92435W        W93299  11.080  17.080  23.081
92436W        W93300  11.565  14.835  25.546
92437W        W93301  12.326  17.554  25.357
92438W        W93302  14.432  16.564  23.457
92439W        W93303  13.709  16.732  22.359
92440W        W93304  13.068  18.181  24.352
92441W        W93305  13.862  16.845  25.525
92442W        W93306  12.593  14.577  22.696
92443W        W93307  13.334  15.501  23.490
92444W        W93308  11.115  17.137  24.076
92445W        W93309  12.174  14.869  22.747
92446W        W93310  12.271  16.421  25.231
92447W        W93311  13.145  15.412  22.944
92448W        W93312  13.363  16.995  24.331
92449W        W93313  11.432  17.749  24.639
92450W        W93314  12.006  15.024  22.245
92451W        W93315  13.531  15.387  22.561
92452W        W93316  13.291  17.574  24.935
92453W        W93317  12.197  16.331  23.885
92454W        W93318  11.632  18.140  24.361
92455W        W93319  14.349  18.015  21.957
92456W        W93320  11.396  16.836  25.200
92457W        W93321  13.363  16.901  23.831
92458W        W93322  11.557  16.874  23.266
92459W        W93323  12.181  17.678  24.314
92460W        W93324  12.782  14.861  23.555
92461W        W93325  10.601  16.874  22.437
92462W        W93326  12.853  15.819  21.869
92463W        W93327  11.056  16.616  23.352
92464W        W93328  12.509  15.041  24.524
92465W        W93329  14.210  14.838  21.951
92466W        W93330  14.314  16.669  25.314
92467W        W93331  12.989  17.942  25.258
92468W        W93332  14.443  16.905  24.842
92469W        W93333  14.016  17.740  25.508
92470W        W93334  11.833  18.109  23.899
92471W        W93335  14.496  16.844  23.040
92472W        W93336  13.260  16.022  23.547
92473W        W93337  12.897  14.553  23.122
92474W        W93338  11.937  17.661  23.205
92475W        W93339  12.402  15.508  24.316
92476W        W93340  12.340  14.737  23.776
92477W        W93341  11.206  17.851  22.449
92478W        W93342  12.982  16.875  23.233
92479W        W93343  11.960  17.921  24.693
92480W        W93344  10.820  16.686  22.865
92481W        W93345  11.216  15.295  23.714
92482W        W93346  12.829  17.080  23.719
92483W        W93347  10.735  14.925  22.789
92484W        W93348  13.877  16.220  24.500
92485W        W93349  13.565  15.438  22.044
92486W        W93350  14.162  17.225  23.977
92487W        W93351  12.817  17.673  23.685
92488W        W93352  12.235  17.894  22.831
92489W        W93353  13.301  14.625  21.913
92490W        W93354  11.326  18.004  23.983
92491W        W93355  13.162  15.676  25.404
92492W        W93356  11.412  15.317  25.449
92493W        W93357  10.894  15.918  23.029
92494W        W93358  12.498  16.151  22.050
92495W        W93359  13.452  16.094  25.280
92496W        W93360  11.944  16.736  24.048
92497W        W93361  13.571  14.682  23.092
92498W        W93362  12.690  18.239  23.611
92499W        W93363  13.773  17.582  24.610
92500W        W93364  13.590  17.674  23.663
92501W        W93365  13.471  16.725  23.354
92502W        W93366  12.727  15.090  22.406
92503W        W93367  14.521  14.645  23.183
92504W        W93368  12.166  16.354  21.629
92505W        W93369  14.342  15.529  23.155
92506W        W93370  13.220  16.891  22.311
92507W        W93371  13.958  16.971  25.015
92508W        W93372  13.799  17.584  22.223
92509W        W93373  12.311  15.293  25.056
92510W        W93374  12.098  15.993  24.291
92511W        W93375  14.200  17.418  24.889
92512W        W93376  13.334  15.209  24.987
92513W        W93377  11.025  15.932  24.960
92514W        W93378  12.983  16.307  24.493
92515W        W93379  11.200  17.052  23.585
92516W        W93380  11.258  16.273  24.164
92517W        W93381  13.713  16.705  24.612
92518W        W93382  13.515  17.975  25.165
92519W        W93383  13.419  15.698  24.929
92520W        W93384  13.828  17.930  23.266
92521W        W93385  12.623  17.502  24.572
92522W        W93386  12.434  17.934  23.946
92523W        W93387  13.990  17.119  24.503
92524W        W93388  12.811  17.110  25.498
92525W        W93389  11.678  17.098  23.751
92526W        W93390  13.935  16.701  23.592
92527W        W93391  13.542  17.857  24.159
92528W        W93392  11.669  17.672  24.182
92529W        W93393  12.697  15.633  25.186
92530W        W93394  12.794  17.686  22.832
92531W        W93395  12.310  16.939  25.366
92532W        W93396  12.368  17.445  23.052
92533W        W93397  11.993  15.797  21.429
92534W        W93398  11.079  18.209  28.827
92535W        W93399  11.418  17.134  28.660
92536W        W93400  14.178  16.642  26.348
92537W        W93401  14.278  17.987  28.112
92538W        W93402  12.018  17.984  25.664
92539W        W93403  12.270  15.967  26.616
92540W        W93404  11.497  15.652  26.854
92541W        W93405  12.813  16.585  26.374
92542W        W93406  12.464  17.937  28.300
92543W        W93407  11.165  15.371  28.545
92544W        W93408  11.621  14.563  28.307
92545W        W93409  13.498  14.973  27.259
92546W        W93410  13.140  15.719  25.993
92547W        W93411  13.825  15.247  28.877
92548W        W93412  11.204  15.012  28.101
92549W        W93413  11.324  17.457   0.062
92550W        W93414  12.578  16.834  25.961
92551W        W93415  11.016  15.682  27.598
92552W        W93416  11.977  15.809  28.829
92553W        W93417  14.402  15.597  27.282
92554W        W93418  14.211  16.629  28.002
92555W        W93419  12.650  15.884  27.003
92556W        W93420  13.165  17.299  27.661
92557W        W93421  11.504  16.697  27.868
92558W        W93422  10.648  16.013  27.720
92559W        W93423  11.979  16.305  28.351
92560W        W93424  14.311  15.991  28.794
92561W        W93425  11.813  17.416  27.311
92562W        W93426  13.107  17.215  28.238
92563W        W93427  12.318  15.624  27.516
92564W        W93428  12.464  16.606  27.241
92565W        W93429  13.083  17.542   0.088
92566W        W93430  12.498  16.709  28.947
92567W        W93431  12.661  16.429  28.556
92568W        W93432  10.978  15.654  28.984
92569W        W93433  13.670  17.290  28.844
92570W        W93434  11.387  14.844  26.570
92571W        W93435  11.899  17.190  27.811
92572W        W93436  14.479  17.000  27.134
92573W        W93437  13.633  15.291  27.644
92574W        W93438  14.184  15.419  25.581
92575W        W93439  14.593  16.039  27.921
92576W        W93440  12.496  17.895  27.779
92577W        W93441  14.402  17.121  26.258
92578W        W93442  11.436  18.430  26.268
92579W        W93443  11.820  18.239  26.669
92580W        W93444  11.667  14.901  27.913
92581W        W93445  14.271  15.655  28.101
92582W        W93446  13.594  16.160  26.912
92583W        W93447  13.569  16.071  25.870
92584W        W93448  12.840  16.974  27.896
92585W        W93449  12.601  15.359  27.103
92586W        W93450  13.284  17.654  28.052
92587W        W93451  14.048  16.250  26.685
92588W        W93452  13.168  14.820  26.430
92589W        W93453  11.577  17.934  26.330
92590W        W93454  11.105  15.254  26.712
92591W        W93455  13.664  15.818  27.360
92592W        W93456  11.238  17.575  27.390
92593W        W93457  12.408  17.810  25.939
92594W        W93458  13.910  15.844  25.470
92595W        W93459  11.146  17.582  27.914
92596W        W93460  11.933  17.205  28.332
92597W        W93461  11.951  16.616  27.042
92598W        W93462  12.386  14.866  27.928
92599W        W93463  14.484  14.769  27.444
92600W        W93464  11.853  16.676  25.413
92601W        W93465  11.277  15.665  25.803
92602W        W93466  11.483  17.552  26.919
92603W        W93467  12.351  16.834  26.798
92604W        W93468  13.861  17.712  28.611
92605W        W93469  13.092  15.346  26.367
92606W        W93470  14.214  18.096  27.098
92607W        W93471  13.940  15.838  28.471
92608W        W93472  14.584  17.293  26.713
92609W        W93473  13.102  16.662  28.293
92610W        W93474  10.605  16.169  26.742
92611W        W93475  11.990  16.723  28.048
92612W        W93476  13.284  15.837  26.490
92613W        W93477  13.123  16.302  26.709
92614W        W93478  11.565  15.763  27.825
92615W        W93479  11.465  15.721  28.842
92616W        W93480  11.417  14.691  27.067
92617W        W93481  13.156  15.086  27.650
92618W        W93482  12.708  15.301  28.817
92619W        W93483  13.357  15.048  25.995
92620W        W93484  14.356  17.593  28.761
92621W        W93485  13.263  14.672  28.731
92622W        W93486  14.161  17.132  28.852
92623W        W93487  13.900  15.334  28.340
92624W        W93488  13.372  15.158  26.788
92625W        W93489  13.960  16.261   0.074
92626W        W93490  11.617  17.918  27.261
92627W        W93491  12.657  15.492  26.107
92628W        W93492  11.901  14.837  28.706
92629W        W93493  13.910  15.360  26.667
92630W        W93494  14.314  15.856  26.389
92631W        W93495  12.149  17.998  28.851
92632W        W93496  12.166  14.661  26.173
92633W        W93497  14.321  15.080  27.054
92634W        W93498  14.487  17.545  25.707
92635W        W93499  11.166  16.733  27.447
92636W        W93500  13.299  15.166  25.489
92637W        W93501  14.537  17.472  27.526
92638W        W93502  14.412  14.730  27.951
92639W        W93503  13.028  15.698  28.742
92640W        W93504  12.570  17.092  26.420
92641W        W93505  13.457  16.421   0.114
92642W        W93506  13.214  14.547  27.364
92643W        W93507  11.734  15.491  27.311
92644W        W93508  11.211  16.757  28.307
92645W        W93509  13.112  18.004  27.282
92646W        W93510  14.127  15.388  27.673
92647W        W93511  12.982  17.962  28.311
92648W        W93512  14.215  16.577  25.824
92649W        W93513  12.589  16.354  26.784
92650W        W93514  14.577  14.693  28.429
92651W        W93515  12.514  16.673  28.139
92652W        W93516  12.838  15.650  27.447
92653W        W93517  13.817  15.831  26.491
92654W        W93518  13.966  15.724  25.983
92655W        W93519  14.129  17.478  26.529
92656W        W93520  13.573  17.040  27.425
92657W        W93521  13.583  16.262  26.394
92658W        W93522  12.922  16.368  27.205
92659W        W93523  13.976  16.259  27.283
92660W        W93524  11.374  15.307  27.686
92661W        W93525  13.992  16.374  28.551
92662W        W93526  14.359  17.954  27.589
92663W        W93527  12.304  17.589  27.173
92664W        W93528  13.463  18.030  28.517
92665W        W93529  13.380  15.308  28.098
92666W        W93530  12.645  18.344  28.009
92667W        W93531  14.278  15.027  26.535
92668W        W93532  14.087  16.142  28.091
92669W        W93533  11.035  15.512  28.073
92670W        W93534  13.879  15.365  27.188
92671W        W93535  14.309  15.490  28.611
92672W        W93536  13.138  17.153  27.150
92673W        W93537  12.401  17.972  26.789
92674W        W93538  11.396  15.127  25.948
92675W        W93539  12.815  14.701  27.651
92676W        W93540  11.587  18.190  25.851
92677W        W93541  12.326  16.449  26.305
92678W        W93542  12.750  16.948  28.508
92679W        W93543  12.776  15.074  26.686
92680W        W93544  13.861  14.899  26.913
92681W        W93545  13.725  18.180  27.272
92682W        W93546  12.997  18.005  27.788
92683W        W93547  12.329  16.878  27.703
92684W        W93548  14.157  17.538  27.871
92685W        W93549  11.896  14.910  26.536
92686W        W93550  12.359  17.395  27.654
92687W        W93551  11.926  15.208  25.557
92688W        W93552  12.604  15.846  27.901
92689W        W93553  13.559  14.773  27.728
92690W        W93554  11.013  16.529  27.899
92691W        W93555  12.672  16.297  25.928
92692W        W93556  12.042  14.720  25.679
92693W        W93557  12.533  15.525  26.616
92694W        W93558  13.596  14.906  28.370
92695W        W93559  12.215  16.797  28.534
92696W        W93560  13.034  16.590  28.872
92697W        W93561  13.498  16.518  28.604
92698W        W93562  12.895  14.867   0.057
92699W        W93563  12.150  15.176  27.332
92700W        W93564  11.643  15.155  26.915
92701W        W93565  11.358  18.048  26.800
92702W        W93566  12.748  17.496  28.485
92703W        W93567  12.085  16.990  25.850
92704W        W93568  13.425  16.320  27.381
92705W        W93569  13.691  16.136  27.769
92706W        W93570  12.722  16.524  27.682
92707W        W93571  13.375  17.011  25.662
92708W        W93572  12.982  14.992  27.165
92709W        W93573  14.604  15.442  26.315
92710W        W93574  11.298  17.783  28.649
92711W        W93575  11.472  17.145  28.147
92712W        W93576  11.058  18.095  26.369
92713W        W93577  12.903  15.439  27.916
92714W        W93578  12.197  17.385  26.179
92715W        W93579  14.318  17.851  26.141
92716W        W93580  13.132  16.218  26.161
92717W        W93581  12.017  15.443  26.531
92718W        W93582  12.814  15.312  25.613
92719W        W93583  13.307  16.994  28.646
92720W        W93584  13.694  14.959  26.417
92721W        W93585  11.192  14.649  25.849
92722W        W93586  12.419  17.195  28.158
92723W        W93587  12.208  17.076  27.237
92724W        W93588  11.980  17.476  25.723
92725W        W93589  11.195  17.600  26.490
92726W        W93590  11.674  16.224  28.770
92727W        W93591  12.407  14.880  28.861
92728W        W93592  12.886  14.968  28.097
92729W        W93593  12.299  14.599  26.699
92730W        W93594  13.068  14.566  25.973
92731W        W93595  11.239  14.807  27.622
92732W        W93596  11.047  15.590  27.102
92733W        W93597  13.989  14.926  27.440
92734W        W93598  11.528  15.311  26.415
92735W        W93599  13.964  14.992  27.967
92736W        W93600  14.340  16.121  25.601
92737W        W93601  11.674  14.984  27.408
92738W        W93602  12.688  15.586  28.368
92739W        W93603  10.929  15.272  25.787
92740W        W93604  11.706  16.737  28.486
92741W        W93605  13.009  16.090  27.634
92742W        W93606  12.844  18.119  25.757
92743W        W93607  10.996  16.602  25.448
92744W        W93608  11.901  17.119  28.832
92745W        W93609  11.441  16.302  28.308
92746W        W93610  12.303  16.272  27.921
92747W        W93611  14.024  14.583  28.290
92748W        W93612  14.499  16.361  28.338
92749W        W93613  14.546  16.193  26.045
92750W        W93614  13.314  16.692  26.361
92751W        W93615  13.891  18.236  25.425
92752W        W93616  13.124  16.030   0.136
92753W        W93617  11.460  16.937   0.142
92754W        W93618  14.604  15.078  28.845
92755W        W93619  14.140  15.900  27.631
92756W        W93620  12.600  17.759  28.906
92757W        W93621  12.556  14.643  25.835
92758W        W93622  14.504  17.005  25.703
92759W        W93623  11.740  15.332  28.654
92760W        W93624  12.228  17.564  28.543
92761W        W93625  14.419  15.177  28.222
92762W        W93626  14.009  18.253  25.958
92763W        W93627  13.791  16.630  27.636
92764W        W93628  11.996  15.084  28.249
92765W        W93629  12.238  16.273  28.789
92766W        W93630  11.743  17.445  26.481
92767W        W93631  13.750  16.670  26.658
92768W        W93632  11.558  15.376  28.175
92769W        W93633  12.646  17.259  26.948
92770W        W93634  14.527  16.000  26.939
92771W        W93635  12.787  14.744  28.547
92772W        W93636  13.659  17.417  27.762
92773W        W93637  13.942  17.702  27.422
92774W        W93638  12.764  17.626  25.606
92775W        W93639  10.992  17.040  28.966
92776W        W93640  11.907  15.342  27.775
92777W        W93641  11.937  14.731  27.035
92778W        W93642  13.315  15.694  27.722
92779W        W93643  12.239  16.519  25.740
92780W        W93644  14.299  16.669  27.489
92781W        W93645  11.753  17.596  28.744
92782W        W93646  14.182  18.258  26.508
92783W        W93647  12.253  15.108  26.837
92784W        W93648  11.557  16.383  27.435
92785W        W93649  12.127  18.202  27.995
92786W        W93650  14.209  18.092  28.674
92787W        W93651  13.286  16.433  27.880
92788W        W93652  11.045  16.088  25.546
92789W        W93653  14.463  17.842  26.677
92790W        W93654  14.169  15.268  26.083
92791W        W93655  12.281  14.657  28.397
92792W        W93656  14.296  17.516  27.073
92793W        W93657  14.024  15.824  26.979
92794W        W93658  12.158  15.628  27.015
92795W        W93659  12.407  16.015  28.359
92796W        W93660  13.607  17.330  28.288
92797W        W93661  12.160  15.555  28.417
92798W        W93662  12.087  18.180  27.136
92799W        W93663  11.634  18.132  28.804
92800W        W93664  11.564  17.745  25.591
92801W        W93665  14.151  16.997  26.736
92802W        W93666  11.700  15.844  28.368
92803W        W93667  14.480  15.709  25.894
92804W        W93668  12.038  16.956  26.411
92805W        W93669  13.106  16.179  28.557
92806W        W93670  13.129  15.801  28.199
92807W        W93671  11.761  16.240  27.894
92808W        W93672  13.898  18.157  27.773
92809W        W93673  13.766  14.720  28.833
92810W        W93674  11.401  14.917  28.592
92811W        W93675  11.921  15.962  27.474
92812W        W93676  12.338  15.518  25.536
92813W        W93677  11.077  17.399  28.391
92814W        W93678  12.517  16.106  27.466
92815W        W93679  12.371  15.111  25.832
92816W        W93680  11.693  16.144  26.996
92817W        W93681  11.261  18.189  28.328
92818W        W93682  14.029  16.201  26.136
92819W        W93683  14.155  14.969  28.598
92820W        W93684  13.844  17.272  27.049
92821W        W93685  11.170  16.149  28.916
92822W        W93686  14.074  14.767  26.108
92823W        W93687  13.870  17.049  26.298
92824W        W93688  12.775  15.969  26.455
92825W        W93689  13.795  15.083  25.718
92826W        W93690  13.765  15.680  27.986
92827W        W93691  11.412  15.882  27.341
92828W        W93692  11.811  17.098  26.892
92829W        W93693  13.538  15.640  26.887
92830W        W93694  12.627  15.168  27.570
92831W        W93695  14.438  17.111  27.968
92832W        W93696  14.585  15.179  27.743
92833W        W93697  11.054  18.012  27.222
92834W        W93698  11.336  17.106  26.663
92835W        W93699  11.560  14.762   0.096
92836W        W93700  12.614  17.396   0.278
92837W        W93701  14.381  16.500  27.003
92838W        W93702  13.724  16.611  26.024
92839W        W93703  13.419  18.217  28.052
92840W        W93704  13.840  16.741  28.940
92841W        W93705  12.673  14.651  26.345
92842W        W93706  13.279  15.430  27.275
92843W        W93707  11.372  17.168  27.667
92844W        W93708  12.384  15.094  26.343
92845W        W93709  11.937  16.637  28.983
92846W        W93710  13.010  15.538  26.839
92847W        W93711  13.418  16.936  27.933
92848W        W93712  11.574  17.626  28.248
92849W        W93713  12.156  17.523   0.063
92850W        W93714  11.909  15.115  26.069
92851W        W93715  13.587  15.446  26.248
92852W        W93716  13.265  17.557  28.600
92853W        W93717  12.201  16.167  27.084
92854W        W93718  11.642  18.087  28.000
92855W        W93719  14.398  18.064  25.657
92856W        W93720  11.302  16.617  28.782
92857W        W93721  13.144  16.761  27.500
92858W        W93722  11.423  16.641  26.995
92859W        W93723  12.085  17.641  28.033
92860W        W93724  12.488  14.801  27.181
92861W        W93725  10.691  16.738  26.228
92862W        W93726  12.723  15.813  25.707
92863W        W93727  11.153  16.176  26.996
92864W        W93728  12.479  15.124  28.402
92865W        W93729  14.287  14.908  25.678
92866W        W93730  14.417  16.515  28.813
92867W        W93731  13.056  17.992  28.834
92868W        W93732  14.339  16.870  28.444
92869W        W93733  13.990  17.598   0.118
92870W        W93734  11.797  18.316  27.559
92871W        W93735  14.601  16.789  26.631
92872W        W93736  13.177  15.926  27.142
92873W        W93737  12.866  14.593  26.829
92874W        W93738  11.928  17.769  26.868
92875W        W93739  12.382  15.384  27.976
92876W        W93740  12.092  14.703  27.526
92877W        W93741  11.234  17.763  25.980
92878W        W93742  12.862  16.780  26.898
92879W        W93743  11.925  17.962  28.405
92880W        W93744  10.974  16.521  26.638
92881W        W93745  11.189  15.121  27.223
92882W        W93746  12.710  17.041  27.407
92883W        W93747  10.988  14.956  26.248
92884W        W93748  13.544  16.093  28.269
92885W        W93749  13.551  15.548  25.737
92886W        W93750  14.102  17.166  27.493
92887W        W93751  12.797  17.571  27.425
92888W        W93752  12.086  17.849  26.382
92889W        W93753  13.414  14.681  25.603
92890W        W93754  11.292  18.026  27.657
92891W        W93755  13.416  15.585   0.061
92892W        W93756  11.349  15.230   0.002
92893W        W93757  11.011  15.822  26.642
92894W        W93758  12.373  15.921  26.105
92895W        W93759  13.538  16.035  28.791
92896W        W93760  12.059  16.469  27.525
92897W        W93761  13.398  14.633  26.872
92898W        W93762  12.574  18.015  27.281
92899W        W93763  13.772  17.789  28.109
92900W        W93764  13.458  17.544  27.279
92901W        W93765  13.371  16.678  27.021
92902W        W93766  12.844  15.023  26.042
92903W        W93767  14.593  14.662  26.739
92904W        W93768  12.267  16.035  25.600
92905W        W93769  14.392  15.521  26.775
92906W        W93770  13.060  16.649  25.884
92907W        W93771  13.826  16.916  28.473
92908W        W93772  14.072  17.386  25.947
92909W        W93773  12.204  15.350  28.895
92910W        W93774  12.070  15.812  27.971
92911W        W93775  14.120  17.344  28.355
92912W        W93776  13.140  15.169  28.558
92913W        W93777  11.149  15.878  28.467
92914W        W93778  12.838  16.248  28.107
92915W        W93779  11.378  17.125  27.172
92916W        W93780  11.065  16.222  27.499
92917W        W93781  13.721  16.551  28.134
92918W        W93782  13.525  17.828  28.990
92919W        W93783  13.492  15.582  28.535
92920W        W93784  13.866  17.774  26.909
92921W        W93785  12.787  17.519  27.960
92922W        W93786  12.051  17.856  27.545
92923W        W93787  13.922  17.040  27.972
92924W        W93788  12.918  17.072  28.986
92925W        W93789  11.745  16.880  27.430
92926W        W93790  13.922  16.760  27.143
92927W        W93791  13.487  17.889  27.647
92928W        W93792  11.630  17.632  27.737
92929W        W93793  12.503  15.798  28.840
92930W        W93794  12.567  17.639  26.430
92931W        W93795  12.445  17.200  28.813
92932W        W93796  12.209  17.367  26.705
92933W        W93797  11.852  15.713  25.544
92934W        W93798  11.018  21.935   3.391
92935W        W93799  11.170  20.773   2.764
92936W        W93800  14.128  20.459   0.715
92937W        W93801  14.296  21.506   2.598
92938W        W93802  12.329  21.545   0.366
92939W        W93803  12.107  19.706   1.137
92940W        W93804  11.751  19.523   1.471
92941W        W93805  12.665  20.316   0.798
92942W        W93806  12.499  21.537   3.087
92943W        W93807  11.079  18.991   2.792
92944W        W93808  11.510  18.170   2.779
92945W        W93809  13.509  18.607   1.708
92946W        W93810  13.193  19.270   0.411
92947W        W93811  13.724  19.103   3.141
92948W        W93812  11.120  18.534   2.537
92949W        W93813  11.208  21.462   3.455
92950W        W93814  12.574  20.657   0.414
92951W        W93815  11.027  19.491   1.909
92952W        W93816  12.239  19.423   3.119
92953W        W93817  14.380  19.105   1.713
92954W        W93818  14.111  20.315   2.412
92955W        W93819  12.672  19.788   1.538
92956W        W93820  13.080  21.122   1.900
92957W        W93821  11.617  20.335   2.105
92958W        W93822  10.781  19.960   1.915
92959W        W93823  12.271  19.933   2.996
92960W        W93824  14.284  19.787   3.107
92961W        W93825  11.829  21.098   1.700
92962W        W93826  12.955  20.986   2.773
92963W        W93827  12.547  19.474   1.939
92964W        W93828  12.420  20.344   1.649
92965W        W93829  13.307  21.152   3.444
92966W        W93830  12.584  20.244   3.381
92967W        W93831  12.733  20.100   2.854
92968W        W93832  10.919  19.280   3.246
92969W        W93833  13.708  20.999   3.143
92970W        W93834  11.467  18.423   1.029
92971W        W93835  11.850  20.799   2.146
92972W        W93836  14.295  20.667   1.519
92973W        W93837  13.993  18.755   1.816
92974W        W93838  14.228  18.990  28.966
92975W        W93839  14.656  19.674   2.346
92976W        W93840  12.402  21.612   2.138
92977W        W93841  14.265  20.956   0.810
92978W        W93842  11.594  21.897   0.617
92979W        W93843  11.776  21.762   1.095
92980W        W93844  11.621  18.458   2.355
92981W        W93845  14.141  19.673   2.512
92982W        W93846  13.686  19.895   1.287
92983W        W93847  13.586  19.653   0.286
92984W        W93848  12.683  21.022   2.221
92985W        W93849  12.873  19.321   1.582
92986W        W93850  13.089  21.323   2.419
92987W        W93851  14.153  20.145   1.130
92988W        W93852  13.079  18.717   0.993
92989W        W93853  11.661  21.369   0.728
92990W        W93854  11.156  18.732   1.294
92991W        W93855  13.948  19.419   1.652
92992W        W93856  11.269  21.151   1.644
92993W        W93857  12.637  21.297   0.740
92994W        W93858  13.909  19.389  28.918
92995W        W93859  11.061  21.220   2.205
92996W        W93860  11.684  20.850   2.633
92997W        W93861  11.978  20.115   1.416
92998W        W93862  12.188  18.722   1.964
92999W        W93863  14.492  18.322   1.781
93000W        W93864  11.564  20.084   0.197
93001W        W93865  11.352  19.267   0.548
93002W        W93866  11.360  21.156   1.128
93003W        W93867  12.184  20.553   1.224
93004W        W93868  13.836  21.496   2.874
93005W        W93869  12.849  19.134   0.784
93006W        W93870  14.180  21.665   1.503
93007W        W93871  13.826  19.577   2.946
93008W        W93872  14.552  21.020   1.262
93009W        W93873  13.104  20.429   2.702
93010W        W93874  11.037  20.101   1.154
93011W        W93875  11.988  20.446   2.473
93012W        W93876  13.251  19.607   0.937
93013W        W93877  12.991  20.010   1.181
93014W        W93878  11.330  19.447   2.350
93015W        W93879  11.536  19.296   2.791
93016W        W93880  11.353  18.268   1.515
93017W        W93881  13.062  18.683   2.104
93018W        W93882  12.923  18.833   3.287
93019W        W93883  13.362  18.734   0.526
93020W        W93884  14.298  21.363   3.115
93021W        W93885  13.258  18.390   3.109
93022W        W93886  14.197  20.845   3.219
93023W        W93887  13.754  18.855   2.682
93024W        W93888  13.529  18.817   1.224
93025W        W93889  13.857  19.966   3.322
93026W        W93890  11.595  21.547   1.532
93027W        W93891  12.362  19.370   0.820
93028W        W93892  11.755  18.551   3.107
93029W        W93893  14.009  19.209   0.872
93030W        W93894  14.423  19.529   0.760
93031W        W93895  12.072  21.693   3.365
93032W        W93896  12.062  18.317   0.749
93033W        W93897  14.355  18.669   1.452
93034W        W93898  14.479  21.159   0.364
93035W        W93899  11.142  20.336   1.890
93036W        W93900  13.273  18.850   0.039
93037W        W93901  14.377  21.164   1.744
93038W        W93902  14.333  18.322   2.306
93039W        W93903  12.924  19.665   3.080
93040W        W93904  12.757  20.811   0.876
93041W        W93905  13.460  20.170   3.569
93042W        W93906  13.064  18.343   1.694
93043W        W93907  11.506  19.279   1.888
93044W        W93908  11.476  20.363   2.600
93045W        W93909  13.008  21.498   1.517
93046W        W93910  14.060  19.073   2.213
93047W        W93911  12.942  21.638   2.806
93048W        W93912  14.323  20.308   0.281
93049W        W93913  12.452  20.093   1.200
93050W        W93914  14.482  18.437   2.901
93051W        W93915  12.647  20.642   2.567
93052W        W93916  13.121  19.196   2.006
93053W        W93917  13.736  19.654   0.795
93054W        W93918  14.051  19.474   0.411
93055W        W93919  13.798  21.135   0.913
93056W        W93920  13.658  20.763   1.576
93057W        W93921  13.366  19.996   0.608
93058W        W93922  12.966  20.188   1.692
93059W        W93923  14.130  19.901   1.607
93060W        W93924  11.272  18.931   2.265
93061W        W93925  13.954  20.058   2.817
93062W        W93926  14.330  21.573   2.043
93063W        W93927  12.297  20.884   1.606
93064W        W93928  13.429  21.709   2.598
93065W        W93929  13.190  19.033   2.495
93066W        W93930  12.546  21.909   2.573
93067W        W93931  14.283  18.736   0.955
93068W        W93932  13.948  19.919   2.082
93069W        W93933  10.856  19.226   2.351
93070W        W93934  13.983  18.998   1.350
93071W        W93935  14.118  19.206   2.727
93072W        W93936  13.163  20.810   1.496
93073W        W93937  12.551  21.475   1.233
93074W        W93938  11.504  18.755   0.596
93075W        W93939  12.616  18.380   2.040
93076W        W93940  11.712  21.522   0.208
93077W        W93941  11.843  19.983   0.736
93078W        W93942  12.807  20.608   3.093
93079W        W93943  12.673  18.976   1.244
93080W        W93944  13.886  18.429   1.401
93081W        W93945  13.531  21.768   1.641
93082W        W93946  12.903  21.594   2.023
93083W        W93947  12.348  20.607   2.104
93084W        W93948  14.072  21.196   2.259
93085W        W93949  11.874  18.725   1.000
93086W        W93950  12.208  21.141   2.055
93087W        W93951  11.947  18.768   0.305
93088W        W93952  12.750  19.279   2.372
93089W        W93953  13.445  18.302   2.114
93090W        W93954  11.001  20.283   2.396
93091W        W93955  12.590  19.931   0.252
93092W        W93956  11.985  18.275   0.243
93093W        W93957  12.762  19.533   1.105
93094W        W93958  13.366  18.557   2.550
93095W        W93959  12.352  20.435   2.923
93096W        W93960  13.070  20.165   3.223
93097W        W93961  13.525  20.247   3.025
93098W        W93962  12.945  18.494   3.664
93099W        W93963  12.021  19.198   1.784
93100W        W93964  11.646  18.994   1.477
93101W        W93965  11.281  21.643   0.968
93102W        W93966  12.815  21.143   3.244
93103W        W93967  11.684  20.477   0.520
93104W        W93968  13.499  20.021   1.764
93105W        W93969  13.547  19.546   1.990
93106W        W93970  12.854  20.377   2.187
93107W        W93971  13.477  20.624   0.144
93108W        W93972  13.063  18.839   1.575
93109W        W93973  14.634  19.045   0.728
93110W        W93974  11.219  21.649   2.964
93111W        W93975  11.316  20.744   2.280
93112W        W93976  10.846  21.751   0.721
93113W        W93977  12.576  18.757   2.372
93114W        W93978  12.230  21.024   0.562
93115W        W93979  14.074  21.428   0.574
93116W        W93980  12.875  19.855   0.690
93117W        W93981  11.988  19.200   1.139
93118W        W93982  12.883  19.226   0.005
93119W        W93983  13.294  20.667   3.220
93120W        W93984  13.809  18.727   0.781
93121W        W93985  11.009  18.453   0.274
93122W        W93986  12.205  20.908   2.515
93123W        W93987  11.939  20.529   1.717
93124W        W93988  12.071  20.647   0.220
93125W        W93989  10.966  21.241   0.775
93126W        W93990  11.782  19.736   2.936
93127W        W93991  12.290  18.495   3.447
93128W        W93992  12.891  18.634   2.759
93129W        W93993  12.309  18.306   1.215
93130W        W93994  12.996  18.376   0.605
93131W        W93995  11.206  18.452   2.015
93132W        W93996  11.262  19.351   1.425
93133W        W93997  13.963  18.230   1.887
93134W        W93998  11.480  19.066   1.009
93135W        W93999  13.869  18.551   2.282
93136W        W94000  14.490  19.814   0.315
93137W        W94001  11.654  18.764   1.934
93138W        W94002  12.876  19.173   2.896
93139W        W94003  10.982  18.936   0.406
93140W        W94004  11.865  20.241   2.912
93141W        W94005  13.022  19.710   1.928
93142W        W94006  12.832  21.640   0.349
93143W        W94007  11.095  20.344   0.267
93144W        W94008  11.987  20.754   3.030
93145W        W94009  11.320  19.862   2.678
93146W        W94010  12.424  20.192   2.453
93147W        W94011  13.951  18.376   2.765
93148W        W94012  14.475  20.035   2.697
93149W        W94013  14.586  20.159   0.708
93150W        W94014  13.165  20.403   0.880
93151W        W94015  13.955  21.791   0.211
93152W        W94016  13.049  19.764   3.574
93153W        W94017  11.515  20.579   3.094
93154W        W94018  14.552  18.808   3.366
93155W        W94019  14.282  19.503   2.035
93156W        W94020  12.563  21.724   3.571
93157W        W94021  12.439  18.531   0.443
93158W        W94022  14.088  20.803   0.322
93159W        W94023  11.955  19.001   2.946
93160W        W94024  12.457  20.966   2.942
93161W        W94025  14.268  18.754   2.555
93162W        W94026  13.725  21.904   0.655
93163W        W94027  13.751  20.400   2.029
93164W        W94028  12.060  18.727   2.495
93165W        W94029  12.526  19.740   3.432
93166W        W94030  11.828  20.863   0.852
93167W        W94031  13.680  20.270   0.934
93168W        W94032  11.546  18.795   2.712
93169W        W94033  12.734  21.014   1.350
93170W        W94034  14.496  19.565   1.540
93171W        W94035  12.739  18.376   3.175
93172W        W94036  13.559  20.991   2.026
93173W        W94037  13.879  21.400   1.834
93174W        W94038  13.144  20.788   0.518
93175W        W94039  11.038  21.018   3.197
93176W        W94040  11.748  19.101   2.330
93177W        W94041  11.801  18.509   1.470
93178W        W94042  13.548  18.918   2.133
93179W        W94043  12.096  20.107   0.311
93180W        W94044  14.255  20.335   1.913
93181W        W94045  11.548  21.109   3.085
93182W        W94046  14.109  21.891   1.006
93183W        W94047  12.191  18.840   1.435
93184W        W94048  11.688  19.924   1.794
93185W        W94049  12.038  21.882   2.396
93186W        W94050  14.020  21.820   3.240
93187W        W94051  13.264  20.066   2.221
93188W        W94052  11.194  19.766   0.471
93189W        W94053  14.270  21.404   1.069
93190W        W94054  14.173  18.948   0.472
93191W        W94055  12.006  18.249   2.724
93192W        W94056  13.997  21.118   1.406
93193W        W94057  14.114  19.617   1.173
93194W        W94058  12.377  19.359   1.434
93195W        W94059  12.548  19.579   2.743
93196W        W94060  13.451  20.806   2.745
93197W        W94061  12.406  19.078   2.728
93198W        W94062  12.150  21.489   1.557
93199W        W94063  11.570  21.831   3.306
93200W        W94064  11.693  20.997   0.350
93201W        W94065  13.956  20.671   1.138
93202W        W94066  12.027  19.420   2.630
93203W        W94067  14.519  19.308   0.306
93204W        W94068  12.169  20.457   0.710
93205W        W94069  13.219  19.926   2.747
93206W        W94070  13.211  19.541   2.387
93207W        W94071  11.801  19.957   2.455
93208W        W94072  13.867  21.678   2.331
93209W        W94073  13.784  18.488   3.288
93210W        W94074  11.241  18.513   3.029
93211W        W94075  11.854  19.564   2.125
93212W        W94076  11.930  19.243   0.109
93213W        W94077  10.928  21.243   2.735
93214W        W94078  12.575  19.997   1.985
93215W        W94079  12.372  19.065   0.345
93216W        W94080  11.534  19.912   1.190
93217W        W94081  11.048  21.677   2.477
93218W        W94082  14.121  19.945   0.648
93219W        W94083  14.137  18.790   3.050
93220W        W94084  13.456  20.777   1.086
93221W        W94085  11.328  19.590   3.145
93222W        W94086  14.225  18.431   0.515
93223W        W94087  13.672  20.694   0.632
93224W        W94088  12.361  19.908   0.730
93225W        W94089  13.818  18.632   0.236
93226W        W94090  13.674  19.311   2.465
93227W        W94091  11.207  19.884   1.609
93228W        W94092  11.658  20.781   1.335
93229W        W94093  13.649  19.380   1.227
93230W        W94094  12.649  18.968   1.902
93231W        W94095  14.349  20.773   2.329
93232W        W94096  14.475  18.755   2.074
93233W        W94097  11.045  21.555   1.420
93234W        W94098  11.292  20.659   0.934
93235W        W94099  11.265  18.581   3.542
93236W        W94100  12.338  21.264   3.573
93237W        W94101  14.537  20.211   1.487
93238W        W94102  13.775  20.242   0.404
93239W        W94103  13.027  21.938   2.370
93240W        W94104  13.790  20.519   3.378
93241W        W94105  12.563  18.148   0.771
93242W        W94106  13.494  19.135   1.648
93243W        W94107  10.960  20.811   1.903
93244W        W94108  12.349  18.852   0.847
93245W        W94109  12.075  20.351   3.368
93246W        W94110  13.167  19.183   1.202
93247W        W94111  13.150  20.802   2.322
93248W        W94112  11.411  21.283   2.604
93249W        W94113  12.066  21.239   3.135
93250W        W94114  11.901  19.156   0.629
93251W        W94115  13.496  19.150   0.801
93252W        W94116  13.326  21.302   2.931
93253W        W94117  12.171  19.741   1.720
93254W        W94118  11.548  21.704   2.338
93255W        W94119  14.437  21.629   0.165
93256W        W94120  11.132  20.252   2.976
93257W        W94121  13.280  20.532   1.903
93258W        W94122  11.731  20.377   1.035
93259W        W94123  11.927  21.340   2.466
93260W        W94124  12.601  18.573   1.572
93261W        W94125  10.853  20.749   0.594
93262W        W94126  12.691  19.457   0.421
93263W        W94127  11.499  20.312   1.508
93264W        W94128  12.350  18.577   2.903
93265W        W94129  14.277  18.466   0.015
93266W        W94130  14.222  20.306   3.185
93267W        W94131  13.024  21.596   3.328
93268W        W94132  14.409  20.573   2.787
93269W        W94133  13.906  21.354   3.454
93270W        W94134  11.620  21.946   1.870
93271W        W94135  14.488  20.541   1.063
93272W        W94136  13.260  19.643   1.470
93273W        W94137  12.843  18.306   1.208
93274W        W94138  11.859  21.248   1.204
93275W        W94139  12.258  19.168   2.239
93276W        W94140  12.181  18.263   1.713
93277W        W94141  11.245  21.544   0.446
93278W        W94142  12.793  20.488   1.294
93279W        W94143  11.745  21.556   2.904
93280W        W94144  11.345  20.164   0.744
93281W        W94145  11.133  18.944   1.770
93282W        W94146  12.762  20.713   1.798
93283W        W94147  11.047  18.582   0.780
93284W        W94148  13.643  19.816   2.485
93285W        W94149  13.680  19.120   0.304
93286W        W94150  14.036  20.820   1.918
93287W        W94151  12.597  21.276   1.761
93288W        W94152  12.152  21.487   0.856
93289W        W94153  13.381  18.328   0.160
93290W        W94154  11.249  21.593   1.912
93291W        W94155  13.272  19.264   3.366
93292W        W94156  11.389  18.983   3.207
93293W        W94157  11.167  19.568   0.958
93294W        W94158  11.675  19.526   0.897
93295W        W94159  13.411  19.764   3.212
93296W        W94160  12.090  20.144   2.045
93297W        W94161  13.366  18.321   1.242
93298W        W94162  12.571  21.778   1.654
93299W        W94163  13.608  21.228   2.489
93300W        W94164  13.471  21.246   1.558
93301W        W94165  13.368  20.341   1.373
93302W        W94166  12.858  18.840   0.357
93303W        W94167  14.531  18.267   1.182
93304W        W94168  12.191  19.587   0.383
93305W        W94169  14.430  19.193   1.179
93306W        W94170  12.982  20.283   0.390
93307W        W94171  13.898  20.571   2.870
93308W        W94172  13.676  21.129   0.356
93309W        W94173  12.419  18.956   3.230
93310W        W94174  12.299  19.717   2.313
93311W        W94175  14.058  21.046   2.753
93312W        W94176  13.311  18.879   2.967
93313W        W94177  10.972  19.485   2.786
93314W        W94178  12.818  19.856   2.404
93315W        W94179  11.137  20.668   1.438
93316W        W94180  11.314  19.917   2.144
93317W        W94181  13.585  20.329   2.523
93318W        W94182  13.527  21.634   3.268
93319W        W94183  13.346  19.393   2.862
93320W        W94184  13.760  21.565   1.221
93321W        W94185  12.540  21.355   2.588
93322W        W94186  11.901  21.547   1.992
93323W        W94187  13.830  20.759   2.392
93324W        W94188  12.912  20.801   3.605
93325W        W94189  11.477  20.730   1.810
93326W        W94190  13.881  20.324   1.527
93327W        W94191  13.424  21.493   2.070
93328W        W94192  11.548  21.202   2.110
93329W        W94193  12.761  19.294   3.396
93330W        W94194  13.008  21.602   1.003
93331W        W94195  12.427  20.757   3.415
93332W        W94196  12.304  21.030   1.073
93333W        W94197  11.687  19.621   0.388
93334W        W94198  10.842  21.976   7.048
93335W        W94199  11.296  20.747   6.591
93336W        W94200  14.113  20.549   4.511
93337W        W94201  14.474  21.550   6.381
93338W        W94202  12.005  21.636   3.868
93339W        W94203  12.395  19.723   4.611
93340W        W94204  12.116  19.484   5.010
93341W        W94205  12.846  20.204   4.340
93342W        W94206  12.451  21.537   6.587
93343W        W94207  10.886  18.934   6.632
93344W        W94208  11.764  18.238   6.487
93345W        W94209  13.621  18.675   5.435
93346W        W94210  13.307  19.468   3.955
93347W        W94211  10.996  18.722   6.182
93348W        W94212  11.119  21.571   7.212
93349W        W94213  12.532  20.971   3.969
93350W        W94214  11.136  19.665   5.699
93351W        W94215  12.176  19.594   6.765
93352W        W94216  14.447  19.288   5.380
93353W        W94217  14.233  20.402   6.160
93354W        W94218  12.747  19.561   5.371
93355W        W94219  13.233  21.089   5.563
93356W        W94220  11.529  20.652   6.131
93357W        W94221  10.790  20.090   5.701
93358W        W94222  12.070  20.005   6.451
93359W        W94223  14.337  19.824   6.862
93360W        W94224  11.764  21.210   5.305
93361W        W94225  13.021  20.914   6.383
93362W        W94226  12.234  19.583   5.516
93363W        W94227  12.381  20.387   5.214
93364W        W94228  13.325  21.090   7.139
93365W        W94229  12.675  20.281   7.084
93366W        W94230  12.583  20.151   6.570
93367W        W94231  10.857  19.301   7.007
93368W        W94232  13.781  21.025   6.804
93369W        W94233  11.391  18.479   4.760
93370W        W94234  11.862  20.967   5.778
93371W        W94235  14.468  20.710   5.331
93372W        W94236  14.031  19.000   5.637
93373W        W94237  14.013  18.920   3.529
93374W        W94238  14.661  19.747   6.111
93375W        W94239  12.634  21.514   5.945
93376W        W94240  14.245  21.216   4.139
93377W        W94241  11.296  21.851   4.339
93378W        W94242  11.671  21.756   4.701
93379W        W94243  11.514  18.664   6.100
93380W        W94244  14.243  19.592   6.361
93381W        W94245  13.456  19.934   4.895
93382W        W94246  13.694  19.851   3.890
93383W        W94247  12.873  20.900   5.886
93384W        W94248  12.958  19.089   5.232
93385W        W94249  13.274  21.252   6.086
93386W        W94250  13.871  20.192   4.763
93387W        W94251  13.241  18.719   4.521
93388W        W94252  11.628  21.473   4.224
93389W        W94253  10.977  18.816   5.006
93390W        W94254  13.629  19.669   5.302
93391W        W94255  11.180  21.323   5.427
93392W        W94256  12.463  21.481   4.052
93393W        W94257  13.734  19.471   3.504
93394W        W94258  10.904  21.321   5.873
93395W        W94259  11.671  21.166   6.202
93396W        W94260  12.525  20.232   4.745
93397W        W94261  11.957  18.748   5.818
93398W        W94262  14.547  18.409   5.388
93399W        W94263  11.532  20.059   3.258
93400W        W94264  10.976  18.988   3.665
93401W        W94265  11.505  21.286   4.859
93402W        W94266  12.329  20.855   4.914
93403W        W94267  14.041  21.488   6.675
93404W        W94268  12.973  19.196   4.311
93405W        W94269  14.127  21.868   5.174
93406W        W94270  13.873  19.613   6.709
93407W        W94271  14.636  21.133   5.020
93408W        W94272  13.133  20.437   6.315
93409W        W94273  10.712  19.910   4.927
93410W        W94274  11.962  20.389   6.110
93411W        W94275  13.239  19.594   4.548
93412W        W94276  13.157  20.333   4.740
93413W        W94277  11.359  19.527   6.151
93414W        W94278  11.407  19.452   6.711
93415W        W94279  11.240  18.326   5.245
93416W        W94280  12.888  18.679   5.578
93417W        W94281  12.724  18.881   6.999
93418W        W94282  13.334  18.662   4.015
93419W        W94283  14.480  21.324   6.880
93420W        W94284  13.251  18.278   6.779
93421W        W94285  14.257  20.847   6.943
93422W        W94286  13.675  18.873   4.840
93423W        W94287  13.875  20.022   7.027
93424W        W94288  11.488  21.671   5.209
93425W        W94289  12.486  19.113   4.157
93426W        W94290  11.878  18.598   6.831
93427W        W94291  13.948  19.162   4.491
93428W        W94292  14.220  19.601   4.481
93429W        W94293  12.120  21.672   6.960
93430W        W94294  12.118  18.256   4.269
93431W        W94295  14.254  18.813   5.194
93432W        W94296  14.357  21.161   3.618
93433W        W94297  11.135  20.485   5.467
93434W        W94298  13.393  18.751   3.483
93435W        W94299  14.461  21.165   5.589
93436W        W94300  14.294  18.502   6.097
93437W        W94301  12.961  19.720   6.586
93438W        W94302  13.066  20.811   4.550
93439W        W94303  13.421  20.277   7.155
93440W        W94304  13.299  18.148   5.158
93441W        W94305  11.526  18.995   5.668
93442W        W94306  11.124  20.350   6.318
93443W        W94307  12.959  21.618   5.213
93444W        W94308  14.296  19.434   5.855
93445W        W94309  12.936  21.483   6.401
93446W        W94310  14.067  20.203   3.725
93447W        W94311  12.901  19.892   4.802
93448W        W94312  14.501  18.421   6.583
93449W        W94313  12.589  20.580   6.204
93450W        W94314  12.734  19.161   5.700
93451W        W94315  13.706  19.621   4.367
93452W        W94316  13.967  19.417   3.987
93453W        W94317  13.928  21.387   4.506
93454W        W94318  13.663  20.930   5.325
93455W        W94319  13.494  20.088   4.406
93456W        W94320  12.872  20.196   5.238
93457W        W94321  13.871  20.141   5.266
93458W        W94322  11.109  19.155   5.896
93459W        W94323  14.030  20.074   6.510
93460W        W94324  14.480  21.625   5.863
93461W        W94325  12.307  21.233   5.268
93462W        W94326  13.449  21.662   6.439
93463W        W94327  12.953  18.823   6.079
93464W        W94328  12.595  21.933   6.257
93465W        W94329  14.157  18.716   4.657
93466W        W94330  14.205  19.934   5.964
93467W        W94331  10.679  19.168   6.163
93468W        W94332  13.960  19.284   5.221
93469W        W94333  14.311  19.300   6.857
93470W        W94334  13.220  20.902   5.052
93471W        W94335  12.487  21.614   4.935
93472W        W94336  11.589  18.327   4.260
93473W        W94337  12.557  18.304   5.794
93474W        W94338  11.502  21.800   3.826
93475W        W94339  12.340  20.165   4.262
93476W        W94340  12.710  20.643   6.696
93477W        W94341  12.783  18.872   4.681
93478W        W94342  13.903  18.444   5.065
93479W        W94343  13.714  21.974   5.489
93480W        W94344  13.089  21.574   5.723
93481W        W94345  12.307  20.523   5.750
93482W        W94346  14.150  21.271   6.004
93483W        W94347  11.909  18.603   4.629
93484W        W94348  12.374  21.050   5.776
93485W        W94349  11.956  18.895   3.461
93486W        W94350  12.599  19.630   5.880
93487W        W94351  13.258  18.336   5.659
93488W        W94352  10.946  20.607   5.923
93489W        W94353  12.671  19.964   3.885
93490W        W94354  11.756  18.425   3.619
93491W        W94355  12.762  19.393   4.811
93492W        W94356  13.257  18.411   6.244
93493W        W94357  12.203  20.508   6.574
93494W        W94358  13.064  20.196   6.761
93495W        W94359  13.573  20.303   6.657
93496W        W94360  12.798  18.467   7.302
93497W        W94361  11.979  19.124   5.431
93498W        W94362  11.472  18.797   5.193
93499W        W94363  11.139  21.673   4.804
93500W        W94364  12.788  21.162   6.798
93501W        W94365  12.140  20.674   4.159
93502W        W94366  13.364  20.103   5.378
93503W        W94367  13.738  19.982   5.735
93504W        W94368  12.815  20.386   5.780
93505W        W94369  13.420  20.683   3.719
93506W        W94370  13.232  18.678   5.067
93507W        W94371  14.452  19.046   4.377
93508W        W94372  11.127  21.725   6.693
93509W        W94373  11.164  21.009   6.183
93510W        W94374  10.799  21.681   4.362
93511W        W94375  12.429  18.749   6.052
93512W        W94376  12.032  21.156   4.003
93513W        W94377  13.771  21.336   3.949
93514W        W94378  13.182  19.955   4.034
93515W        W94379  12.333  19.122   4.685
93516W        W94380  13.061  19.027   3.784
93517W        W94381  13.231  20.682   6.826
93518W        W94382  13.737  18.678   4.354
93519W        W94383  10.861  18.368   3.906
93520W        W94384  12.134  20.862   6.197
93521W        W94385  12.088  20.786   5.368
93522W        W94386  11.949  20.902   3.533
93523W        W94387  11.161  21.295   4.457
93524W        W94388  11.722  19.882   6.825
93525W        W94389  12.339  18.541   7.060
93526W        W94390  12.733  18.407   6.294
93527W        W94391  12.329  18.345   4.818
93528W        W94392  13.152  18.267   4.303
93529W        W94393  11.116  18.369   5.828
93530W        W94394  11.137  19.234   5.361
93531W        W94395  14.091  18.485   5.598
93532W        W94396  11.087  18.750   4.160
93533W        W94397  13.696  18.419   5.935
93534W        W94398  14.184  19.689   3.610
93535W        W94399  11.570  18.475   5.606
93536W        W94400  12.650  19.217   6.205
93537W        W94401  10.597  18.832   3.972
93538W        W94402  11.644  20.326   6.522
93539W        W94403  12.995  19.893   5.669
93540W        W94404  12.864  21.805   3.990
93541W        W94405  10.940  19.861   3.316
93542W        W94406  11.794  20.855   6.588
93543W        W94407  11.324  19.910   6.487
93544W        W94408  12.389  20.112   6.067
93545W        W94409  13.987  18.387   6.519
93546W        W94410  14.561  20.096   6.462
93547W        W94411  14.399  20.332   4.140
93548W        W94412  13.235  20.479   4.166
93549W        W94413  13.738  21.826   3.687
93550W        W94414  13.058  19.908   7.199
93551W        W94415  11.485  20.883   7.036
93552W        W94416  14.716  18.782   7.126
93553W        W94417  14.124  19.732   5.459
93554W        W94418  12.608  21.710   7.102
93555W        W94419  12.525  18.372   3.940
93556W        W94420  13.915  20.888   3.720
93557W        W94421  11.751  19.066   6.647
93558W        W94422  12.275  21.040   6.672
93559W        W94423  14.282  18.905   6.426
93560W        W94424  13.791  21.780   4.198
93561W        W94425  13.688  20.488   5.612
93562W        W94426  11.990  18.722   6.340
93563W        W94427  12.619  19.774   6.959
93564W        W94428  11.788  21.033   4.462
93565W        W94429  13.580  20.575   4.556
93566W        W94430  11.312  19.069   6.381
93567W        W94431  12.752  21.151   4.997
93568W        W94432  14.544  19.722   5.096
93569W        W94433  12.731  18.324   6.809
93570W        W94434  13.693  21.176   5.786
93571W        W94435  14.037  21.516   5.546
93572W        W94436  12.848  21.316   3.732
93573W        W94437  10.986  21.071   6.911
93574W        W94438  11.756  19.140   6.116
93575W        W94439  11.794  18.391   5.135
93576W        W94440  13.211  19.426   5.593
93577W        W94441  12.535  20.468   3.868
93578W        W94442  14.213  20.333   5.635
93579W        W94443  11.414  21.264   6.654
93580W        W94444  13.962  21.886   4.679
93581W        W94445  12.147  18.780   5.064
93582W        W94446  11.679  20.495   5.646
93583W        W94447  12.243  21.858   5.880
93584W        W94448  14.408  21.848   6.818
93585W        W94449  13.302  20.240   5.875
93586W        W94450  11.166  19.489   3.642
93587W        W94451  14.310  21.507   4.845
93588W        W94452  14.068  18.930   4.044
93589W        W94453  12.280  18.335   6.540
93590W        W94454  14.138  21.125   5.186
93591W        W94455  14.036  19.741   4.949
93592W        W94456  12.462  19.170   5.203
93593W        W94457  12.493  19.685   6.376
93594W        W94458  13.525  20.774   6.424
93595W        W94459  12.185  19.216   6.404
93596W        W94460  12.008  21.668   5.186
93597W        W94461  11.601  21.634   6.988
93598W        W94462  11.715  21.369   3.532
93599W        W94463  14.237  21.017   4.690
93600W        W94464  11.798  19.558   6.420
93601W        W94465  14.394  19.216   3.706
93602W        W94466  12.575  20.645   4.440
93603W        W94467  13.348  19.967   6.337
93604W        W94468  13.062  19.544   6.091
93605W        W94469  11.674  19.956   6.105
93606W        W94470  14.045  21.940   5.910
93607W        W94471  11.376  18.586   6.617
93608W        W94472  11.713  19.502   5.747
93609W        W94473  12.299  19.298   3.636
93610W        W94474  10.882  21.320   6.460
93611W        W94475  12.504  20.034   5.576
93612W        W94476  12.578  18.857   3.711
93613W        W94477  11.867  20.362   5.169
93614W        W94478  11.174  22.013   6.238
93615W        W94479  14.001  20.039   4.280
93616W        W94480  14.245  18.742   6.924
93617W        W94481  13.740  20.989   4.820
93618W        W94482  11.067  19.776   6.910
93619W        W94483  14.171  18.448   4.147
93620W        W94484  13.848  20.918   4.271
93621W        W94485  12.805  19.693   4.316
93622W        W94486  13.785  18.569   3.813
93623W        W94487  13.778  19.450   5.736
93624W        W94488  11.090  20.007   5.283
93625W        W94489  11.791  20.832   4.940
93626W        W94490  13.642  19.421   4.835
93627W        W94491  12.387  18.804   5.547
93628W        W94492  14.446  20.847   6.026
93629W        W94493  14.518  18.941   5.793
93630W        W94494  10.962  21.747   5.283
93631W        W94495  11.295  20.841   4.706
93632W        W94496  11.320  18.540   7.223
93633W        W94497  12.371  21.243   7.141
93634W        W94498  14.369  20.207   5.162
93635W        W94499  13.743  20.432   4.060
93636W        W94500  13.106  21.892   6.118
93637W        W94501  13.845  20.538   7.030
93638W        W94502  12.639  18.210   4.410
93639W        W94503  13.472  19.141   5.247
93640W        W94504  10.886  20.926   5.528
93641W        W94505  12.387  18.669   4.406
93642W        W94506  12.206  20.107   6.938
93643W        W94507  13.217  19.139   4.789
93644W        W94508  13.380  20.754   5.938
93645W        W94509  11.289  21.519   6.203
93646W        W94510  11.881  21.199   6.981
93647W        W94511  12.121  18.679   3.925
93648W        W94512  13.476  19.139   4.325
93649W        W94513  13.320  21.212   6.644
93650W        W94514  12.458  19.869   5.099
93651W        W94515  11.771  21.695   6.079
93652W        W94516  14.196  21.630   3.802
93653W        W94517  11.195  20.292   6.830
93654W        W94518  13.177  20.583   5.466
93655W        W94519  12.086  20.497   4.650
93656W        W94520  12.173  21.382   6.141
93657W        W94521  12.654  18.657   5.122
93658W        W94522  10.790  20.864   4.573
93659W        W94523  12.775  19.444   3.875
93660W        W94524  11.363  20.424   5.014
93661W        W94525  12.486  18.809   6.555
93662W        W94526  14.248  18.451   3.604
93663W        W94527  14.321  20.342   6.860
93664W        W94528  13.099  21.563   6.976
93665W        W94529  14.569  20.631   6.498
93666W        W94530  14.046  21.276   7.179
93667W        W94531  11.734  21.903   5.608
93668W        W94532  14.528  20.610   4.841
93669W        W94533  13.176  19.555   5.088
93670W        W94534  12.935  18.345   4.808
93671W        W94535  12.031  21.298   4.838
93672W        W94536  12.235  19.200   5.878
93673W        W94537  12.283  18.352   5.340
93674W        W94538  11.108  21.488   3.972
93675W        W94539  12.787  20.624   4.950
93676W        W94540  11.898  21.468   6.552
93677W        W94541  10.921  20.347   4.737
93678W        W94542  11.048  18.755   5.519
93679W        W94543  12.655  20.761   5.426
93680W        W94544  10.683  18.512   4.400
93681W        W94545  13.781  19.744   6.191
93682W        W94546  13.607  19.070   3.822
93683W        W94547  14.072  20.841   5.621
93684W        W94548  12.757  21.251   5.510
93685W        W94549  12.104  21.577   4.409
93686W        W94550  13.392  18.254   3.685
93687W        W94551  11.226  21.776   5.733
93688W        W94552  13.023  19.413   7.017
93689W        W94553  11.313  18.999   6.928
93690W        W94554  10.697  19.489   4.629
93691W        W94555  12.337  19.622   4.086
93692W        W94556  13.421  19.827   6.846
93693W        W94557  12.002  20.069   5.694
93694W        W94558  13.520  18.346   4.721
93695W        W94559  12.484  21.680   5.456
93696W        W94560  13.740  21.243   6.322
93697W        W94561  13.498  21.509   5.418
93698W        W94562  13.533  20.483   5.070
93699W        W94563  12.845  18.706   4.166
93700W        W94564  14.383  18.336   4.912
93701W        W94565  11.998  19.803   3.412
93702W        W94566  14.306  19.220   4.857
93703W        W94567  13.001  20.315   3.713
93704W        W94568  13.997  20.604   6.554
93705W        W94569  13.312  21.553   3.780
93706W        W94570  12.196  19.043   6.930
93707W        W94571  12.109  19.674   6.033
93708W        W94572  14.238  21.056   6.468
93709W        W94573  13.006  18.712   6.601
93710W        W94574  10.943  19.463   6.503
93711W        W94575  12.872  20.020   6.157
93712W        W94576  11.358  20.900   5.215
93713W        W94577  11.282  20.179   5.857
93714W        W94578  13.718  20.326   6.157
93715W        W94579  13.608  21.535   6.934
93716W        W94580  13.069  19.215   6.511
93717W        W94581  13.813  21.489   5.013
93718W        W94582  12.582  21.114   6.272
93719W        W94583  12.049  21.452   5.654
93720W        W94584  13.910  20.808   6.092
93721W        W94585  12.857  20.776   7.171
93722W        W94586  11.354  20.908   5.722
93723W        W94587  14.037  20.616   5.053
93724W        W94588  13.570  21.680   5.919
93725W        W94589  11.552  21.385   5.750
93726W        W94590  12.604  19.305   6.713
93727W        W94591  12.723  21.398   4.519
93728W        W94592  12.341  20.705   7.074
93729W        W94593  12.310  21.094   4.442
93730W        W94594  11.758  19.346   3.285
93731W        W94595  11.056  21.972  10.694
93732W        W94596  11.437  20.825  10.208
93733W        W94597  14.124  20.134   7.965
93734W        W94598  14.253  21.613   9.992
93735W        W94599  11.974  21.506   7.432
93736W        W94600  12.363  19.953   8.664
93737W        W94601  11.863  19.532   8.860
93738W        W94602  12.887  20.309   7.982
93739W        W94603  12.436  21.527  10.385
93740W        W94604  11.038  19.052  10.207
93741W        W94605  11.770  18.230  10.101
93742W        W94606  13.596  18.688   9.001
93743W        W94607  13.667  19.437   7.763
93744W        W94608  13.765  19.136  10.582
93745W        W94609  11.163  18.645   9.921
93746W        W94610  11.201  21.526  10.925
93747W        W94611  12.516  20.908   7.545
93748W        W94612  10.980  19.364   9.306
93749W        W94613  12.231  19.609  10.491
93750W        W94614  14.511  19.261   9.084
93751W        W94615  14.204  20.306   9.809
93752W        W94616  12.762  19.775   8.933
93753W        W94617  13.227  21.051   9.252
93754W        W94618  11.563  20.531   9.731
93755W        W94619  10.792  19.849   9.230
93756W        W94620  12.152  19.851  10.069
93757W        W94621  14.257  19.713  10.478
93758W        W94622  11.774  21.361   9.099
93759W        W94623  12.960  20.981  10.116
93760W        W94624  12.637  19.439   9.296
93761W        W94625  12.551  20.272   9.074
93762W        W94626  13.393  21.254  10.798
93763W        W94627  12.718  20.258  10.800
93764W        W94628  12.557  20.139  10.294
93765W        W94629  10.668  19.141  10.565
93766W        W94630  13.768  21.041  10.522
93767W        W94631  11.439  18.461   8.453
93768W        W94632  11.940  21.220   9.636
93769W        W94633  14.329  20.709   8.914
93770W        W94634  14.134  19.006   9.343
93771W        W94635  14.367  19.087   7.337
93772W        W94636  14.672  19.790   9.739
93773W        W94637  12.561  21.782   9.523
93774W        W94638  14.374  20.748   8.049
93775W        W94639  11.400  21.996   7.939
93776W        W94640  11.925  21.955   8.374
93777W        W94641  11.677  18.571   9.727
93778W        W94642  14.197  19.664   9.966
93779W        W94643  13.649  19.809   8.441
93780W        W94644  13.543  19.807   7.385
93781W        W94645  12.853  20.996   9.574
93782W        W94646  12.856  19.150   8.821
93783W        W94647  13.270  21.210   9.788
93784W        W94648  14.170  19.977   8.463
93785W        W94649  13.296  18.699   8.130
93786W        W94650  11.687  21.436   7.879
93787W        W94651  11.084  18.835   8.509
93788W        W94652  13.606  19.620   8.949
93789W        W94653  11.251  21.316   9.106
93790W        W94654  12.445  21.395   7.649
93791W        W94655  13.953  19.482   7.206
93792W        W94656  10.970  21.386   9.551
93793W        W94657  12.015  21.071  10.130
93794W        W94658  12.082  20.357   8.889
93795W        W94659  12.104  18.706   9.460
93796W        W94660  14.582  18.377   9.230
93797W        W94661  11.858  20.509   6.967
93798W        W94662  11.280  19.000   7.460
93799W        W94663  11.464  21.281   8.653
93800W        W94664  12.368  20.792   8.886
93801W        W94665  13.868  21.511  10.309
93802W        W94666  13.241  19.167   7.864
93803W        W94667  14.165  21.707   9.009
93804W        W94668  13.784  19.554  10.261
93805W        W94669  14.477  20.990   8.505
93806W        W94670  13.200  20.478  10.100
93807W        W94671  10.498  20.453   8.498
93808W        W94672  12.061  20.720   9.724
93809W        W94673  13.231  19.641   8.141
93810W        W94674  13.295  20.148   8.296
93811W        W94675  11.449  19.585   9.521
93812W        W94676  11.306  19.441   9.978
93813W        W94677  11.367  18.352   8.951
93814W        W94678  13.139  18.856   9.141
93815W        W94679  12.804  18.830  10.333
93816W        W94680  13.381  18.737   7.586
93817W        W94681  14.367  21.501  10.506
93818W        W94682  13.216  18.544  10.362
93819W        W94683  14.168  20.773  10.751
93820W        W94684  13.755  19.013  10.070
93821W        W94685  13.689  18.835   8.480
93822W        W94686  13.814  20.117  10.869
93823W        W94687  11.578  21.765   8.830
93824W        W94688  12.743  19.047   7.929
93825W        W94689  11.850  18.673  10.347
93826W        W94690  14.064  19.140   8.222
93827W        W94691  14.454  19.523   8.232
93828W        W94692  12.066  21.739  10.738
93829W        W94693  11.905  18.313   7.853
93830W        W94694  14.388  18.768   8.955
93831W        W94695  14.501  21.038   7.361
93832W        W94696  11.182  20.592   9.380
93833W        W94697  13.211  18.699   7.091
93834W        W94698  14.466  21.188   9.170
93835W        W94699  14.381  18.482   9.706
93836W        W94700  13.108  19.577  10.334
93837W        W94701  12.527  20.749   8.147
93838W        W94702  13.194  20.424  10.828
93839W        W94703  13.155  18.335   9.000
93840W        W94704  11.481  19.241   9.130
93841W        W94705  11.128  20.430   9.997
93842W        W94706  13.130  21.493   8.912
93843W        W94707  14.384  19.394   9.570
93844W        W94708  13.057  21.703  10.239
93845W        W94709  14.285  20.116   7.319
93846W        W94710  12.820  20.027   8.419
93847W        W94711  14.489  18.421  10.227
93848W        W94712  12.760  20.580   9.858
93849W        W94713  13.143  19.390   9.173
93850W        W94714  13.987  19.641   8.108
93851W        W94715  14.212  19.335   7.762
93852W        W94716  14.116  21.223   8.218
93853W        W94717  13.797  20.795   9.008
93854W        W94718  13.628  19.946   7.924
93855W        W94719  13.017  20.224   8.839
93856W        W94720  14.137  19.897   8.968
93857W        W94721  11.257  19.017   9.571
93858W        W94722  13.937  20.051  10.248
93859W        W94723  14.428  21.624   9.465
93860W        W94724  12.256  21.285   8.946
93861W        W94725  13.503  21.694   9.951
93862W        W94726  13.345  18.988   9.702
93863W        W94727  12.614  21.908  10.013
93864W        W94728  14.263  18.660   8.331
93865W        W94729  14.208  19.881   9.496
93866W        W94730  10.820  19.232   9.773
93867W        W94731  13.941  19.054   8.871
93868W        W94732  14.187  19.235  10.290
93869W        W94733  13.219  20.986   8.754
93870W        W94734  12.435  21.582   8.543
93871W        W94735  11.467  18.582   7.714
93872W        W94736  12.770  18.525   9.326
93873W        W94737  11.508  21.773   7.484
93874W        W94738  12.558  20.439   8.584
93875W        W94739  12.808  20.582  10.405
93876W        W94740  12.806  18.670   8.290
93877W        W94741  14.002  18.490   8.753
93878W        W94742  13.674  21.805   9.110
93879W        W94743  12.969  21.483   9.409
93880W        W94744  12.487  20.683   9.402
93881W        W94745  14.276  21.201   9.713
93882W        W94746  11.919  18.629   8.290
93883W        W94747  12.431  21.278   9.444
93884W        W94748  11.736  18.908   7.217
93885W        W94749  13.020  19.598   9.651
93886W        W94750  13.328  18.486   9.475
93887W        W94751  10.915  20.210   9.580
93888W        W94752  12.640  19.899   7.483
93889W        W94753  11.910  18.437   7.330
93890W        W94754  12.753  19.529   8.469
93891W        W94755  13.517  18.525   9.957
93892W        W94756  12.341  20.585  10.148
93893W        W94757  13.053  20.102  10.431
93894W        W94758  13.530  20.309  10.448
93895W        W94759  12.963  18.584  10.804
93896W        W94760  11.998  19.084   9.098
93897W        W94761  11.561  18.904   8.719
93898W        W94762  11.509  21.661   8.317
93899W        W94763  12.914  21.246  10.568
93900W        W94764  11.631  20.570   8.176
93901W        W94765  13.516  20.120   8.817
93902W        W94766  13.744  20.021   9.269
93903W        W94767  12.938  20.395   9.408
93904W        W94768  13.629  20.734   7.450
93905W        W94769  13.197  18.723   8.642
93906W        W94770  14.564  19.047   8.107
93907W        W94771  11.235  21.796  10.246
93908W        W94772  11.197  20.931   9.763
93909W        W94773  11.011  21.852   8.243
93910W        W94774  12.854  19.032   9.518
93911W        W94775  12.153  21.081   7.934
93912W        W94776  14.531  21.206   7.878
93913W        W94777  13.160  19.947   7.715
93914W        W94778  12.535  19.075   8.411
93915W        W94779  12.948  18.988   7.450
93916W        W94780  13.266  20.828  10.521
93917W        W94781  13.796  18.476   8.137
93918W        W94782  11.057  18.174   7.629
93919W        W94783  12.456  21.018   9.885
93920W        W94784  12.037  20.901   9.249
93921W        W94785  12.011  20.985   7.428
93922W        W94786  10.930  21.185   8.187
93923W        W94787  11.680  19.752  10.272
93924W        W94788  12.470  18.506  10.629
93925W        W94789  13.004  18.649   9.879
93926W        W94790  12.364  18.384   8.492
93927W        W94791  13.401  18.282   7.821
93928W        W94792  11.262  18.487   9.443
93929W        W94793  11.032  19.272   8.810
93930W        W94794  14.080  18.501   9.275
93931W        W94795  11.458  18.871   8.142
93932W        W94796  13.797  18.755   9.613
93933W        W94797  14.439  19.615   7.323
93934W        W94798  11.632  18.739   9.204
93935W        W94799  12.915  19.213   9.988
93936W        W94800  10.941  18.660   7.613
93937W        W94801  11.947  20.304   9.989
93938W        W94802  13.201  19.908   9.191
93939W        W94803  12.847  21.731   7.573
93940W        W94804  10.737  20.011   7.218
93941W        W94805  11.901  20.650  10.406
93942W        W94806  11.364  19.964   9.911
93943W        W94807  12.427  20.191   9.787
93944W        W94808  14.022  18.551  10.058
93945W        W94809  14.487  20.052  10.172
93946W        W94810  14.493  19.814   7.803
93947W        W94811  13.411  20.400   7.830
93948W        W94812  13.993  21.817   7.142
93949W        W94813  13.122  19.929  10.931
93950W        W94814  11.594  20.944  10.696
93951W        W94815  14.614  18.808  10.811
93952W        W94816  14.015  19.477   9.212
93953W        W94817  12.558  21.639  10.886
93954W        W94818  12.382  18.324   7.616
93955W        W94819  14.166  20.622   7.416
93956W        W94820  11.864  19.228  10.344
93957W        W94821  12.492  21.010  10.404
93958W        W94822  14.248  18.967   9.851
93959W        W94823  14.146  21.559   7.791
93960W        W94824  13.756  20.496   9.460
93961W        W94825  12.030  18.910   9.935
93962W        W94826  12.718  19.769  10.636
93963W        W94827  11.764  21.068   8.277
93964W        W94828  13.785  20.293   8.304
93965W        W94829  11.533  18.985  10.027
93966W        W94830  12.733  20.986   8.572
93967W        W94831  14.503  19.638   8.722
93968W        W94832  12.763  18.323  10.256
93969W        W94833  13.669  20.994   9.480
93970W        W94834  13.990  21.348   9.320
93971W        W94835  12.848  21.273   7.321
93972W        W94836  11.080  21.036  10.601
93973W        W94837  11.751  19.085   9.554
93974W        W94838  11.848  18.476   8.795
93975W        W94839  13.610  19.132   9.273
93976W        W94840  12.519  20.398   7.571
93977W        W94841  14.197  20.335   9.260
93978W        W94842  11.436  21.376  10.466
93979W        W94843  14.121  21.897   8.305
93980W        W94844  12.216  18.828   8.714
93981W        W94845  11.675  20.505   9.207
93982W        W94846  12.173  22.037   9.792
93983W        W94847  14.050  21.897  10.593
93984W        W94848  13.362  20.163   9.604
93985W        W94849  11.311  19.444   7.218
93986W        W94850  14.383  21.514   8.566
93987W        W94851  14.212  18.814   7.825
93988W        W94852  12.281  18.483  10.135
93989W        W94853  14.093  21.173   8.820
93990W        W94854  14.007  19.500   8.624
93991W        W94855  12.381  19.382   8.850
93992W        W94856  12.671  19.692  10.062
93993W        W94857  13.542  20.866  10.076
93994W        W94858  12.313  19.333  10.042
93995W        W94859  12.094  21.773   8.932
93996W        W94860  11.566  21.834  10.664
93997W        W94861  11.522  21.271   7.377
93998W        W94862  14.025  20.740   8.457
93999W        W94863  11.841  19.462   9.876
94000W        W94864  14.720  19.335   7.661
94001W        W94865  12.084  20.625   8.442
94002W        W94866  13.399  19.944  10.090
94003W        W94867  13.512  19.602   9.462
94004W        W94868  11.836  19.935   9.653
94005W        W94869  13.922  21.761   9.620
94006W        W94870  13.700  18.651  10.432
94007W        W94871  11.330  18.386  10.338
94008W        W94872  11.930  19.523   9.362
94009W        W94873  12.562  19.309   7.226
94010W        W94874  11.066  21.322  10.066
94011W        W94875  12.720  19.940   9.427
94012W        W94876  12.457  18.835   7.491
94013W        W94877  11.781  19.983   9.124
94014W        W94878  11.214  21.850   9.741
94015W        W94879  14.017  19.786   7.605
94016W        W94880  14.185  18.757  10.534
94017W        W94881  13.673  21.099   8.523
94018W        W94882  11.165  19.902  10.389
94019W        W94883  14.314  18.296   7.870
94020W        W94884  13.904  20.597   7.891
94021W        W94885  12.758  19.758   7.979
94022W        W94886  13.853  18.513   7.627
94023W        W94887  13.884  19.334   9.699
94024W        W94888  11.286  19.738   9.060
94025W        W94889  11.855  20.957   8.777
94026W        W94890  13.587  19.312   8.298
94027W        W94891  12.498  18.946   9.150
94028W        W94892  14.526  20.782   9.819
94029W        W94893  14.613  18.872   9.453
94030W        W94894  11.088  21.668   8.738
94031W        W94895  11.289  20.856   8.432
94032W        W94896  11.677  18.411  10.751
94033W        W94897  12.453  21.137  10.946
94034W        W94898  14.554  20.208   8.907
94035W        W94899  13.810  20.246   7.511
94036W        W94900  13.048  21.891   9.734
94037W        W94901  13.667  20.627  10.815
94038W        W94902  12.634  18.205   8.070
94039W        W94903  13.411  19.171   8.780
94040W        W94904  10.894  20.962   9.193
94041W        W94905  12.372  18.661   8.012
94042W        W94906  12.078  20.159  10.482
94043W        W94907  13.083  19.140   8.352
94044W        W94908  13.286  20.693   9.645
94045W        W94909  11.564  21.275   9.976
94046W        W94910  12.061  21.209  10.620
94047W        W94911  11.964  18.800   7.700
94048W        W94912  13.704  18.939   7.941
94049W        W94913  13.378  21.306  10.288
94050W        W94914  12.281  19.833   9.155
94051W        W94915  11.762  21.740   9.823
94052W        W94916  14.440  21.571   7.363
94053W        W94917  11.151  20.523  10.523
94054W        W94918  13.356  20.531   9.126
94055W        W94919  11.625  20.497   8.688
94056W        W94920  12.258  21.526   9.900
94057W        W94921  12.721  18.635   8.804
94058W        W94922  10.866  20.662   8.187
94059W        W94923  12.967  19.496   7.548
94060W        W94924  11.220  20.284   8.971
94061W        W94925  12.532  18.853   9.879
94062W        W94926  14.338  18.533   7.394
94063W        W94927  14.256  20.241  10.605
94064W        W94928  13.054  21.688  10.787
94065W        W94929  14.456  20.594  10.285
94066W        W94930  13.913  21.449  10.821
94067W        W94931  11.666  21.933   9.315
94068W        W94932  14.455  20.453   8.469
94069W        W94933  13.193  19.719   8.665
94070W        W94934  12.975  18.249   8.506
94071W        W94935  11.926  21.470   8.563
94072W        W94936  12.271  19.179   9.554
94073W        W94937  12.303  18.462   9.068
94074W        W94938  11.104  21.595   7.761
94075W        W94939  13.031  20.571   8.449
94076W        W94940  11.890  21.568  10.287
94077W        W94941  11.194  20.343   8.445
94078W        W94942  11.139  18.835   9.057
94079W        W94943  12.867  20.681   8.986
94080W        W94944  11.070  18.519   8.084
94081W        W94945  13.787  19.892   9.776
94082W        W94946  13.873  19.032   7.474
94083W        W94947  14.161  20.834   9.379
94084W        W94948  12.749  21.161   9.062
94085W        W94949  12.179  21.587   8.086
94086W        W94950  13.276  18.222   7.309
94087W        W94951  11.169  21.800   9.229
94088W        W94952  13.265  19.398  10.810
94089W        W94953  11.409  18.860  10.521
94090W        W94954  10.369  19.971   8.634
94091W        W94955  12.463  19.429   7.705
94092W        W94956  13.491  19.818  10.591
94093W        W94957  12.115  20.301   9.400
94094W        W94958  13.530  18.326   8.609
94095W        W94959  12.614  21.662   9.032
94096W        W94960  13.799  21.286   9.866
94097W        W94961  13.604  21.289   8.996
94098W        W94962  13.524  20.592   8.621
94099W        W94963  12.904  18.568   7.789
94100W        W94964  14.516  18.333   8.694
94101W        W94965  12.205  19.682   7.272
94102W        W94966  14.376  19.144   8.606
94103W        W94967  13.024  20.372   7.463
94104W        W94968  13.942  20.588  10.330
94105W        W94969  14.074  21.051   7.683
94106W        W94970  12.306  18.942  10.370
94107W        W94971  12.335  19.681   9.643
94108W        W94972  14.187  21.079  10.224
94109W        W94973  13.297  19.064  10.303
94110W        W94974  10.850  19.527  10.214
94111W        W94975  12.934  20.090   9.888
94112W        W94976  11.353  20.841   8.946
94113W        W94977  11.394  20.112   9.429
94114W        W94978  13.678  20.376   9.946
94115W        W94979  13.528  21.744  10.609
94116W        W94980  13.416  19.433   9.940
94117W        W94981  13.842  21.591   8.630
94118W        W94982  12.779  21.427   9.889
94119W        W94983  12.078  21.653   9.421
94120W        W94984  13.992  20.782   9.851
94121W        W94985  12.827  20.792  10.880
94122W        W94986  11.551  20.974   9.400
94123W        W94987  13.979  20.348   8.789
94124W        W94988  13.490  21.505   9.458
94125W        W94989  11.486  21.475   9.511
94126W        W94990  12.663  19.317  10.427
94127W        W94991  12.609  21.288   8.134
94128W        W94992  12.357  20.590  10.667
94129W        W94993  12.253  21.101   8.454
94130W        W94994  11.802  19.393   7.044
94131W        W94995  10.977  21.997  14.300
94132W        W94996  11.377  20.850  13.797
94133W        W94997  14.223  20.295  11.635
94134W        W94998  14.004  21.648  13.510
94135W        W94999  12.053  21.646  11.237
94136W        W95000  12.426  19.768  11.895
94137W        W95001  11.644  20.009  12.684
94138W        W95002  12.813  20.098  11.769
94139W        W95003  12.394  21.536  13.929
94140W        W95004  11.037  18.975  13.993
94141W        W95005  11.762  18.104  13.802
94142W        W95006  13.605  18.662  12.708
94143W        W95007  13.253  19.395  11.362
94144W        W95008  13.581  19.254  14.270
94145W        W95009  11.026  18.668  13.556
94146W        W95010  11.191  21.535  14.411
94147W        W95011  12.666  20.952  11.390
94148W        W95012  10.998  19.399  12.992
94149W        W95013  12.191  19.490  13.867
94150W        W95014  14.330  19.120  12.794
94151W        W95015  14.219  20.308  13.577
94152W        W95016  12.743  19.659  12.648
94153W        W95017  13.159  21.060  12.842
94154W        W95018  11.538  20.336  13.074
94155W        W95019  10.798  19.906  12.958
94156W        W95020  12.184  20.009  13.808
94157W        W95021  14.317  19.756  14.143
94158W        W95022  11.875  21.215  12.620
94159W        W95023  13.023  20.929  13.687
94160W        W95024  12.259  19.599  12.860
94161W        W95025  12.516  20.425  12.525
94162W        W95026  13.317  21.178  14.454
94163W        W95027  12.841  20.356  14.439
94164W        W95028  12.699  20.126  13.831
94165W        W95029  10.818  19.244  14.499
94166W        W95030  13.711  20.928  14.204
94167W        W95031  11.164  18.492  12.291
94168W        W95032  11.956  21.011  13.146
94169W        W95033  14.366  20.555  12.598
94170W        W95034  13.896  18.943  13.046
94171W        W95035  14.188  19.127  10.922
94172W        W95036  14.706  19.703  13.301
94173W        W95037  12.710  21.525  13.123
94174W        W95038  14.317  21.332  11.523
94175W        W95039  11.321  21.798  11.633
94176W        W95040  11.730  21.694  12.033
94177W        W95041  11.451  18.416  13.306
94178W        W95042  14.334  19.562  13.633
94179W        W95043  13.701  19.926  12.303
94180W        W95044  13.550  19.729  11.125
94181W        W95045  12.828  20.974  13.202
94182W        W95046  12.870  19.178  12.472
94183W        W95047  13.194  21.312  13.380
94184W        W95048  14.055  19.903  11.929
94185W        W95049  13.235  18.651  11.877
94186W        W95050  11.696  21.448  11.563
94187W        W95051  10.798  18.897  12.236
94188W        W95052  13.685  19.571  12.700
94189W        W95053  11.337  21.194  12.688
94190W        W95054  12.528  21.461  11.381
94191W        W95055  13.902  19.573  10.799
94192W        W95056  11.206  21.217  13.185
94193W        W95057  11.923  20.893  13.674
94194W        W95058  12.325  20.280  12.063
94195W        W95059  12.199  18.738  13.243
94196W        W95060  14.519  18.296  12.814
94197W        W95061  11.540  20.277  10.289
94198W        W95062  11.087  19.088  10.852
94199W        W95063  11.468  21.237  12.175
94200W        W95064  12.235  20.777  12.162
94201W        W95065  13.850  21.429  13.962
94202W        W95066  12.983  19.058  11.650
94203W        W95067  14.143  21.815  12.462
94204W        W95068  13.943  19.441  13.955
94205W        W95069  14.660  21.118  12.291
94206W        W95070  13.186  20.416  13.713
94207W        W95071  10.813  19.903  12.095
94208W        W95072  11.992  20.522  13.303
94209W        W95073  13.297  19.572  11.841
94210W        W95074  13.181  19.992  12.117
94211W        W95075  11.368  19.402  13.342
94212W        W95076  11.436  19.382  13.868
94213W        W95077  11.347  18.390  12.786
94214W        W95078  13.185  18.841  12.960
94215W        W95079  12.773  18.831  14.143
94216W        W95080  13.400  18.767  11.299
94217W        W95081  14.348  21.406  14.127
94218W        W95082  13.226  18.419  14.096
94219W        W95083  14.233  20.908  14.248
94220W        W95084  13.811  18.919  13.930
94221W        W95085  13.600  18.857  12.199
94222W        W95086  13.969  19.939  14.476
94223W        W95087  11.556  21.623  12.516
94224W        W95088  12.570  19.175  11.368
94225W        W95089  11.903  18.517  14.093
94226W        W95090  13.971  19.084  11.923
94227W        W95091  14.307  19.474  11.891
94228W        W95092  12.068  21.692  14.298
94229W        W95093  12.406  18.203  11.480
94230W        W95094  14.260  18.667  12.557
94231W        W95095  14.341  21.213  10.988
94232W        W95096  11.149  20.277  12.710
94233W        W95097  13.367  18.880  10.779
94234W        W95098  14.451  21.062  12.780
94235W        W95099  14.393  18.297  13.414
94236W        W95100  13.051  19.645  13.961
94237W        W95101  13.060  20.874  11.749
94238W        W95102  13.486  20.111  14.539
94239W        W95103  13.158  18.352  12.766
94240W        W95104  11.497  19.257  12.859
94241W        W95105  11.357  20.372  13.566
94242W        W95106  12.915  21.333  12.435
94243W        W95107  14.314  19.152  13.309
94244W        W95108  12.979  21.625  13.790
94245W        W95109  13.951  20.511  11.228
94246W        W95110  12.692  19.999  12.266
94247W        W95111  14.591  18.279  13.900
94248W        W95112  12.771  20.531  13.454
94249W        W95113  13.040  19.331  12.923
94250W        W95114  13.786  19.531  11.711
94251W        W95115  14.035  19.471  11.283
94252W        W95116  13.967  21.251  11.923
94253W        W95117  13.653  21.060  12.512
94254W        W95118  13.579  20.009  11.797
94255W        W95119  13.019  20.184  12.593
94256W        W95120  14.007  19.950  12.801
94257W        W95121  11.247  18.901  13.143
94258W        W95122  13.950  20.077  13.972
94259W        W95123  14.449  21.546  13.010
94260W        W95124  12.380  21.203  12.465
94261W        W95125  13.476  21.662  13.684
94262W        W95126  13.314  18.966  13.450
94263W        W95127  12.561  21.857  13.520
94264W        W95128  14.228  18.645  12.037
94265W        W95129  14.249  19.928  13.249
94266W        W95130  10.949  19.172  13.501
94267W        W95131  13.895  19.095  12.541
94268W        W95132  14.387  19.032  14.347
94269W        W95133  13.173  20.846  12.382
94270W        W95134  12.481  21.549  12.123
94271W        W95135  11.209  18.572  10.920
94272W        W95136  12.876  18.487  13.181
94273W        W95137  11.559  21.824  11.185
94274W        W95138  12.342  20.180  11.557
94275W        W95139  12.759  20.606  13.981
94276W        W95140  12.793  18.805  12.099
94277W        W95141  13.860  18.437  12.322
94278W        W95142  13.644  21.919  12.692
94279W        W95143  12.459  20.573  13.027
94280W        W95144  14.116  21.207  13.213
94281W        W95145  11.919  18.856  12.364
94282W        W95146  12.409  21.146  12.973
94283W        W95147  12.079  18.808  10.806
94284W        W95148  12.671  19.587  13.159
94285W        W95149  13.477  18.391  13.174
94286W        W95150  11.020  20.286  13.213
94287W        W95151  12.732  20.022  11.257
94288W        W95152  12.160  18.334  11.002
94289W        W95153  12.873  19.556  12.126
94290W        W95154  13.557  18.533  13.686
94291W        W95155  12.312  20.513  13.753
94292W        W95156  13.145  20.111  14.122
94293W        W95157  13.561  20.393  14.089
94294W        W95158  12.855  18.468  14.509
94295W        W95159  12.027  19.125  12.816
94296W        W95160  11.437  18.855  12.536
94297W        W95161  11.208  21.686  12.128
94298W        W95162  12.857  21.142  14.154
94299W        W95163  12.169  20.690  11.583
94300W        W95164  13.493  20.085  12.734
94301W        W95165  13.582  19.817  13.160
94302W        W95166  12.970  20.536  12.958
94303W        W95167  13.292  20.849  11.117
94304W        W95168  13.160  18.748  12.441
94305W        W95169  14.474  18.997  11.773
94306W        W95170  11.250  21.763  13.867
94307W        W95171  11.523  20.797  13.315
94308W        W95172  10.831  21.823  11.806
94309W        W95173  12.798  19.043  13.288
94310W        W95174  12.102  21.160  11.372
94311W        W95175  13.872  21.563  11.436
94312W        W95176  13.194  19.920  11.462
94313W        W95177  12.554  19.228  11.907
94314W        W95178  12.998  19.026  11.115
94315W        W95179  13.210  20.760  14.147
94316W        W95180  13.769  18.614  11.774
94317W        W95181  10.857  18.274  11.167
94318W        W95182  12.375  20.886  13.420
94319W        W95183  12.163  20.799  12.686
94320W        W95184  12.031  20.827  10.984
94321W        W95185  10.872  21.200  11.805
94322W        W95186  11.752  19.792  13.981
94323W        W95187  12.366  18.428  14.289
94324W        W95188  12.891  18.683  13.666
94325W        W95189  12.375  18.481  12.250
94326W        W95190  13.192  18.251  11.169
94327W        W95191  10.963  18.427  13.110
94328W        W95192  11.074  19.256  12.500
94329W        W95193  14.020  18.306  13.018
94330W        W95194  11.146  18.886  11.365
94331W        W95195  14.051  18.710  13.505
94332W        W95196  14.405  19.646  10.967
94333W        W95197  11.708  18.735  12.947
94334W        W95198  12.947  19.197  13.761
94335W        W95199  10.750  18.778  11.079
94336W        W95200  11.812  20.399  13.784
94337W        W95201  13.107  19.834  12.965
94338W        W95202  12.934  21.791  11.301
94339W        W95203  10.880  20.128  10.780
94340W        W95204  12.044  20.695  14.148
94341W        W95205  11.378  19.838  13.622
94342W        W95206  12.403  20.199  13.374
94343W        W95207  14.010  18.273  13.792
94344W        W95208  14.589  19.993  13.767
94345W        W95209  14.372  19.795  11.496
94346W        W95210  13.253  20.396  11.776
94347W        W95211  13.798  21.892  11.042
94348W        W95212  13.156  19.714  14.467
94349W        W95213  11.578  20.897  14.268
94350W        W95214  14.682  18.605  14.401
94351W        W95215  13.994  19.495  13.104
94352W        W95216  12.546  21.710  14.510
94353W        W95217  12.679  18.257  11.046
94354W        W95218  13.815  21.031  11.098
94355W        W95219  11.917  19.071  13.786
94356W        W95220  12.411  20.998  13.919
94357W        W95221  14.286  19.078  13.817
94358W        W95222  13.540  21.993  11.497
94359W        W95223  13.779  20.329  13.080
94360W        W95224  11.822  18.620  13.589
94361W        W95225  12.696  19.855  14.270
94362W        W95226  11.780  20.971  11.790
94363W        W95227  13.876  20.366  12.049
94364W        W95228  11.431  18.947  13.621
94365W        W95229  12.720  20.951  12.140
94366W        W95230  14.422  19.610  12.854
94367W        W95231  12.751  18.297  13.998
94368W        W95232  13.615  21.124  13.037
94369W        W95233  13.912  21.459  12.792
94370W        W95234  12.945  21.283  11.094
94371W        W95235  11.040  21.067  14.134
94372W        W95236  11.782  19.095  13.283
94373W        W95237  12.188  18.623  12.734
94374W        W95238  13.512  19.295  13.104
94375W        W95239  12.470  20.521  11.178
94376W        W95240  14.259  20.447  13.088
94377W        W95241  11.468  21.332  14.015
94378W        W95242  14.050  21.795  11.924
94379W        W95243  12.410  18.975  12.400
94380W        W95244  11.965  20.388  12.482
94381W        W95245  12.044  21.870  13.399
94382W        W95246  14.040  21.788  14.277
94383W        W95247  13.301  20.253  13.224
94384W        W95248  10.905  19.571  10.732
94385W        W95249  14.450  21.479  12.005
94386W        W95250  14.023  18.936  11.408
94387W        W95251  12.271  18.108  13.899
94388W        W95252  14.178  21.287  12.398
94389W        W95253  14.102  19.587  12.393
94390W        W95254  12.388  19.487  12.341
94391W        W95255  12.637  19.623  13.666
94392W        W95256  13.536  20.792  13.744
94393W        W95257  12.462  19.076  13.704
94394W        W95258  12.081  21.660  12.450
94395W        W95259  11.581  21.854  14.243
94396W        W95260  11.709  21.393  10.943
94397W        W95261  14.041  20.812  12.265
94398W        W95262  11.807  19.529  13.551
94399W        W95263  14.518  19.285  11.324
94400W        W95264  12.631  20.585  11.755
94401W        W95265  13.359  19.921  13.652
94402W        W95266  13.128  19.524  13.400
94403W        W95267  11.802  20.040  13.417
94404W        W95268  14.047  21.894  13.027
94405W        W95269  13.748  18.473  14.215
94406W        W95270  11.392  18.463  13.853
94407W        W95271  11.785  19.646  13.057
94408W        W95272  12.369  19.395  10.927
94409W        W95273  11.072  21.308  13.666
94410W        W95274  12.618  20.076  12.922
94411W        W95275  12.613  18.973  10.791
94412W        W95276  11.889  19.991  12.163
94413W        W95277  11.052  21.794  13.400
94414W        W95278  13.893  19.978  11.398
94415W        W95279  14.246  18.630  14.068
94416W        W95280  13.561  20.804  12.033
94417W        W95281  11.258  19.811  14.145
94418W        W95282  14.206  18.446  11.536
94419W        W95283  13.969  20.752  11.711
94420W        W95284  12.831  19.579  11.610
94421W        W95285  13.836  18.744  10.934
94422W        W95286  13.843  19.203  13.503
94423W        W95287  11.166  19.762  12.615
94424W        W95288  11.744  20.826  12.307
94425W        W95289  13.643  19.406  12.197
94426W        W95290  12.545  19.167  12.857
94427W        W95291  14.421  20.826  13.407
94428W        W95292  14.355  18.695  13.074
94429W        W95293  10.964  21.558  12.550
94430W        W95294  11.314  20.768  11.981
94431W        W95295  11.233  18.514  14.341
94432W        W95296  12.397  21.259  14.371
94433W        W95297  14.242  20.091  12.371
94434W        W95298  13.475  20.290  11.244
94435W        W95299  13.082  21.828  13.312
94436W        W95300  13.954  20.451  14.407
94437W        W95301  12.760  18.325  11.849
94438W        W95302  13.395  19.160  12.597
94439W        W95303  11.142  20.738  12.975
94440W        W95304  12.494  18.748  11.693
94441W        W95305  12.382  20.278  14.211
94442W        W95306  13.199  19.147  12.101
94443W        W95307  13.317  20.773  13.282
94444W        W95308  11.604  21.266  13.525
94445W        W95309  11.971  21.210  14.084
94446W        W95310  12.463  18.700  11.181
94447W        W95311  13.513  19.084  11.693
94448W        W95312  13.343  21.246  13.945
94449W        W95313  12.264  19.970  12.518
94450W        W95314  11.546  21.760  13.373
94451W        W95315  14.302  21.707  11.128
94452W        W95316  11.369  20.352  14.075
94453W        W95317  13.464  20.635  12.792
94454W        W95318  11.853  20.474  11.950
94455W        W95319  12.150  21.358  13.482
94456W        W95320  12.717  18.683  12.719
94457W        W95321  10.822  20.664  11.769
94458W        W95322  12.834  19.532  11.089
94459W        W95323  11.481  20.325  12.286
94460W        W95324  12.349  18.585  13.755
94461W        W95325  14.251  18.469  11.019
94462W        W95326  14.382  20.291  14.148
94463W        W95327  13.016  21.622  14.309
94464W        W95328  14.646  20.527  13.763
94465W        W95329  13.939  21.309  14.461
94466W        W95330  11.727  21.903  12.906
94467W        W95331  14.397  20.486  12.085
94468W        W95332  13.232  19.642  12.486
94469W        W95333  12.860  18.347  12.347
94470W        W95334  12.007  21.270  12.124
94471W        W95335  12.266  19.255  13.276
94472W        W95336  12.419  18.280  13.038
94473W        W95337  10.933  21.517  11.387
94474W        W95338  12.907  20.458  12.165
94475W        W95339  11.847  21.624  13.820
94476W        W95340  11.223  20.273  11.810
94477W        W95341  10.975  18.788  12.727
94478W        W95342  12.718  20.873  12.661
94479W        W95343  10.783  18.561  11.605
94480W        W95344  13.859  19.766  13.574
94481W        W95345  13.651  19.193  11.102
94482W        W95346  13.987  20.826  12.846
94483W        W95347  12.163  21.596  11.734
94484W        W95348  13.501  18.368  10.793
94485W        W95349  11.251  21.681  12.937
94486W        W95350  13.080  19.237  14.284
94487W        W95351  11.538  18.897  14.123
94488W        W95352  10.687  19.381  12.086
94489W        W95353  12.383  19.668  11.376
94490W        W95354  13.561  19.770  14.133
94491W        W95355  12.076  20.121  12.974
94492W        W95356  13.374  18.308  12.289
94493W        W95357  12.570  21.664  12.629
94494W        W95358  13.689  21.223  13.523
94495W        W95359  13.382  21.482  12.665
94496W        W95360  13.421  20.392  12.314
94497W        W95361  12.910  18.600  11.416
94498W        W95362  14.552  18.302  12.276
94499W        W95363  12.327  19.941  10.920
94500W        W95364  14.334  19.139  12.280
94501W        W95365  12.970  20.480  11.333
94502W        W95366  13.995  20.607  13.906
94503W        W95367  13.406  21.567  11.191
94504W        W95368  12.256  18.920  14.148
94505W        W95369  12.221  19.743  13.359
94506W        W95370  14.138  21.077  13.747
94507W        W95371  13.301  18.902  13.956
94508W        W95372  10.923  19.499  13.902
94509W        W95373  12.889  20.004  13.388
94510W        W95374  11.264  20.738  12.486
94511W        W95375  11.310  19.865  13.104
94512W        W95376  13.691  20.310  13.584
94513W        W95377  13.531  21.631  14.293
94514W        W95378  13.452  19.381  13.780
94515W        W95379  13.735  21.558  12.292
94516W        W95380  12.668  21.288  13.574
94517W        W95381  12.160  21.593  12.969
94518W        W95382  13.898  20.751  13.371
94519W        W95383  12.965  20.824  14.611
94520W        W95384  11.657  20.764  12.811
94521W        W95385  13.875  20.400  12.566
94522W        W95386  13.596  21.651  13.174
94523W        W95387  11.669  21.407  13.032
94524W        W95388  12.604  19.348  14.130
94525W        W95389  12.840  21.372  11.793
94526W        W95390  12.498  20.756  14.389
94527W        W95391  12.382  21.124  11.798
94528W        W95392  11.334  19.385  10.480
94529W        W95393  10.994  21.935  17.934
94530W        W95394  11.454  20.772  17.552
94531W        W95395  14.097  20.082  15.408
94532W        W95396  14.323  21.512  17.377
94533W        W95397  12.000  21.617  14.809
94534W        W95398  12.328  19.845  15.902
94535W        W95399  11.924  19.652  16.214
94536W        W95400  12.980  20.479  15.436
94537W        W95401  12.478  21.499  17.703
94538W        W95402  10.946  19.000  17.593
94539W        W95403  11.947  18.127  17.485
94540W        W95404  13.570  18.657  16.348
94541W        W95405  13.191  19.327  14.853
94542W        W95406  13.627  19.176  17.865
94543W        W95407  11.156  18.713  17.213
94544W        W95408  11.193  21.414  18.074
94545W        W95409  12.461  21.012  14.823
94546W        W95410  11.049  19.440  16.664
94547W        W95411  12.139  19.512  17.821
94548W        W95412  14.249  19.291  16.421
94549W        W95413  14.271  20.298  17.180
94550W        W95414  12.677  19.788  16.280
94551W        W95415  13.231  21.166  16.582
94552W        W95416  11.530  20.348  16.862
94553W        W95417  10.743  19.990  16.687
94554W        W95418  12.023  19.967  17.547
94555W        W95419  14.396  19.753  17.869
94556W        W95420  11.835  21.051  16.255
94557W        W95421  12.970  20.920  17.316
94558W        W95422  12.297  19.573  16.584
94559W        W95423  12.691  20.288  16.386
94560W        W95424  13.283  21.165  18.051
94561W        W95425  12.738  20.346  18.138
94562W        W95426  12.662  20.169  17.616
94563W        W95427  10.621  19.313  17.928
94564W        W95428  13.725  20.991  17.832
94565W        W95429  11.400  18.514  15.704
94566W        W95430  11.922  20.677  16.831
94567W        W95431  14.274  20.647  16.192
94568W        W95432  13.827  19.032  16.618
94569W        W95433  13.919  18.900  14.427
94570W        W95434  14.705  19.668  17.069
94571W        W95435  12.504  21.456  16.709
94572W        W95436  14.420  21.067  15.289
94573W        W95437  11.353  21.808  15.294
94574W        W95438  11.739  21.803  15.680
94575W        W95439  11.641  18.630  17.002
94576W        W95440  14.215  19.778  17.189
94577W        W95441  13.580  19.958  16.110
94578W        W95442  13.621  19.600  14.650
94579W        W95443  12.748  20.957  16.831
94580W        W95444  12.845  19.092  16.092
94581W        W95445  13.155  21.319  17.060
94582W        W95446  14.129  20.165  15.967
94583W        W95447  13.213  18.621  15.456
94584W        W95448  11.619  21.382  15.407
94585W        W95449  11.035  18.895  15.739
94586W        W95450  13.730  19.463  16.291
94587W        W95451  11.330  21.142  16.366
94588W        W95452  12.459  21.484  15.017
94589W        W95453  14.047  19.415  14.445
94590W        W95454  11.115  21.219  16.876
94591W        W95455  11.840  20.933  17.268
94592W        W95456  12.387  20.369  15.986
94593W        W95457  12.085  18.757  16.767
94594W        W95458  14.549  18.414  16.475
94595W        W95459  11.870  20.209  14.254
94596W        W95460  11.172  18.910  14.664
94597W        W95461  11.489  21.122  15.853
94598W        W95462  12.180  20.872  15.918
94599W        W95463  13.900  21.469  17.748
94600W        W95464  12.955  19.043  15.234
94601W        W95465  14.051  21.697  16.136
94602W        W95466  13.805  19.684  17.716
94603W        W95467  14.623  21.044  15.927
94604W        W95468  13.152  20.416  17.356
94605W        W95469  10.727  19.833  15.807
94606W        W95470  11.861  20.409  17.259
94607W        W95471  13.240  19.525  15.378
94608W        W95472  13.261  19.969  15.700
94609W        W95473  11.397  19.483  17.050
94610W        W95474  11.351  19.336  17.636
94611W        W95475  11.431  18.397  16.221
94612W        W95476  13.067  18.836  16.480
94613W        W95477  12.830  18.807  17.770
94614W        W95478  13.261  18.734  14.939
94615W        W95479  14.404  21.368  17.875
94616W        W95480  13.289  18.337  17.719
94617W        W95481  14.201  20.884  17.978
94618W        W95482  13.829  18.872  17.506
94619W        W95483  13.597  18.796  15.770
94620W        W95484  13.992  19.950  18.119
94621W        W95485  11.605  21.546  16.147
94622W        W95486  12.505  19.116  14.996
94623W        W95487  11.899  18.562  17.763
94624W        W95488  13.847  19.229  15.599
94625W        W95489  14.198  19.573  15.406
94626W        W95490  12.071  21.827  17.780
94627W        W95491  11.822  18.286  15.178
94628W        W95492  14.342  18.816  16.219
94629W        W95493  14.388  21.111  14.705
94630W        W95494  11.127  20.265  16.426
94631W        W95495  13.367  18.808  14.445
94632W        W95496  14.455  21.041  16.476
94633W        W95497  14.348  18.436  17.015
94634W        W95498  12.957  19.691  17.634
94635W        W95499  12.761  20.951  15.229
94636W        W95500  13.253  20.471  18.247
94637W        W95501  13.175  18.325  16.387
94638W        W95502  11.521  19.311  16.451
94639W        W95503  11.349  20.314  17.347
94640W        W95504  13.142  21.500  16.119
94641W        W95505  14.318  19.315  16.977
94642W        W95506  12.982  21.600  17.487
94643W        W95507  14.175  20.263  14.872
94644W        W95508  12.761  20.092  15.768
94645W        W95509  14.525  18.456  17.534
94646W        W95510  12.667  20.531  17.227
94647W        W95511  12.813  19.364  16.541
94648W        W95512  13.775  19.449  15.118
94649W        W95513  14.148  19.148  14.867
94650W        W95514  13.992  21.282  15.537
94651W        W95515  13.502  20.771  16.448
94652W        W95516  13.679  19.796  15.466
94653W        W95517  13.082  20.065  16.161
94654W        W95518  14.004  19.886  16.380
94655W        W95519  11.307  19.018  16.829
94656W        W95520  14.113  20.088  17.616
94657W        W95521  14.485  21.564  16.751
94658W        W95522  12.312  21.284  16.191
94659W        W95523  13.531  21.606  17.314
94660W        W95524  13.318  18.799  16.934
94661W        W95525  12.609  21.850  17.129
94662W        W95526  14.135  18.788  15.718
94663W        W95527  13.931  20.054  16.850
94664W        W95528  10.917  19.214  17.125
94665W        W95529  13.889  19.015  16.113
94666W        W95530  14.008  19.340  17.390
94667W        W95531  13.197  20.980  16.079
94668W        W95532  12.424  21.581  15.774
94669W        W95533  11.484  18.519  14.826
94670W        W95534  12.851  18.459  16.784
94671W        W95535  11.486  21.792  14.778
94672W        W95536  12.499  20.268  15.351
94673W        W95537  12.802  20.644  17.712
94674W        W95538  12.767  18.726  15.693
94675W        W95539  13.957  18.463  16.064
94676W        W95540  13.542  21.798  16.284
94677W        W95541  12.992  21.616  16.622
94678W        W95542  12.416  20.512  16.754
94679W        W95543  14.288  21.156  16.979
94680W        W95544  11.893  18.666  15.544
94681W        W95545  12.233  21.013  16.617
94682W        W95546  11.888  18.862  14.506
94683W        W95547  12.680  19.543  17.011
94684W        W95548  13.569  18.368  16.790
94685W        W95549  11.031  20.335  16.944
94686W        W95550  12.803  19.954  14.782
94687W        W95551  11.964  18.375  14.658
94688W        W95552  12.926  19.584  15.838
94689W        W95553  13.527  18.504  17.297
94690W        W95554  12.257  20.533  17.553
94691W        W95555  13.121  20.190  17.835
94692W        W95556  13.638  20.187  17.816
94693W        W95557  12.867  18.451  18.220
94694W        W95558  12.041  19.143  16.407
94695W        W95559  11.488  18.924  16.024
94696W        W95560  11.246  21.638  15.789
94697W        W95561  12.873  21.162  17.756
94698W        W95562  12.262  20.732  15.201
94699W        W95563  13.338  20.290  16.527
94700W        W95564  13.522  19.805  16.618
94701W        W95565  12.925  20.353  16.837
94702W        W95566  13.471  20.633  14.568
94703W        W95567  13.162  18.684  16.002
94704W        W95568  14.335  19.068  15.358
94705W        W95569  11.182  21.579  17.574
94706W        W95570  11.356  20.789  17.047
94707W        W95571  10.851  21.748  15.355
94708W        W95572  12.842  18.999  16.906
94709W        W95573  12.020  21.182  15.079
94710W        W95574  14.006  21.313  15.006
94711W        W95575  13.281  19.826  14.957
94712W        W95576  12.632  19.214  15.612
94713W        W95577  12.877  18.959  14.660
94714W        W95578  13.308  20.696  17.783
94715W        W95579  13.768  18.650  15.314
94716W        W95580  10.922  18.472  14.803
94717W        W95581  12.318  20.877  17.111
94718W        W95582  12.057  20.546  16.348
94719W        W95583  12.008  20.997  14.574
94720W        W95584  11.081  21.289  15.463
94721W        W95585  11.646  19.777  17.829
94722W        W95586  12.363  18.448  18.020
94723W        W95587  12.980  18.589  17.312
94724W        W95588  12.305  18.447  15.771
94725W        W95589  13.449  18.282  15.114
94726W        W95590  11.244  18.455  16.737
94727W        W95591  11.080  19.261  16.141
94728W        W95592  14.044  18.469  16.576
94729W        W95593  11.103  18.794  15.183
94730W        W95594  13.900  18.716  17.011
94731W        W95595  14.544  19.466  14.561
94732W        W95596  11.638  18.814  16.509
94733W        W95597  12.950  19.241  17.346
94734W        W95598  10.689  18.923  14.893
94735W        W95599  11.725  20.357  17.749
94736W        W95600  13.014  19.873  16.662
94737W        W95601  12.856  21.798  14.920
94738W        W95602  10.903  20.012  14.494
94739W        W95603  11.947  20.892  17.790
94740W        W95604  11.299  19.807  17.451
94741W        W95605  12.338  20.159  17.206
94742W        W95606  14.016  18.393  17.417
94743W        W95607  14.604  19.999  17.454
94744W        W95608  14.520  19.944  15.143
94745W        W95609  13.417  20.214  15.278
94746W        W95610  13.781  21.718  14.736
94747W        W95611  13.042  19.954  18.288
94748W        W95612  11.520  20.764  18.059
94749W        W95613  14.679  18.756  18.081
94750W        W95614  13.917  19.524  16.766
94751W        W95615  12.406  21.737  18.182
94752W        W95616  12.327  18.346  15.030
94753W        W95617  13.926  20.859  14.721
94754W        W95618  11.852  19.093  17.691
94755W        W95619  12.417  21.012  17.589
94756W        W95620  14.307  18.888  17.282
94757W        W95621  13.692  21.639  15.268
94758W        W95622  13.685  20.506  16.842
94759W        W95623  12.033  18.801  17.292
94760W        W95624  12.594  19.796  17.986
94761W        W95625  11.861  20.935  15.518
94762W        W95626  13.710  20.270  15.699
94763W        W95627  11.552  19.041  17.282
94764W        W95628  12.698  21.125  15.869
94765W        W95629  14.410  19.706  16.135
94766W        W95630  12.776  18.291  17.730
94767W        W95631  13.649  21.080  16.880
94768W        W95632  14.049  21.380  16.551
94769W        W95633  12.846  21.321  14.685
94770W        W95634  11.083  20.944  17.868
94771W        W95635  11.827  19.206  16.887
94772W        W95636  11.916  18.625  16.108
94773W        W95637  13.346  19.270  16.660
94774W        W95638  12.658  20.524  14.915
94775W        W95639  14.228  20.453  16.689
94776W        W95640  11.564  21.251  17.747
94777W        W95641  14.066  21.801  15.606
94778W        W95642  12.355  18.901  15.984
94779W        W95643  11.673  20.132  16.427
94780W        W95644  12.174  21.846  16.774
94781W        W95645  14.200  21.834  17.930
94782W        W95646  13.361  20.107  16.994
94783W        W95647  11.300  19.311  14.347
94784W        W95648  14.439  21.453  15.706
94785W        W95649  14.210  18.662  15.057
94786W        W95650  12.348  18.445  17.504
94787W        W95651  14.133  21.181  16.071
94788W        W95652  13.967  19.682  15.872
94789W        W95653  12.422  19.381  16.126
94790W        W95654  12.475  19.723  17.459
94791W        W95655  13.553  20.747  17.323
94792W        W95656  12.232  19.274  17.378
94793W        W95657  12.094  21.765  16.127
94794W        W95658  11.535  21.774  17.925
94795W        W95659  11.680  21.390  14.481
94796W        W95660  14.201  20.818  15.694
94797W        W95661  11.780  19.512  17.398
94798W        W95662  14.579  19.410  15.071
94799W        W95663  12.551  20.697  15.625
94800W        W95664  13.359  19.941  17.469
94801W        W95665  13.213  19.596  17.048
94802W        W95666  11.679  19.941  17.141
94803W        W95667  13.953  21.563  17.021
94804W        W95668  13.769  18.531  17.934
94805W        W95669  11.466  18.361  17.478
94806W        W95670  11.773  19.694  16.702
94807W        W95671  12.269  19.252  14.533
94808W        W95672  11.064  21.084  17.384
94809W        W95673  12.533  19.987  16.779
94810W        W95674  12.391  18.742  14.672
94811W        W95675  11.913  20.157  15.980
94812W        W95676  11.208  21.761  17.087
94813W        W95677  14.172  19.677  14.876
94814W        W95678  14.231  18.786  17.815
94815W        W95679  13.795  20.790  16.028
94816W        W95680  11.140  19.687  17.951
94817W        W95681  13.965  18.209  15.072
94818W        W95682  13.855  20.494  15.210
94819W        W95683  12.940  19.990  15.292
94820W        W95684  13.746  18.589  14.794
94821W        W95685  13.627  19.184  17.091
94822W        W95686  11.327  19.762  16.273
94823W        W95687  11.715  20.644  15.952
94824W        W95688  13.472  19.504  15.840
94825W        W95689  12.523  18.929  16.484
94826W        W95690  14.558  20.735  17.140
94827W        W95691  14.401  18.869  16.740
94828W        W95692  10.957  21.602  16.227
94829W        W95693  11.142  20.790  15.600
94830W        W95694  11.480  18.421  18.028
94831W        W95695  12.531  21.231  18.147
94832W        W95696  14.517  20.195  16.315
94833W        W95697  13.770  19.979  14.983
94834W        W95698  13.150  21.839  17.052
94835W        W95699  13.770  20.555  18.132
94836W        W95700  12.671  18.291  15.426
94837W        W95701  13.382  19.109  16.166
94838W        W95702  11.076  20.744  16.598
94839W        W95703  12.386  18.756  15.358
94840W        W95704  12.277  20.212  17.945
94841W        W95705  13.163  19.108  15.695
94842W        W95706  13.238  20.753  16.912
94843W        W95707  11.491  21.301  17.227
94844W        W95708  12.040  21.374  18.008
94845W        W95709  11.991  18.753  15.014
94846W        W95710  13.468  19.066  15.283
94847W        W95711  13.348  21.183  17.534
94848W        W95712  12.227  20.049  16.370
94849W        W95713  11.708  21.661  16.928
94850W        W95714  14.288  21.610  14.696
94851W        W95715  11.180  20.397  17.831
94852W        W95716  12.999  20.696  16.458
94853W        W95717  12.072  20.468  15.600
94854W        W95718  12.099  21.335  17.006
94855W        W95719  12.701  18.557  16.180
94856W        W95720  10.722  20.086  14.992
94857W        W95721  12.736  19.456  14.621
94858W        W95722  11.395  20.219  15.989
94859W        W95723  12.557  18.884  17.312
94860W        W95724  14.206  18.494  14.576
94861W        W95725  14.248  20.379  18.029
94862W        W95726  12.895  21.612  18.016
94863W        W95727  14.513  20.505  17.597
94864W        W95728  13.938  21.251  18.245
94865W        W95729  11.730  21.928  16.480
94866W        W95730  14.528  20.431  15.802
94867W        W95731  13.202  19.582  16.272
94868W        W95732  12.960  18.229  15.870
94869W        W95733  11.961  21.348  15.816
94870W        W95734  12.347  19.173  16.898
94871W        W95735  12.386  18.404  16.557
94872W        W95736  11.083  21.474  14.959
94873W        W95737  12.890  20.550  15.974
94874W        W95738  12.020  21.356  17.503
94875W        W95739  11.001  20.059  15.430
94876W        W95740  11.134  18.809  16.377
94877W        W95741  12.526  20.772  16.278
94878W        W95742  10.940  18.416  15.489
94879W        W95743  13.704  19.724  17.179
94880W        W95744  13.632  19.092  14.788
94881W        W95745  13.980  20.874  16.550
94882W        W95746  12.786  21.198  16.366
94883W        W95747  12.104  21.616  15.368
94884W        W95748  13.356  18.323  14.600
94885W        W95749  11.324  21.606  16.590
94886W        W95750  13.107  19.237  17.865
94887W        W95751  11.417  18.828  17.729
94888W        W95752  11.039  19.442  15.645
94889W        W95753  12.793  19.528  15.130
94890W        W95754  13.358  19.690  17.976
94891W        W95755  12.017  20.160  16.814
94892W        W95756  13.479  18.297  15.935
94893W        W95757  12.626  21.688  16.243
94894W        W95758  13.841  21.177  17.341
94895W        W95759  13.634  21.261  16.271
94896W        W95760  13.389  20.463  16.047
94897W        W95761  12.762  18.618  15.028
94898W        W95762  14.466  18.405  15.925
94899W        W95763  12.186  19.765  14.294
94900W        W95764  14.275  19.263  15.886
94901W        W95765  13.141  20.341  14.866
94902W        W95766  13.974  20.587  17.617
94903W        W95767  13.317  21.504  14.862
94904W        W95768  12.314  18.895  17.763
94905W        W95769  12.147  19.690  17.063
94906W        W95770  14.288  20.998  17.493
94907W        W95771  13.318  18.920  17.510
94908W        W95772  10.867  19.520  17.531
94909W        W95773  12.881  19.984  17.192
94910W        W95774  11.223  20.701  16.099
94911W        W95775  11.296  19.906  16.765
94912W        W95776  13.746  20.255  17.297
94913W        W95777  13.409  21.613  17.827
94914W        W95778  13.410  19.434  17.493
94915W        W95779  13.652  21.567  15.828
94916W        W95780  12.623  21.315  17.212
94917W        W95781  11.962  21.461  16.522
94918W        W95782  14.030  20.743  17.114
94919W        W95783  12.893  20.845  18.184
94920W        W95784  11.566  20.663  16.466
94921W        W95785  13.831  20.373  16.352
94922W        W95786  13.514  21.574  16.751
94923W        W95787  11.659  21.123  16.769
94924W        W95788  12.619  19.307  17.727
94925W        W95789  12.788  21.450  15.427
94926W        W95790  12.405  20.734  18.017
94927W        W95791  12.341  21.161  15.486
94928W        W95792  11.840  19.326  14.225
94929W        W95793  10.980  21.944  21.678
94930W        W95794  11.439  20.748  21.187
94931W        W95795  13.945  20.420  19.046
94932W        W95796  14.279  21.550  20.940
94933W        W95797  11.985  21.504  18.503
94934W        W95798  12.224  19.808  19.724
94935W        W95799  11.892  19.487  19.972
94936W        W95800  12.707  20.318  19.051
94937W        W95801  12.464  21.567  21.275
94938W        W95802  10.985  18.928  21.180
94939W        W95803  11.706  18.101  21.177
94940W        W95804  13.592  18.667  19.971
94941W        W95805  13.385  19.641  18.599
94942W        W95806  13.785  18.970  21.600
94943W        W95807  11.157  18.629  20.791
94944W        W95808  11.176  21.459  21.724
94945W        W95809  12.588  20.964  18.604
94946W        W95810  10.900  19.456  20.331
94947W        W95811  12.345  19.548  21.306
94948W        W95812  14.414  19.136  20.050
94949W        W95813  14.129  20.278  20.784
94950W        W95814  12.711  19.725  19.857
94951W        W95815  13.159  20.980  20.151
94952W        W95816  11.585  20.378  20.429
94953W        W95817  10.708  19.929  20.335
94954W        W95818  12.147  20.027  21.080
94955W        W95819  14.276  19.715  21.443
94956W        W95820  11.781  21.170  19.825
94957W        W95821  12.964  20.933  21.034
94958W        W95822  12.422  19.336  20.394
94959W        W95823  12.524  20.199  20.034
94960W        W95824  13.327  21.275  21.726
94961W        W95825  12.711  20.371  21.830
94962W        W95826  12.647  20.162  21.111
94963W        W95827  10.531  19.141  21.444
94964W        W95828  13.721  21.009  21.384
94965W        W95829  11.473  18.386  19.269
94966W        W95830  11.934  20.767  20.516
94967W        W95831  14.316  20.605  19.759
94968W        W95832  13.961  18.971  20.279
94969W        W95833  13.816  18.956  18.287
94970W        W95834  14.637  19.651  20.687
94971W        W95835  12.498  21.414  20.477
94972W        W95836  14.232  20.820  19.263
94973W        W95837  11.300  21.763  18.942
94974W        W95838  11.688  21.698  19.283
94975W        W95839  11.653  18.533  20.901
94976W        W95840  14.130  19.542  20.973
94977W        W95841  13.549  19.834  19.451
94978W        W95842  13.549  20.058  18.338
94979W        W95843  12.823  20.993  20.540
94980W        W95844  12.792  19.036  19.692
94981W        W95845  13.233  21.235  20.722
94982W        W95846  14.018  19.981  19.303
94983W        W95847  13.265  18.723  19.069
94984W        W95848  11.620  21.362  18.879
94985W        W95849  11.106  18.825  19.377
94986W        W95850  13.606  19.543  19.873
94987W        W95851  11.280  21.205  19.954
94988W        W95852  12.466  21.450  18.643
94989W        W95853  13.770  19.502  18.238
94990W        W95854  11.115  21.193  20.464
94991W        W95855  11.830  21.021  20.962
94992W        W95856  12.113  20.304  19.742
94993W        W95857  11.913  18.595  20.478
94994W        W95858  14.530  18.378  20.119
94995W        W95859  11.956  20.529  18.179
94996W        W95860  11.465  18.865  18.265
94997W        W95861  11.425  21.204  19.439
94998W        W95862  12.464  20.672  19.460
94999W        W95863  13.879  21.510  21.272
95000W        W95864  13.111  19.174  18.769
95001W        W95865  14.202  21.748  19.920
95002W        W95866  13.752  19.645  21.348
95003W        W95867  14.605  21.003  19.606
95004W        W95868  13.159  20.452  21.035
95005W        W95869  10.448  20.075  19.535
95006W        W95870  11.767  20.449  20.897
95007W        W95871  13.241  19.600  19.098
95008W        W95872  13.081  20.036  19.313
95009W        W95873  11.460  19.454  20.753
95010W        W95874  11.512  19.407  21.281
95011W        W95875  11.376  18.372  19.783
95012W        W95876  13.063  18.802  20.104
95013W        W95877  12.874  18.825  21.509
95014W        W95878  13.283  18.733  18.517
95015W        W95879  14.363  21.445  21.480
95016W        W95880  13.298  18.495  21.489
95017W        W95881  14.167  20.913  21.609
95018W        W95882  13.760  19.180  21.104
95019W        W95883  13.645  18.801  19.456
95020W        W95884  13.986  19.962  21.764
95021W        W95885  11.517  21.644  19.781
95022W        W95886  12.606  19.174  18.670
95023W        W95887  11.826  18.556  21.407
95024W        W95888  13.956  19.107  19.165
95025W        W95889  14.256  19.526  19.064
95026W        W95890  12.042  21.699  21.543
95027W        W95891  11.921  18.273  18.824
95028W        W95892  14.232  18.712  19.855
95029W        W95893  14.462  21.139  18.331
95030W        W95894  11.362  20.305  19.972
95031W        W95895  13.308  18.770  18.010
95032W        W95896  14.404  21.254  20.016
95033W        W95897  14.404  18.326  20.656
95034W        W95898  13.154  19.738  21.539
95035W        W95899  12.835  20.836  19.073
95036W        W95900  13.325  20.512  21.838
95037W        W95901  13.172  18.325  19.946
95038W        W95902  11.420  19.387  20.232
95039W        W95903  11.226  20.356  20.875
95040W        W95904  12.883  21.520  19.827
95041W        W95905  14.303  19.307  20.523
95042W        W95906  13.039  21.726  21.139
95043W        W95907  14.023  20.302  18.521
95044W        W95908  12.590  20.129  19.525
95045W        W95909  14.522  18.372  21.168
95046W        W95910  12.752  20.547  20.782
95047W        W95911  12.888  19.305  20.132
95048W        W95912  13.747  19.565  19.026
95049W        W95913  14.008  19.294  18.663
95050W        W95914  13.961  21.251  19.223
95051W        W95915  13.652  20.920  19.948
95052W        W95916  13.588  20.050  18.980
95053W        W95917  13.020  20.140  19.839
95054W        W95918  14.026  19.935  19.864
95055W        W95919  11.477  18.930  20.476
95056W        W95920  13.922  20.109  21.251
95057W        W95921  14.401  21.596  20.397
95058W        W95922  12.286  21.163  19.685
95059W        W95923  13.516  21.677  20.917
95060W        W95924  13.329  19.098  20.775
95061W        W95925  12.606  21.858  20.827
95062W        W95926  14.187  18.681  19.332
95063W        W95927  14.166  19.824  20.536
95064W        W95928  11.047  19.126  20.694
95065W        W95929  13.870  19.103  19.794
95066W        W95930  14.190  19.219  21.394
95067W        W95931  13.254  20.857  19.647
95068W        W95932  12.505  21.574  19.466
95069W        W95933  11.509  18.490  18.607
95070W        W95934  12.762  18.425  20.311
95071W        W95935  11.453  21.697  18.441
95072W        W95936  12.172  20.301  19.238
95073W        W95937  12.727  20.612  21.351
95074W        W95938  12.766  18.676  19.273
95075W        W95939  13.904  18.388  19.648
95076W        W95940  13.713  21.799  20.062
95077W        W95941  12.986  21.430  20.317
95078W        W95942  12.481  20.654  20.376
95079W        W95943  14.199  21.169  20.582
95080W        W95944  11.947  18.619  19.214
95081W        W95945  12.146  21.127  20.205
95082W        W95946  11.979  18.896  18.160
95083W        W95947  12.864  19.410  20.652
95084W        W95948  13.596  18.319  20.483
95085W        W95949  11.063  20.290  20.379
95086W        W95950  12.640  20.085  18.582
95087W        W95951  11.927  18.397  18.305
95088W        W95952  12.749  19.627  19.313
95089W        W95953  13.704  18.655  21.182
95090W        W95954  12.276  20.520  20.945
95091W        W95955  13.061  20.244  21.474
95092W        W95956  13.562  20.494  21.345
95093W        W95957  12.986  18.487  21.897
95094W        W95958  12.046  19.038  20.213
95095W        W95959  11.588  18.809  19.549
95096W        W95960  11.156  21.629  19.414
95097W        W95961  12.872  21.274  21.440
95098W        W95962  11.904  20.662  18.685
95099W        W95963  13.525  20.052  19.932
95100W        W95964  13.699  19.776  20.321
95101W        W95965  12.907  20.323  20.336
95102W        W95966  13.554  20.922  18.413
95103W        W95967  13.169  18.684  19.586
95104W        W95968  14.453  19.015  19.047
95105W        W95969  11.154  21.668  21.228
95106W        W95970  11.422  20.827  20.694
95107W        W95971  10.808  21.717  19.044
95108W        W95972  12.873  18.892  20.584
95109W        W95973  12.080  21.125  18.835
95110W        W95974  14.198  21.245  18.761
95111W        W95975  13.127  20.084  18.775
95112W        W95976  12.558  19.137  19.211
95113W        W95977  12.884  18.960  18.274
95114W        W95978  13.214  20.841  21.457
95115W        W95979  13.768  18.559  19.031
95116W        W95980  11.071  18.327  18.422
95117W        W95981  12.343  20.997  20.738
95118W        W95982  12.287  20.726  19.932
95119W        W95983  12.113  20.998  18.345
95120W        W95984  10.992  21.239  19.115
95121W        W95985  11.817  19.810  21.394
95122W        W95986  12.345  18.513  21.453
95123W        W95987  13.136  18.593  20.998
95124W        W95988  12.385  18.337  19.387
95125W        W95989  13.258  18.294  18.785
95126W        W95990  11.367  18.443  20.361
95127W        W95991  11.061  19.343  19.834
95128W        W95992  14.034  18.415  20.232
95129W        W95993  11.503  18.824  19.004
95130W        W95994  13.962  18.649  20.691
95131W        W95995  14.283  19.556  18.325
95132W        W95996  11.681  18.714  20.045
95133W        W95997  12.887  19.118  21.067
95134W        W95998  10.985  18.827  18.503
95135W        W95999  11.656  20.293  21.368
95136W        W96000  13.190  19.731  20.142
95137W        W96001  12.831  21.792  18.545
95138W        W96002  10.915  20.123  18.201
95139W        W96003  11.984  20.694  21.322
95140W        W96004  11.562  19.942  20.948
95141W        W96005  12.455  20.175  20.590
95142W        W96006  14.020  18.279  21.039
95143W        W96007  14.481  19.974  21.055
95144W        W96008  14.312  20.049  18.890
95145W        W96009  13.248  20.490  19.066
95146W        W96010  13.778  21.735  18.198
95147W        W96011  13.119  20.044  21.944
95148W        W96012  11.606  20.900  21.643
95149W        W96013  14.649  18.772  21.715
95150W        W96014  14.057  19.485  20.112
95151W        W96015  12.487  21.792  21.784
95152W        W96016  12.397  18.243  18.534
95153W        W96017  14.077  20.807  18.478
95154W        W96018  11.916  19.072  21.243
95155W        W96019  12.451  21.033  21.235
95156W        W96020  14.245  19.002  20.934
95157W        W96021  13.833  21.615  18.761
95158W        W96022  13.747  20.490  20.363
95159W        W96023  12.127  18.687  21.000
95160W        W96024  12.674  19.902  21.557
95161W        W96025  11.645  20.861  19.112
95162W        W96026  11.463  18.993  20.992
95163W        W96027  12.785  21.062  19.571
95164W        W96028  14.451  19.587  19.775
95165W        W96029  12.821  18.345  21.378
95166W        W96030  13.603  20.999  20.439
95167W        W96031  13.917  21.335  20.167
95168W        W96032  12.953  21.303  18.446
95169W        W96033  11.073  20.970  21.485
95170W        W96034  11.910  19.063  20.723
95171W        W96035  11.913  18.430  19.690
95172W        W96036  13.407  19.272  20.282
95173W        W96037  12.378  20.515  18.478
95174W        W96038  14.246  20.310  20.219
95175W        W96039  11.476  21.272  21.307
95176W        W96040  14.039  21.755  19.257
95177W        W96041  12.304  18.803  19.637
95178W        W96042  11.766  20.673  20.011
95179W        W96043  12.210  21.840  20.485
95180W        W96044  14.146  21.910  21.553
95181W        W96045  13.372  20.142  20.445
95182W        W96046  11.099  19.166  18.062
95183W        W96047  14.358  21.436  19.507
95184W        W96048  14.111  18.797  18.735
95185W        W96049  12.198  18.190  21.048
95186W        W96050  14.073  21.047  19.699
95187W        W96051  13.993  19.530  19.525
95188W        W96052  12.385  19.317  19.876
95189W        W96053  12.825  19.667  21.105
95190W        W96054  13.480  20.849  20.966
95191W        W96055  12.388  19.202  20.900
95192W        W96056  12.023  21.614  19.661
95193W        W96057  11.526  21.816  21.543
95194W        W96058  11.624  21.218  18.285
95195W        W96059  11.939  19.533  20.980
95196W        W96060  14.319  19.048  18.304
95197W        W96061  12.343  20.695  18.963
95198W        W96062  13.359  19.985  21.128
95199W        W96063  13.318  19.645  20.650
95200W        W96064  11.952  20.015  20.617
95201W        W96065  13.937  21.754  20.572
95202W        W96066  13.779  18.463  21.681
95203W        W96067  11.298  18.484  21.279
95204W        W96068  11.904  19.510  20.475
95205W        W96069  12.419  19.199  18.175
95206W        W96070  11.058  21.111  20.981
95207W        W96071  12.737  19.810  20.360
95208W        W96072  12.418  18.747  18.427
95209W        W96073  11.791  20.006  20.027
95210W        W96074  11.173  21.786  20.722
95211W        W96075  13.924  19.815  18.624
95212W        W96076  14.199  18.703  21.414
95213W        W96077  13.744  20.749  19.428
95214W        W96078  11.297  19.864  21.385
95215W        W96079  14.195  18.274  18.702
95216W        W96080  13.795  20.888  18.899
95217W        W96081  12.857  19.638  18.764
95218W        W96082  13.741  18.517  18.529
95219W        W96083  13.794  19.364  20.616
95220W        W96084  11.138  19.834  20.061
95221W        W96085  11.961  20.772  19.526
95222W        W96086  13.547  19.306  19.405
95223W        W96087  12.552  18.888  20.117
95224W        W96088  14.421  20.681  20.572
95225W        W96089  14.431  18.794  20.447
95226W        W96090  10.996  21.625  19.891
95227W        W96091  11.093  20.742  19.232
95228W        W96092  11.658  18.691  21.964
95229W        W96093  12.410  21.287  21.706
95230W        W96094  14.508  20.127  19.794
95231W        W96095  13.563  20.466  18.662
95232W        W96096  13.095  21.813  20.634
95233W        W96097  13.923  20.462  21.706
95234W        W96098  12.746  18.239  18.979
95235W        W96099  13.318  19.115  19.804
95236W        W96100  10.843  20.695  19.993
95237W        W96101  12.365  18.583  18.926
95238W        W96102  12.309  20.299  21.482
95239W        W96103  13.076  19.146  19.292
95240W        W96104  13.237  20.650  20.559
95241W        W96105  11.474  21.366  20.787
95242W        W96106  11.991  21.194  21.430
95243W        W96107  11.942  18.771  18.676
95244W        W96108  13.606  19.015  18.796
95245W        W96109  13.336  21.291  21.209
95246W        W96110  12.242  19.815  20.238
95247W        W96111  11.708  21.792  20.600
95248W        W96112  14.259  21.629  18.404
95249W        W96113  11.148  20.385  21.409
95250W        W96114  13.325  20.509  20.048
95251W        W96115  11.648  20.366  19.545
95252W        W96116  11.999  21.371  20.628
95253W        W96117  12.712  18.522  19.788
95254W        W96118  10.574  20.599  18.792
95255W        W96119  12.899  19.466  18.276
95256W        W96120  11.126  20.299  19.520
95257W        W96121  12.628  18.682  21.022
95258W        W96122  14.239  18.539  18.276
95259W        W96123  14.363  20.248  21.489
95260W        W96124  12.974  21.751  21.649
95261W        W96125  14.536  20.507  21.042
95262W        W96126  13.915  21.366  21.757
95263W        W96127  11.639  22.037  20.147
95264W        W96128  14.398  20.348  19.323
95265W        W96129  13.146  19.574  19.634
95266W        W96130  12.957  18.218  19.460
95267W        W96131  11.930  21.241  19.318
95268W        W96132  12.367  18.807  20.572
95269W        W96133  12.278  18.434  20.063
95270W        W96134  11.040  21.421  18.628
95271W        W96135  12.937  20.507  19.471
95272W        W96136  11.850  21.559  21.086
95273W        W96137  10.773  20.221  19.145
95274W        W96138  11.193  18.839  19.931
95275W        W96139  12.808  20.640  19.940
95276W        W96140  11.083  18.511  18.936
95277W        W96141  13.751  19.854  20.834
95278W        W96142  13.357  19.205  18.316
95279W        W96143  14.104  20.834  20.189
95280W        W96144  12.644  21.108  20.072
95281W        W96145  12.164  21.604  19.047
95282W        W96146  13.380  18.281  18.248
95283W        W96147  11.349  21.616  20.272
95284W        W96148  13.457  19.354  21.650
95285W        W96149  11.462  18.922  21.504
95286W        W96150  10.799  19.718  19.371
95287W        W96151  12.434  19.630  18.451
95288W        W96152  13.528  20.073  21.615
95289W        W96153  12.088  20.350  20.260
95290W        W96154  13.471  18.301  19.373
95291W        W96155  12.394  21.561  20.003
95292W        W96156  13.770  21.258  20.841
95293W        W96157  13.398  21.383  19.933
95294W        W96158  13.423  20.359  19.540
95295W        W96159  12.835  18.696  18.743
95296W        W96160  14.477  18.305  19.565
95297W        W96161  12.026  19.844  18.191
95298W        W96162  14.320  19.140  19.541
95299W        W96163  12.902  20.542  18.623
95300W        W96164  14.051  20.596  21.215
95301W        W96165  13.458  21.434  18.450
95302W        W96166  12.425  19.024  21.371
95303W        W96167  12.403  19.700  20.767
95304W        W96168  14.168  21.087  21.123
95305W        W96169  13.324  18.983  21.307
95306W        W96170  11.037  19.507  21.072
95307W        W96171  12.981  20.031  20.758
95308W        W96172  11.345  20.758  19.698
95309W        W96173  11.501  19.866  20.427
95310W        W96174  13.627  20.358  20.852
95311W        W96175  13.454  21.719  21.469
95312W        W96176  13.305  19.465  21.136
95313W        W96177  13.836  21.498  19.664
95314W        W96178  12.759  21.368  20.906
95315W        W96179  11.882  21.575  20.157
95316W        W96180  13.943  20.767  20.750
95317W        W96181  12.843  20.891  21.815
95318W        W96182  11.291  20.757  20.216
95319W        W96183  13.844  20.451  19.863
95320W        W96184  13.497  21.524  20.421
95321W        W96185  11.629  21.149  20.331
95322W        W96186  12.838  19.344  21.517
95323W        W96187  12.854  21.420  18.984
95324W        W96188  12.362  20.774  21.684
95325W        W96189  12.442  21.154  19.184
95326W        W96190  11.624  19.325  18.081
95327W        W96191  11.007  21.955  25.403
95328W        W96192  11.558  20.834  24.921
95329W        W96193  13.994  20.256  22.550
95330W        W96194  14.245  21.561  24.727
95331W        W96195  12.114  21.553  22.056
95332W        W96196  12.502  19.567  23.124
95333W        W96197  12.046  19.422  23.505
95334W        W96198  12.755  20.318  22.747
95335W        W96199  12.520  21.559  25.011
95336W        W96200  10.993  19.003  24.951
95337W        W96201  11.601  18.244  24.852
95338W        W96202  13.613  18.611  23.650
95339W        W96203  13.239  19.327  22.122
95340W        W96204  13.649  19.061  25.215
95341W        W96205  11.169  18.673  24.571
95342W        W96206  11.281  21.511  25.459
95343W        W96207  12.467  21.076  22.186
95344W        W96208  11.176  19.358  23.979
95345W        W96209  12.213  19.610  25.116
95346W        W96210  14.309  19.147  23.760
95347W        W96211  14.252  20.332  24.441
95348W        W96212  12.768  19.713  23.573
95349W        W96213  13.308  21.054  23.933
95350W        W96214  11.531  20.384  24.263
95351W        W96215  10.795  19.975  23.932
95352W        W96216  12.152  20.068  24.859
95353W        W96217  14.285  19.721  25.065
95354W        W96218  11.856  21.144  23.677
95355W        W96219  13.104  20.890  24.736
95356W        W96220  12.393  19.483  23.900
95357W        W96221  12.503  20.416  23.593
95358W        W96222  13.359  21.201  25.414
95359W        W96223  12.896  20.355  25.469
95360W        W96224  12.700  20.206  24.894
95361W        W96225  10.982  19.384  25.324
95362W        W96226  13.783  20.932  25.258
95363W        W96227  11.428  18.483  23.146
95364W        W96228  12.024  21.019  24.155
95365W        W96229  14.308  20.762  23.435
95366W        W96230  13.843  19.008  23.980
95367W        W96231  14.236  19.040  21.876
95368W        W96232  14.727  19.883  24.408
95369W        W96233  12.655  21.421  24.134
95370W        W96234  14.443  21.029  22.447
95371W        W96235  11.419  21.844  22.658
95372W        W96236  11.763  21.844  23.097
95373W        W96237  11.696  18.611  24.498
95374W        W96238  14.281  19.615  24.532
95375W        W96239  13.690  19.806  23.307
95376W        W96240  13.535  19.730  22.003
95377W        W96241  12.890  20.944  24.213
95378W        W96242  12.982  18.993  23.453
95379W        W96243  13.291  21.237  24.416
95380W        W96244  13.915  19.752  22.830
95381W        W96245  13.012  18.679  22.797
95382W        W96246  11.655  21.413  22.827
95383W        W96247  11.032  18.822  23.304
95384W        W96248  13.820  19.404  23.639
95385W        W96249  11.348  21.215  23.765
95386W        W96250  12.497  21.566  22.410
95387W        W96251  13.956  19.463  21.798
95388W        W96252  11.217  21.306  24.249
95389W        W96253  11.986  21.042  24.689
95390W        W96254  12.037  20.314  23.400
95391W        W96255  12.137  18.738  24.246
95392W        W96256  14.537  18.336  23.836
95393W        W96257  11.928  20.505  21.792
95394W        W96258  11.242  19.011  21.956
95395W        W96259  11.495  21.165  23.270
95396W        W96260  12.195  20.898  23.390
95397W        W96261  13.856  21.429  25.094
95398W        W96262  13.102  19.307  22.621
95399W        W96263  14.178  21.761  23.550
95400W        W96264  13.850  19.588  24.822
95401W        W96265  14.623  21.154  23.279
95402W        W96266  13.213  20.381  24.682
95403W        W96267  10.805  19.778  23.198
95404W        W96268  12.040  20.551  24.358
95405W        W96269  13.394  19.650  22.905
95406W        W96270  13.162  19.934  23.286
95407W        W96271  11.547  19.498  24.344
95408W        W96272  11.397  19.495  24.857
95409W        W96273  11.343  18.361  23.624
95410W        W96274  13.102  18.537  23.742
95411W        W96275  12.769  18.822  25.012
95412W        W96276  13.153  18.854  22.304
95413W        W96277  14.340  21.457  25.238
95414W        W96278  13.152  18.328  24.951
95415W        W96279  14.308  20.749  25.345
95416W        W96280  13.789  18.912  24.740
95417W        W96281  13.718  18.771  23.043
95418W        W96282  13.879  19.976  25.313
95419W        W96283  11.626  21.600  23.539
95420W        W96284  12.686  19.017  22.473
95421W        W96285  11.803  18.704  25.088
95422W        W96286  14.008  19.104  22.758
95423W        W96287  14.352  19.488  22.800
95424W        W96288  12.160  21.935  25.159
95425W        W96289  11.978  18.315  22.628
95426W        W96290  14.431  18.697  23.476
95427W        W96291  14.405  21.196  21.950
95428W        W96292  11.182  20.318  23.886
95429W        W96293  13.305  18.896  21.815
95430W        W96294  14.417  21.172  23.760
95431W        W96295  14.416  18.359  24.417
95432W        W96296  13.035  19.642  24.870
95433W        W96297  12.779  20.832  22.829
95434W        W96298  13.411  20.272  25.508
95435W        W96299  13.418  18.175  23.461
95436W        W96300  11.670  19.259  23.838
95437W        W96301  11.239  20.537  24.638
95438W        W96302  12.959  21.584  23.388
95439W        W96303  14.151  19.104  24.404
95440W        W96304  13.035  21.668  24.903
95441W        W96305  14.268  20.227  22.087
95442W        W96306  12.633  20.065  23.218
95443W        W96307  14.725  18.355  24.866
95444W        W96308  12.749  20.577  24.556
95445W        W96309  12.879  19.302  23.855
95446W        W96310  13.622  19.476  22.472
95447W        W96311  14.134  19.351  22.317
95448W        W96312  14.230  21.096  22.918
95449W        W96313  13.757  20.924  23.668
95450W        W96314  13.561  19.992  22.545
95451W        W96315  12.975  20.202  23.670
95452W        W96316  13.985  19.896  23.723
95453W        W96317  11.492  18.994  24.239
95454W        W96318  14.015  20.071  24.823
95455W        W96319  14.412  21.626  23.996
95456W        W96320  12.453  21.376  23.444
95457W        W96321  13.599  21.708  24.712
95458W        W96322  13.351  18.968  24.421
95459W        W96323  12.663  21.773  24.547
95460W        W96324  14.236  18.655  22.917
95461W        W96325  14.314  19.947  24.107
95462W        W96326  11.098  19.233  24.507
95463W        W96327  13.969  18.935  23.452
95464W        W96328  14.186  19.213  24.940
95465W        W96329  13.259  20.904  23.439
95466W        W96330  12.548  21.868  23.231
95467W        W96331  11.587  18.673  22.525
95468W        W96332  12.612  18.476  24.196
95469W        W96333  11.482  21.773  22.107
95470W        W96334  12.420  19.927  22.741
95471W        W96335  12.782  20.674  25.066
95472W        W96336  12.722  19.069  22.994
95473W        W96337  13.991  18.418  23.330
95474W        W96338  13.693  21.858  23.702
95475W        W96339  13.083  21.627  23.926
95476W        W96340  12.507  20.557  24.093
95477W        W96341  14.234  21.222  24.264
95478W        W96342  11.904  18.659  23.008
95479W        W96343  12.441  21.008  23.847
95480W        W96344  12.075  18.887  21.724
95481W        W96345  12.737  19.534  24.301
95482W        W96346  13.475  18.393  24.102
95483W        W96347  10.993  20.213  24.348
95484W        W96348  12.721  20.052  22.289
95485W        W96349  12.060  18.388  21.890
95486W        W96350  13.002  19.447  23.193
95487W        W96351  13.494  18.502  24.603
95488W        W96352  12.284  20.578  24.839
95489W        W96353  13.148  20.087  25.101
95490W        W96354  13.599  20.306  25.025
95491W        W96355  12.826  18.448  25.352
95492W        W96356  12.152  19.012  23.814
95493W        W96357  11.766  18.928  23.450
95494W        W96358  11.272  21.641  23.142
95495W        W96359  12.927  21.209  25.112
95496W        W96360  12.308  20.788  22.610
95497W        W96361  13.480  20.055  23.704
95498W        W96362  13.591  19.672  24.013
95499W        W96363  12.990  20.386  24.151
95500W        W96364  13.699  20.899  21.887
95501W        W96365  13.265  18.617  23.252
95502W        W96366  14.498  19.010  22.645
95503W        W96367  11.308  21.699  24.982
95504W        W96368  11.573  20.895  24.416
95505W        W96369  10.954  21.655  22.718
95506W        W96370  12.082  21.277  22.533
95507W        W96371  14.288  21.519  22.583
95508W        W96372  13.147  19.763  22.379
95509W        W96373  12.197  19.113  23.071
95510W        W96374  12.826  19.067  21.965
95511W        W96375  13.301  20.695  25.184
95512W        W96376  13.805  18.512  22.597
95513W        W96377  11.152  18.413  22.326
95514W        W96378  12.430  20.947  24.442
95515W        W96379  12.076  20.638  23.815
95516W        W96380  12.010  21.039  21.948
95517W        W96381  11.107  21.189  22.904
95518W        W96382  11.700  19.891  25.029
95519W        W96383  12.324  18.510  25.234
95520W        W96384  12.964  18.639  24.559
95521W        W96385  12.291  18.308  23.127
95522W        W96386  13.293  18.375  22.462
95523W        W96387  11.316  18.497  24.119
95524W        W96388  11.222  19.304  23.468
95525W        W96389  14.087  18.574  23.832
95526W        W96390  11.452  18.980  23.030
95527W        W96391  13.949  18.613  24.331
95528W        W96392  14.400  19.699  21.959
95529W        W96393  11.758  18.658  23.918
95530W        W96394  12.915  19.173  24.650
95531W        W96395  10.901  18.881  22.309
95532W        W96396  11.737  20.378  24.736
95533W        W96397  13.088  19.796  23.980
95534W        W96398  12.842  21.882  22.162
95535W        W96399  10.922  20.013  21.711
95536W        W96400  12.007  20.951  25.195
95537W        W96401  11.363  19.999  24.647
95538W        W96402  12.432  20.194  24.452
95539W        W96403  13.973  18.370  24.791
95540W        W96404  14.532  20.106  24.814
95541W        W96405  14.401  19.927  22.511
95542W        W96406  13.240  20.219  22.878
95543W        W96407  13.749  21.874  21.889
95544W        W96408  13.157  19.815  25.545
95545W        W96409  11.541  20.865  25.428
95546W        W96410  14.646  18.651  25.294
95547W        W96411  14.084  19.495  24.066
95548W        W96412  12.501  21.790  25.503
95549W        W96413  12.363  18.271  22.295
95550W        W96414  14.160  20.738  22.100
95551W        W96415  11.825  19.260  25.087
95552W        W96416  12.450  21.059  24.961
95553W        W96417  14.324  18.748  24.726
95554W        W96418  13.938  21.849  22.385
95555W        W96419  13.885  20.304  24.037
95556W        W96420  11.993  18.981  24.681
95557W        W96421  12.716  19.837  25.260
95558W        W96422  11.898  20.940  22.961
95559W        W96423  13.743  20.223  23.005
95560W        W96424  11.494  19.005  24.768
95561W        W96425  12.699  20.933  23.336
95562W        W96426  14.625  19.798  23.137
95563W        W96427  12.639  18.320  24.867
95564W        W96428  13.751  21.028  24.169
95565W        W96429  13.951  21.396  23.850
95566W        W96430  12.828  21.392  21.980
95567W        W96431  11.143  21.090  25.156
95568W        W96432  12.021  19.263  24.246
95569W        W96433  11.844  18.415  23.476
95570W        W96434  13.368  19.212  23.975
95571W        W96435  12.727  20.612  22.302
95572W        W96436  14.337  20.331  23.726
95573W        W96437  11.634  21.306  25.138
95574W        W96438  14.102  21.941  22.904
95575W        W96439  12.256  18.733  23.402
95576W        W96440  11.696  20.290  23.793
95577W        W96441  12.333  21.877  24.165
95578W        W96442  14.100  21.887  25.115
95579W        W96443  13.417  20.123  24.222
95580W        W96444  11.049  19.294  21.549
95581W        W96445  14.386  21.566  23.097
95582W        W96446  14.084  18.838  22.320
95583W        W96447  12.109  18.428  24.763
95584W        W96448  14.080  21.237  23.382
95585W        W96449  14.189  19.561  23.320
95586W        W96450  12.520  19.199  23.481
95587W        W96451  12.553  19.751  24.750
95588W        W96452  13.615  20.821  24.776
95589W        W96453  12.393  19.288  24.636
95590W        W96454  12.120  21.787  23.484
95591W        W96455  11.700  21.793  25.325
95592W        W96456  11.686  21.404  21.793
95593W        W96457  14.168  20.522  22.992
95594W        W96458  11.932  19.554  24.684
95595W        W96459  14.615  19.255  22.167
95596W        W96460  12.415  20.547  23.084
95597W        W96461  13.458  19.912  24.698
95598W        W96462  13.238  19.532  24.391
95599W        W96463  11.832  19.988  24.410
95600W        W96464  13.992  21.696  24.294
95601W        W96465  13.601  18.530  25.119
95602W        W96466  11.292  18.588  25.059
95603W        W96467  11.911  19.697  23.968
95604W        W96468  12.405  19.324  21.797
95605W        W96469  11.123  21.030  24.656
95606W        W96470  12.620  19.993  24.008
95607W        W96471  12.500  18.669  21.936
95608W        W96472  11.708  19.853  23.526
95609W        W96473  11.339  21.806  24.474
95610W        W96474  13.965  19.822  22.262
95611W        W96475  14.074  18.733  25.168
95612W        W96476  13.774  20.790  23.172
95613W        W96477  11.185  19.849  25.161
95614W        W96478  14.285  18.388  22.438
95615W        W96479  13.985  20.785  22.584
95616W        W96480  12.910  19.815  22.838
95617W        W96481  13.610  18.641  22.140
95618W        W96482  13.711  19.343  24.387
95619W        W96483  11.173  19.842  23.605
95620W        W96484  11.703  20.711  23.431
95621W        W96485  13.745  19.322  23.128
95622W        W96486  12.634  18.772  23.763
95623W        W96487  14.554  20.758  24.338
95624W        W96488  14.456  18.788  24.128
95625W        W96489  11.017  21.589  23.592
95626W        W96490  10.976  20.676  23.154
95627W        W96491  11.385  18.618  25.587
95628W        W96492  12.586  21.276  25.490
95629W        W96493  14.158  20.065  23.270
95630W        W96494  13.680  20.232  22.103
95631W        W96495  13.163  21.756  24.418
95632W        W96496  13.885  20.465  25.453
95633W        W96497  12.654  18.195  22.749
95634W        W96498  13.476  19.064  23.488
95635W        W96499  11.129  20.772  24.160
95636W        W96500  12.418  18.666  22.770
95637W        W96501  12.400  20.272  25.305
95638W        W96502  13.293  19.068  23.014
95639W        W96503  13.366  20.712  24.324
95640W        W96504  11.560  21.367  24.632
95641W        W96505  12.122  21.436  25.334
95642W        W96506  12.092  18.713  22.296
95643W        W96507  13.557  18.969  22.573
95644W        W96508  13.399  21.274  24.913
95645W        W96509  12.280  19.895  23.596
95646W        W96510  11.856  21.788  24.388
95647W        W96511  14.256  21.680  22.017
95648W        W96512  11.357  20.339  25.093
95649W        W96513  13.414  20.546  23.841
95650W        W96514  11.378  20.292  23.390
95651W        W96515  12.242  21.432  24.429
95652W        W96516  12.723  18.600  23.231
95653W        W96517  10.763  20.708  22.684
95654W        W96518  12.833  19.612  21.964
95655W        W96519  10.869  20.287  23.481
95656W        W96520  12.468  18.772  24.622
95657W        W96521  14.253  18.522  21.919
95658W        W96522  14.330  20.228  25.271
95659W        W96523  12.988  21.656  25.426
95660W        W96524  14.512  20.648  24.838
95661W        W96525  13.952  21.310  25.596
95662W        W96526  11.841  21.918  23.897
95663W        W96527  14.619  20.770  22.930
95664W        W96528  13.313  19.548  23.585
95665W        W96529  13.006  18.178  23.135
95666W        W96530  11.978  21.368  23.231
95667W        W96531  12.542  19.061  24.188
95668W        W96532  12.239  18.433  23.822
95669W        W96533  11.091  21.442  22.246
95670W        W96534  12.916  20.486  23.232
95671W        W96535  11.995  21.552  24.854
95672W        W96536  10.787  20.231  22.931
95673W        W96537  11.315  18.871  23.745
95674W        W96538  12.904  20.703  23.756
95675W        W96539  11.081  18.662  22.803
95676W        W96540  13.870  19.891  24.370
95677W        W96541  13.711  19.134  22.091
95678W        W96542  14.163  20.759  23.976
95679W        W96543  12.883  21.214  23.719
95680W        W96544  12.211  21.663  22.871
95681W        W96545  13.416  18.185  21.961
95682W        W96546  11.354  21.717  23.956
95683W        W96547  13.135  19.286  25.250
95684W        W96548  11.394  19.039  25.270
95685W        W96549  10.987  19.249  23.003
95686W        W96550  12.673  19.545  22.459
95687W        W96551  13.479  19.685  25.174
95688W        W96552  12.139  20.165  24.018
95689W        W96553  13.547  18.275  22.972
95690W        W96554  12.610  21.769  23.740
95691W        W96555  13.829  21.270  24.601
95692W        W96556  13.455  21.410  23.593
95693W        W96557  13.400  20.408  23.342
95694W        W96558  12.781  18.525  22.367
95695W        W96559  14.525  18.296  23.164
95696W        W96560  12.206  19.821  21.734
95697W        W96561  14.356  19.104  23.160
95698W        W96562  13.173  20.311  22.371
95699W        W96563  14.028  20.558  24.957
95700W        W96564  13.993  21.228  22.256
95701W        W96565  12.276  19.001  25.112
95702W        W96566  12.266  19.727  24.330
95703W        W96567  14.174  21.058  24.940
95704W        W96568  13.264  18.852  24.922
95705W        W96569  10.874  19.594  24.828
95706W        W96570  12.945  19.982  24.472
95707W        W96571  11.205  20.739  23.614
95708W        W96572  11.437  19.907  24.054
95709W        W96573  13.732  20.386  24.529
95710W        W96574  13.455  21.697  25.224
95711W        W96575  13.425  19.314  24.814
95712W        W96576  13.802  21.649  23.229
95713W        W96577  12.792  21.283  24.617
95714W        W96578  12.182  21.471  23.896
95715W        W96579  14.065  20.802  24.506
95716W        W96580  12.946  20.888  25.504
95717W        W96581  11.599  20.782  23.932
95718W        W96582  13.873  20.415  23.528
95719W        W96583  13.545  21.548  24.112
95720W        W96584  11.704  21.394  24.110
95721W        W96585  12.656  19.346  25.089
95722W        W96586  12.729  21.524  22.902
95723W        W96587  12.444  20.778  25.435
95724W        W96588  12.376  21.155  22.970
95725W        W96589  11.912  19.377  21.644
95726W        W96590  11.110  21.879  28.893
95727W        W96591  11.495  20.801  28.544
95728W        W96592  14.190  20.275  26.373
95729W        W96593  14.330  21.557  28.211
95730W        W96594  12.089  21.660  25.792
95731W        W96595  12.239  19.809  26.752
95732W        W96596  11.705  19.703  27.046
95733W        W96597  12.852  20.358  26.296
95734W        W96598  12.496  21.514  28.324
95735W        W96599  11.214  19.124  28.608
95736W        W96600  11.714  18.437  28.374
95737W        W96601  13.669  18.710  27.337
95738W        W96602  13.267  19.601  26.021
95739W        W96603  13.724  18.922  28.787
95740W        W96604  11.243  18.716  28.186
95741W        W96605  11.259  21.341  28.967
95742W        W96606  12.638  20.967  25.931
95743W        W96607  10.981  19.397  27.652
95744W        W96608  11.941  19.731  28.936
95745W        W96609  14.434  19.217  27.332
95746W        W96610  14.183  20.293  28.110
95747W        W96611  12.672  19.709  27.236
95748W        W96612  13.209  21.150  27.600
95749W        W96613  11.475  20.354  27.798
95750W        W96614  10.786  19.904  27.498
95751W        W96615  12.007  19.893  28.444
95752W        W96616  14.386  19.562  28.856
95753W        W96617  11.860  21.057  27.162
95754W        W96618  13.003  20.944  28.256
95755W        W96619  12.417  19.362  27.619
95756W        W96620  12.567  20.238  27.222
95757W        W96621  13.239  21.108   0.077
95758W        W96622  12.445  20.362   0.010
95759W        W96623  12.750  20.077  28.399
95760W        W96624  10.996  19.363   0.054
95761W        W96625  13.727  20.960  28.839
95762W        W96626  11.434  18.598  26.745
95763W        W96627  12.031  20.887  27.675
95764W        W96628  14.405  20.668  27.165
95765W        W96629  13.635  19.140  27.624
95766W        W96630  14.166  19.067  25.553
95767W        W96631  14.669  19.702  27.961
95768W        W96632  12.486  21.605  27.601
95769W        W96633  14.376  20.793  26.302
95770W        W96634  11.392  21.737  26.298
95771W        W96635  11.801  21.744  26.609
95772W        W96636  11.742  18.669  27.934
95773W        W96637  14.311  19.321  27.997
95774W        W96638  13.534  19.897  26.907
95775W        W96639  13.630  19.855  25.747
95776W        W96640  12.912  20.768  27.769
95777W        W96641  12.582  19.193  27.122
95778W        W96642  13.338  21.305  28.075
95779W        W96643  13.943  19.839  26.599
95780W        W96644  12.900  18.844  26.294
95781W        W96645  11.768  21.418  26.184
95782W        W96646  11.049  18.934  26.798
95783W        W96647  13.579  19.592  27.344
95784W        W96648  11.351  21.229  27.171
95785W        W96649  12.567  21.528  25.943
95786W        W96650  13.935  19.469  25.332
95787W        W96651  11.133  21.229  27.890
95788W        W96652  11.923  20.992  28.257
95789W        W96653  12.281  20.346  26.788
95790W        W96654  12.253  18.717  27.907
95791W        W96655  14.596  18.345  27.340
95792W        W96656  11.903  20.448  25.213
95793W        W96657  11.370  19.096  25.783
95794W        W96658  11.607  21.206  26.716
95795W        W96659  12.270  20.859  26.807
95796W        W96660  13.912  21.385  28.576
95797W        W96661  12.908  19.348  26.285
95798W        W96662  14.186  21.804  27.194
95799W        W96663  14.091  19.596  28.415
95800W        W96664  14.508  21.015  26.802
95801W        W96665  13.150  20.404  28.284
95802W        W96666  10.867  19.979  26.605
95803W        W96667  12.117  20.554  28.062
95804W        W96668  13.256  19.617  26.556
95805W        W96669  13.189  20.136  26.607
95806W        W96670  11.572  19.521  27.925
95807W        W96671  11.478  19.486  28.933
95808W        W96672  11.415  18.394  27.219
95809W        W96673  13.182  18.864  27.656
95810W        W96674  12.781  18.775  28.803
95811W        W96675  13.116  19.110  25.860
95812W        W96676  14.433  21.338  28.701
95813W        W96677  13.206  18.472  28.677
95814W        W96678  14.235  20.861  28.820
95815W        W96679  13.948  18.992  28.196
95816W        W96680  13.570  18.864  26.819
95817W        W96681  14.028  19.902   0.101
95818W        W96682  11.730  21.564  27.099
95819W        W96683  12.597  19.104  25.951
95820W        W96684  11.894  18.586  28.825
95821W        W96685  13.950  19.123  26.561
95822W        W96686  14.243  19.498  26.334
95823W        W96687  12.083  21.628  28.852
95824W        W96688  11.978  18.314  26.168
95825W        W96689  14.401  18.772  27.094
95826W        W96690  14.471  21.148  25.634
95827W        W96691  11.116  20.310  27.396
95828W        W96692  13.231  18.811  25.436
95829W        W96693  14.402  21.241  27.337
95830W        W96694  14.588  18.331  27.854
95831W        W96695  12.835  19.665  28.743
95832W        W96696  12.914  20.866  26.369
95833W        W96697  13.386  20.117   0.089
95834W        W96698  13.340  18.377  27.577
95835W        W96699  11.480  19.405  27.423
95836W        W96700  11.223  20.463  28.254
95837W        W96701  13.284  21.537  27.191
95838W        W96702  14.104  18.958  27.677
95839W        W96703  12.998  21.521  28.385
95840W        W96704  14.225  20.300  25.822
95841W        W96705  12.691  20.054  26.721
95842W        W96706  14.545  18.364  28.361
95843W        W96707  12.654  20.484  28.106
95844W        W96708  12.938  19.309  27.489
95845W        W96709  13.714  19.494  26.285
95846W        W96710  13.972  19.454  25.842
95847W        W96711  14.044  21.123  26.519
95848W        W96712  13.475  20.684  27.458
95849W        W96713  13.551  19.977  26.292
95850W        W96714  13.042  20.055  27.083
95851W        W96715  13.976  19.964  27.397
95852W        W96716  11.350  19.044  27.772
95853W        W96717  14.025  20.092  28.568
95854W        W96718  14.378  21.632  27.683
95855W        W96719  12.353  21.213  27.169
95856W        W96720  13.522  21.725  28.478
95857W        W96721  13.419  19.050  28.092
95858W        W96722  12.717  21.871  28.033
95859W        W96723  14.323  18.766  26.576
95860W        W96724  14.140  19.826  27.918
95861W        W96725  11.141  19.335  28.141
95862W        W96726  13.955  19.090  27.137
95863W        W96727  14.383  19.170  28.507
95864W        W96728  13.128  20.910  27.132
95865W        W96729  12.571  21.555  26.736
95866W        W96730  11.725  18.728  25.965
95867W        W96731  12.833  18.417  27.496
95868W        W96732  11.577  21.763  25.824
95869W        W96733  12.404  20.105  26.286
95870W        W96734  12.766  20.594  28.587
95871W        W96735  12.652  18.821  26.740
95872W        W96736  13.974  18.541  26.931
95873W        W96737  13.683  21.890  27.287
95874W        W96738  13.004  21.687  27.614
95875W        W96739  12.443  20.536  27.644
95876W        W96740  14.228  21.159  27.827
95877W        W96741  11.869  18.732  26.474
95878W        W96742  12.507  21.062  27.639
95879W        W96743  11.841  18.998  25.532
95880W        W96744  12.760  19.628  27.890
95881W        W96745  13.675  18.658  27.853
95882W        W96746  10.977  20.244  27.876
95883W        W96747  12.743  19.987  25.811
95884W        W96748  11.902  18.472  25.545
95885W        W96749  12.722  19.541  26.731
95886W        W96750  13.576  18.651  28.364
95887W        W96751  12.306  20.364  28.501
95888W        W96752  12.900  20.171  28.891
95889W        W96753  13.554  20.321  28.651
95890W        W96754  12.862  18.378   0.107
95891W        W96755  12.140  19.002  27.370
95892W        W96756  11.515  19.054  27.011
95893W        W96757  11.321  21.634  26.798
95894W        W96758  12.858  21.119  28.718
95895W        W96759  11.955  20.449  26.402
95896W        W96760  13.482  20.144  27.345
95897W        W96761  13.609  19.887  27.775
95898W        W96762  12.775  20.145  27.736
95899W        W96763  13.505  20.760  25.676
95900W        W96764  12.932  18.821  27.187
95901W        W96765  14.629  19.150  26.301
95902W        W96766  11.137  21.545  28.512
95903W        W96767  11.489  20.829  28.020
95904W        W96768  10.967  21.967  26.421
95905W        W96769  12.894  19.121  28.024
95906W        W96770  12.174  21.185  25.954
95907W        W96771  14.221  21.273  26.057
95908W        W96772  13.207  20.133  25.962
95909W        W96773  12.441  19.185  26.434
95910W        W96774  12.744  19.002  25.473
95911W        W96775  13.275  20.752  28.660
95912W        W96776  13.890  18.664  26.305
95913W        W96777  11.082  18.233  25.857
95914W        W96778  12.482  20.959  28.187
95915W        W96779  12.131  20.588  27.226
95916W        W96780  11.994  20.780  25.686
95917W        W96781  11.172  21.291  26.441
95918W        W96782  11.535  19.967  28.682
95919W        W96783  12.379  18.459  28.945
95920W        W96784  13.083  18.626  28.161
95921W        W96785  12.272  18.475  26.696
95922W        W96786  13.669  19.055  25.977
95923W        W96787  11.302  18.528  27.712
95924W        W96788  11.046  19.305  27.159
95925W        W96789  14.126  18.491  27.459
95926W        W96790  11.334  18.939  26.317
95927W        W96791  14.151  18.542  27.999
95928W        W96792  14.294  19.801  25.593
95929W        W96793  11.660  18.816  27.447
95930W        W96794  12.683  19.212  28.529
95931W        W96795  11.009  18.730  25.941
95932W        W96796  11.735  20.366  28.380
95933W        W96797  13.119  19.823  27.530
95934W        W96798  12.997  21.818  25.939
95935W        W96799  10.928  20.235  25.410
95936W        W96800  11.994  20.742  28.710
95937W        W96801  11.323  19.939  28.195
95938W        W96802  12.329  20.075  28.064
95939W        W96803  13.880  18.246  28.306
95940W        W96804  14.506  19.967  28.365
95941W        W96805  14.520  19.879  26.091
95942W        W96806  13.368  20.509  26.310
95943W        W96807  13.841  21.820  25.545
95944W        W96808  13.072  19.734   0.201
95945W        W96809  11.578  20.592   0.017
95946W        W96810  14.607  18.720  28.729
95947W        W96811  14.045  19.469  27.547
95948W        W96812  12.582  21.528  28.879
95949W        W96813  12.364  18.326  25.810
95950W        W96814  14.045  20.819  25.807
95951W        W96815  11.714  19.051  28.701
95952W        W96816  12.258  21.182  28.607
95953W        W96817  14.522  18.838  28.152
95954W        W96818  13.919  21.696  26.041
95955W        W96819  13.809  20.362  27.671
95956W        W96820  12.045  18.858  28.354
95957W        W96821  12.395  19.924  28.770
95958W        W96822  11.965  20.976  26.403
95959W        W96823  13.728  20.315  26.648
95960W        W96824  11.599  19.080  28.214
95961W        W96825  12.745  21.075  26.821
95962W        W96826  14.583  19.657  27.087
95963W        W96827  12.720  18.308  28.579
95964W        W96828  13.696  21.102  27.752
95965W        W96829  13.945  21.433  27.452
95966W        W96830  13.015  21.299  25.811
95967W        W96831  11.076  20.837  28.869
95968W        W96832  11.923  19.145  27.812
95969W        W96833  11.873  18.627  27.025
95970W        W96834  13.289  19.466  27.841
95971W        W96835  12.544  20.462  25.859
95972W        W96836  14.310  20.417  27.606
95973W        W96837  11.738  21.212  28.743
95974W        W96838  14.006  21.917  26.536
95975W        W96839  12.175  18.998  26.844
95976W        W96840  11.593  20.146  27.308
95977W        W96841  12.159  21.831  27.950
95978W        W96842  14.187  21.790  28.720
95979W        W96843  13.275  20.311  27.778
95980W        W96844  11.071  19.766  25.668
95981W        W96845  14.309  21.514  26.729
95982W        W96846  14.179  19.031  26.081
95983W        W96847  12.226  18.385  28.461
95984W        W96848  14.050  21.075  27.022
95985W        W96849  14.065  19.592  27.035
95986W        W96850  12.174  19.523  27.198
95987W        W96851  12.486  19.647  28.337
95988W        W96852  13.693  21.008  28.303
95989W        W96853  12.098  19.366  28.531
95990W        W96854  12.220  21.705  27.123
95991W        W96855  11.581  21.703  28.720
95992W        W96856  11.738  21.295  25.655
95993W        W96857  14.131  20.640  26.738
95994W        W96858  11.615  19.533  28.435
95995W        W96859  14.487  19.396  25.863
95996W        W96860  12.433  20.642  26.358
95997W        W96861  13.220  19.946  28.568
95998W        W96862  13.127  19.474  28.345
95999W        W96863  11.788  20.005  28.001
96000W        W96864  13.916  21.869  27.752
96001W        W96865  13.738  18.393  28.779
96002W        W96866  11.364  18.629  28.694
96003W        W96867  11.846  19.757  27.551
96004W        W96868  12.309  19.298  25.537
96005W        W96869  11.062  21.011  28.355
96006W        W96870  12.349  19.880  27.596
96007W        W96871  12.301  18.799  25.656
96008W        W96872  11.382  19.845  26.645
96009W        W96873  11.248  21.740  28.050
96010W        W96874  14.012  19.900  26.079
96011W        W96875  14.130  18.651  28.537
96012W        W96876  13.654  20.830  26.787
96013W        W96877  11.112  19.898  28.989
96014W        W96878  14.395  18.559  26.114
96015W        W96879  13.864  20.683  26.291
96016W        W96880  12.887  19.852  26.287
96017W        W96881  13.752  18.714  25.591
96018W        W96882  13.793  19.443  27.997
96019W        W96883  11.204  19.809  27.163
96020W        W96884  11.764  20.684  26.835
96021W        W96885  13.611  19.387  26.844
96022W        W96886  12.632  18.890  27.605
96023W        W96887  14.495  20.709  28.047
96024W        W96888  14.595  18.798  27.624
96025W        W96889  10.993  21.605  27.198
96026W        W96890  11.312  20.800  26.570
96027W        W96891  11.507  18.467   0.166
96028W        W96892  12.718  21.143   0.245
96029W        W96893  14.333  20.162  27.072
96030W        W96894  13.712  20.334  25.938
96031W        W96895  13.252  21.831  28.052
96032W        W96896  13.946  20.440  28.961
96033W        W96897  12.476  18.188  26.305
96034W        W96898  13.352  19.116  27.212
96035W        W96899  11.188  20.776  27.599
96036W        W96900  12.363  18.699  26.205
96037W        W96901  11.943  20.247  28.848
96038W        W96902  13.052  19.143  26.780
96039W        W96903  13.394  20.762  27.974
96040W        W96904  11.499  21.287  28.274
96041W        W96905  12.108  21.169   0.094
96042W        W96906  12.085  19.109  26.014
96043W        W96907  13.374  19.127  26.389
96044W        W96908  13.363  21.250  28.597
96045W        W96909  12.091  20.050  27.185
96046W        W96910  11.723  21.567  27.905
96047W        W96911  14.335  21.672  25.710
96048W        W96912  11.206  20.351  28.747
96049W        W96913  13.007  20.464  27.371
96050W        W96914  11.768  20.168  26.807
96051W        W96915  12.196  21.315  27.960
96052W        W96916  12.427  18.641  27.166
96053W        W96917  10.857  20.130  26.023
96054W        W96918  12.789  19.483  25.649
96055W        W96919  11.254  20.255  26.909
96056W        W96920  12.578  18.752  28.323
96057W        W96921  14.259  18.557  25.617
96058W        W96922  14.460  20.069  28.862
96059W        W96923  13.097  21.620  28.886
96060W        W96924  14.465  20.481  28.526
96061W        W96925  14.068  21.290   0.064
96062W        W96926  11.843  21.888  27.497
96063W        W96927  14.595  20.428  26.684
96064W        W96928  13.143  19.560  27.064
96065W        W96929  12.789  18.349  26.953
96066W        W96930  12.094  21.348  26.753
96067W        W96931  12.378  19.183  28.105
96068W        W96932  12.323  18.351  27.563
96069W        W96933  11.174  21.430  25.941
96070W        W96934  12.841  20.537  26.813
96071W        W96935  11.957  21.519  28.367
96072W        W96936  11.205  20.307  26.395
96073W        W96937  11.139  18.827  27.314
96074W        W96938  12.622  20.774  27.222
96075W        W96939  10.964  18.595  26.432
96076W        W96940  13.637  19.839  28.280
96077W        W96941  13.495  19.375  25.606
96078W        W96942  14.019  20.834  27.468
96079W        W96943  12.827  21.302  27.304
96080W        W96944  12.231  21.594  26.319
96081W        W96945  13.307  18.307  25.494
96082W        W96946  11.362  21.594  27.547
96083W        W96947  13.368  19.362  28.913
96084W        W96948  11.407  18.982   0.107
96085W        W96949  11.041  19.465  26.676
96086W        W96950  12.485  19.596  26.068
96087W        W96951  13.648  19.795  28.782
96088W        W96952  11.989  20.289  27.631
96089W        W96953  13.295  18.470  27.073
96090W        W96954  12.727  21.796  27.172
96091W        W96955  13.837  21.470  28.073
96092W        W96956  13.594  21.128  27.238
96093W        W96957  13.348  20.464  26.973
96094W        W96958  12.785  18.637  25.832
96095W        W96959  14.591  18.354  26.828
96096W        W96960  12.320  19.812  25.590
96097W        W96961  14.405  19.247  26.800
96098W        W96962  13.053  20.619  25.909
96099W        W96963  13.956  20.604  28.473
96100W        W96964  13.464  21.557  25.769
96101W        W96965  12.277  18.953  28.814
96102W        W96966  12.099  19.601  27.994
96103W        W96967  14.215  21.044  28.329
96104W        W96968  13.187  18.997  28.551
96105W        W96969  11.115  19.626  28.565
96106W        W96970  13.149  19.917  28.064
96107W        W96971  11.291  20.730  27.081
96108W        W96972  11.301  19.873  27.666
96109W        W96973  13.651  20.333  28.149
96110W        W96974  13.599  21.507  28.973
96111W        W96975  13.628  19.337  28.473
96112W        W96976  13.816  21.536  26.933
96113W        W96977  12.819  21.328  27.939
96114W        W96978  12.014  21.404  27.502
96115W        W96979  13.973  20.734  27.973
96116W        W96980  12.944  20.679   0.054
96117W        W96981  11.658  20.648  27.418
96118W        W96982  13.870  20.448  27.149
96119W        W96983  13.501  21.582  27.665
96120W        W96984  11.583  21.137  27.621
96121W        W96985  12.411  19.438  28.947
96122W        W96986  12.890  21.418  26.326
96123W        W96987  12.464  20.848  28.921
96124W        W96988  12.457  21.151  26.399
96125W        W96989  11.496  19.519  25.404
96126W        W96990  11.004  25.546   3.337
96127W        W96991  11.414  24.425   2.813
96128W        W96992  14.173  24.105   0.778
96129W        W96993  14.359  25.199   2.729
96130W        W96994  12.400  25.202   0.275
96131W        W96995  12.015  23.405   1.000
96132W        W96996  11.828  23.220   1.480
96133W        W96997  12.871  23.902   0.747
96134W        W96998  12.458  25.205   2.964
96135W        W96999  11.011  22.642   2.977
96136W        W97000  11.614  22.018   2.750
96137W        W97001  13.444  22.290   1.677
96138W        W97002  13.201  23.026   0.410
96139W        W97003  13.617  22.813   3.256
96140W        W97004  11.132  22.276   2.586
96141W        W97005  11.160  25.073   3.452
96142W        W97006  12.462  24.262   0.433
96143W        W97007  11.060  23.087   2.049
96144W        W97008  12.159  23.188   3.122
96145W        W97009  14.307  22.800   1.744
96146W        W97010  14.201  23.976   2.509
96147W        W97011  12.719  23.442   1.588
96148W        W97012  13.205  24.694   1.986
96149W        W97013  11.566  23.974   2.042
96150W        W97014  10.797  23.533   1.963
96151W        W97015  12.175  23.709   3.005
96152W        W97016  14.291  23.394   3.247
96153W        W97017  11.874  24.728   1.638
96154W        W97018  13.039  24.561   2.650
96155W        W97019  12.548  23.142   1.966
96156W        W97020  12.562  23.911   1.658
96157W        W97021  13.259  24.808   3.393
96158W        W97022  12.532  23.999   3.332
96159W        W97023  12.663  23.808   2.877
96160W        W97024  10.971  22.985   3.392
96161W        W97025  13.710  24.644   3.182
96162W        W97026  11.654  22.267   1.002
96163W        W97027  11.898  24.405   2.058
96164W        W97028  14.337  24.293   1.555
96165W        W97029  13.928  22.433   1.793
96166W        W97030  14.169  22.663   0.038
96167W        W97031  14.310  23.474   2.492
96168W        W97032  12.595  25.118   2.079
96169W        W97033  14.272  24.581   0.594
96170W        W97034  11.555  25.519   0.620
96171W        W97035  11.876  25.391   1.002
96172W        W97036  11.674  22.232   2.293
96173W        W97037  14.094  22.982   2.636
96174W        W97038  13.677  23.560   1.318
96175W        W97039  13.596  23.344   0.290
96176W        W97040  12.761  24.592   2.206
96177W        W97041  12.795  22.942   1.574
96178W        W97042  13.183  24.996   2.412
96179W        W97043  14.155  23.685   1.092
96180W        W97044  13.047  22.419   0.975
96181W        W97045  11.702  24.836   0.698
96182W        W97046  11.189  22.487   1.255
96183W        W97047  13.823  22.951   1.720
96184W        W97048  11.346  24.723   1.777
96185W        W97049  12.579  24.768   0.495
96186W        W97050  13.905  23.090  28.920
96187W        W97051  11.089  24.826   2.231
96188W        W97052  11.832  24.633   2.558
96189W        W97053  12.226  23.769   1.299
96190W        W97054  12.218  22.361   2.228
96191W        W97055  14.521  21.948   1.772
96192W        W97056  11.663  23.794   0.129
96193W        W97057  11.378  22.912   0.422
96194W        W97058  11.485  24.739   1.279
96195W        W97059  12.529  24.326   1.341
96196W        W97060  13.892  25.135   2.942
96197W        W97061  12.853  22.890   0.752
96198W        W97062  14.239  25.291   1.546
96199W        W97063  13.833  23.226   3.013
96200W        W97064  14.444  24.531   1.101
96201W        W97065  13.167  24.039   2.729
96202W        W97066  11.016  23.550   1.173
96203W        W97067  11.900  24.125   2.473
96204W        W97068  13.269  23.256   0.889
96205W        W97069  13.231  23.728   1.090
96206W        W97070  11.505  23.126   2.339
96207W        W97071  11.449  23.036   2.854
96208W        W97072  11.358  21.988   1.347
96209W        W97073  13.056  22.380   2.060
96210W        W97074  12.795  22.495   3.247
96211W        W97075  13.393  22.311   0.588
96212W        W97076  14.383  24.988   3.204
96213W        W97077  13.282  21.995   3.013
96214W        W97078  14.188  24.498   3.326
96215W        W97079  13.780  22.572   2.810
96216W        W97080  13.494  22.513   1.229
96217W        W97081  13.866  23.643   3.418
96218W        W97082  11.648  25.206   1.500
96219W        W97083  12.365  23.066   0.786
96220W        W97084  11.825  22.269   3.169
96221W        W97085  13.944  22.888   0.867
96222W        W97086  14.334  23.260   0.831
96223W        W97087  12.026  25.434   3.197
96224W        W97088  12.089  22.040   0.769
96225W        W97089  14.353  22.347   1.513
96226W        W97090  14.536  24.836   0.230
96227W        W97091  11.112  23.906   1.778
96228W        W97092  13.326  22.452   0.100
96229W        W97093  14.530  24.781   1.705
96230W        W97094  14.303  21.981   2.331
96231W        W97095  12.923  23.330   2.962
96232W        W97096  12.800  24.405   0.801
96233W        W97097  13.401  23.836   3.566
96234W        W97098  13.042  21.982   1.718
96235W        W97099  11.516  22.963   1.816
96236W        W97100  11.406  23.983   2.540
96237W        W97101  13.167  25.117   1.418
96238W        W97102  14.044  22.689   2.211
96239W        W97103  13.020  25.297   2.814
96240W        W97104  14.265  24.039   0.285
96241W        W97105  12.726  23.780   1.205
96242W        W97106  14.359  21.960   2.843
96243W        W97107  12.718  24.164   2.514
96244W        W97108  13.018  22.907   2.043
96245W        W97109  13.763  23.361   0.849
96246W        W97110  14.055  23.149   0.412
96247W        W97111  14.065  24.882   0.957
96248W        W97112  13.775  24.429   1.646
96249W        W97113  13.342  23.697   0.575
96250W        W97114  13.074  23.830   1.590
96251W        W97115  14.021  23.447   1.700
96252W        W97116  11.372  22.618   2.160
96253W        W97117  14.008  23.691   2.897
96254W        W97118  14.481  25.189   2.060
96255W        W97119  12.353  24.801   1.450
96256W        W97120  13.519  25.373   2.656
96257W        W97121  13.181  22.690   2.482
96258W        W97122  12.641  25.505   2.531
96259W        W97123  14.308  22.381   1.003
96260W        W97124  13.957  23.668   2.151
96261W        W97125  11.077  22.837   2.507
96262W        W97126  13.983  22.655   1.321
96263W        W97127  14.170  22.856   3.134
96264W        W97128  13.228  24.581   1.486
96265W        W97129  12.508  25.131   1.088
96266W        W97130  11.470  22.404   0.520
96267W        W97131  12.629  22.090   2.064
96268W        W97132  11.822  25.206   0.319
96269W        W97133  11.708  23.577   0.619
96270W        W97134  12.773  24.310   3.009
96271W        W97135  12.579  22.723   1.166
96272W        W97136  13.851  22.124   1.381
96273W        W97137  13.565  25.419   1.677
96274W        W97138  13.091  25.208   1.922
96275W        W97139  12.469  24.164   2.072
96276W        W97140  14.240  24.851   2.371
96277W        W97141  12.142  22.407   1.145
96278W        W97142  12.328  24.661   1.938
96279W        W97143  11.920  22.441   0.152
96280W        W97144  12.755  23.081   2.450
96281W        W97145  13.458  22.003   2.100
96282W        W97146  10.962  23.918   2.313
96283W        W97147  12.581  23.748   0.349
96284W        W97148  12.016  21.944   0.264
96285W        W97149  12.796  23.276   1.096
96286W        W97150  13.420  22.244   2.559
96287W        W97151  12.277  24.192   2.871
96288W        W97152  13.055  23.824   3.187
96289W        W97153  13.561  23.906   3.074
96290W        W97154  12.779  22.191   3.654
96291W        W97155  12.019  23.005   1.924
96292W        W97156  11.680  22.635   1.410
96293W        W97157  11.405  25.191   1.011
96294W        W97158  12.842  24.835   3.057
96295W        W97159  11.594  24.107   0.524
96296W        W97160  13.538  23.720   1.788
96297W        W97161  13.601  23.277   2.045
96298W        W97162  12.971  23.969   2.096
96299W        W97163  13.437  24.344   0.077
96300W        W97164  12.967  22.451   1.499
96301W        W97165  14.675  22.648   0.744
96302W        W97166  11.171  25.261   2.932
96303W        W97167  11.429  24.438   2.280
96304W        W97168  11.036  25.497   0.703
96305W        W97169  12.680  22.544   2.423
96306W        W97170  12.081  24.726   0.342
96307W        W97171  14.187  25.135   0.525
96308W        W97172  12.890  23.408   0.584
96309W        W97173  11.991  22.894   1.099
96310W        W97174  12.932  22.773   0.045
96311W        W97175  13.265  24.323   3.179
96312W        W97176  13.829  22.378   0.848
96313W        W97177  11.093  22.044   0.374
96314W        W97178  12.295  24.464   2.424
96315W        W97179  12.145  24.199   1.663
96316W        W97180  12.007  24.224   0.178
96317W        W97181  11.215  24.698   0.835
96318W        W97182  11.729  23.464   2.963
96319W        W97183  12.327  22.128   3.348
96320W        W97184  12.940  22.265   2.747
96321W        W97185  12.260  21.903   1.245
96322W        W97186  12.985  22.010   0.670
96323W        W97187  11.197  22.054   2.142
96324W        W97188  11.313  23.006   1.344
96325W        W97189  13.972  21.933   1.889
96326W        W97190  11.515  22.756   0.919
96327W        W97191  13.863  22.227   2.308
96328W        W97192  14.428  23.501   0.233
96329W        W97193  11.855  22.485   1.873
96330W        W97194  12.882  22.814   2.868
96331W        W97195  10.993  22.538   0.300
96332W        W97196  11.743  23.990   2.933
96333W        W97197  13.065  23.441   1.968
96334W        W97198  12.928  25.362   0.318
96335W        W97199  11.167  23.888   0.247
96336W        W97200  11.895  24.503   3.050
96337W        W97201  11.294  23.498   2.673
96338W        W97202  12.317  23.824   2.497
96339W        W97203  13.830  22.022   2.794
96340W        W97204  14.526  23.774   2.859
96341W        W97205  14.516  23.724   0.682
96342W        W97206  13.307  24.195   0.759
96343W        W97207  13.961  25.469   0.163
96344W        W97208  13.019  23.473   3.558
96345W        W97209  11.500  24.269   3.301
96346W        W97210  14.491  22.516   3.406
96347W        W97211  14.127  23.169   2.121
96348W        W97212  12.490  25.423   3.429
96349W        W97213  12.501  22.067   0.414
96350W        W97214  13.893  24.552   0.238
96351W        W97215  11.873  22.776   3.003
96352W        W97216  12.337  24.720   2.852
96353W        W97217  14.236  22.422   2.612
96354W        W97218  13.767  25.479   0.645
96355W        W97219  13.789  24.131   2.071
96356W        W97220  11.997  22.374   2.688
96357W        W97221  12.562  23.493   3.292
96358W        W97222  11.990  24.371   0.705
96359W        W97223  13.712  23.894   0.912
96360W        W97224  11.515  22.553   2.719
96361W        W97225  12.826  24.738   1.197
96362W        W97226  14.488  23.238   1.542
96363W        W97227  12.767  21.990   3.145
96364W        W97228  13.687  24.642   2.101
96365W        W97229  14.017  25.010   1.925
96366W        W97230  13.104  24.614   0.438
96367W        W97231  11.077  24.602   3.223
96368W        W97232  11.831  22.725   2.342
96369W        W97233  11.848  22.140   1.465
96370W        W97234  13.529  22.573   2.094
96371W        W97235  12.105  23.881   0.543
96372W        W97236  14.311  24.017   1.993
96373W        W97237  11.513  24.881   3.073
96374W        W97238  14.159  25.428   1.021
96375W        W97239  12.211  22.728   1.548
96376W        W97240  11.800  23.767   1.586
96377W        W97241  12.249  25.497   2.210
96378W        W97242  14.165  25.457   3.241
96379W        W97243  13.384  23.714   2.275
96380W        W97244  11.246  23.424   0.457
96381W        W97245  14.505  25.045   1.192
96382W        W97246  14.198  22.616   0.536
96383W        W97247  12.135  21.914   2.906
96384W        W97248  14.092  24.778   1.456
96385W        W97249  14.064  23.193   1.265
96386W        W97250  12.351  23.184   1.331
96387W        W97251  12.438  23.362   2.725
96388W        W97252  13.530  24.435   2.752
96389W        W97253  12.374  22.840   2.808
96390W        W97254  12.154  25.283   1.425
96391W        W97255  11.526  25.403   3.284
96392W        W97256  11.598  24.774   0.159
96393W        W97257  13.975  24.287   1.198
96394W        W97258  11.951  23.132   2.638
96395W        W97259  14.549  23.025   0.416
96396W        W97260  12.384  24.091   0.918
96397W        W97261  13.345  23.560   2.778
96398W        W97262  13.239  23.222   2.407
96399W        W97263  11.769  23.617   2.461
96400W        W97264  13.977  25.305   2.396
96401W        W97265  13.662  22.233   3.289
96402W        W97266  11.292  22.222   3.077
96403W        W97267  11.744  23.433   1.973
96404W        W97268  12.110  22.914   0.217
96405W        W97269  11.019  24.759   2.741
96406W        W97270  12.580  23.641   2.085
96407W        W97271  12.477  22.526   0.166
96408W        W97272  11.524  23.440   1.118
96409W        W97273  11.213  25.416   2.432
96410W        W97274  14.028  23.655   0.548
96411W        W97275  14.133  22.326   3.114
96412W        W97276  13.639  24.684   1.202
96413W        W97277  11.261  23.390   3.179
96414W        W97278  14.230  22.104   0.556
96415W        W97279  13.780  24.463   0.751
96416W        W97280  12.454  23.581   0.821
96417W        W97281  13.824  22.300   0.281
96418W        W97282  13.639  22.917   2.443
96419W        W97283  11.351  23.454   1.629
96420W        W97284  11.979  24.385   1.220
96421W        W97285  13.591  23.028   1.241
96422W        W97286  12.582  22.615   1.922
96423W        W97287  14.485  24.392   2.406
96424W        W97288  14.444  22.393   2.060
96425W        W97289  11.137  25.094   1.458
96426W        W97290  11.483  24.293   1.008
96427W        W97291  11.438  22.253   3.568
96428W        W97292  12.573  24.932   3.489
96429W        W97293  14.427  23.760   1.528
96430W        W97294  13.743  24.069   0.425
96431W        W97295  13.123  25.518   2.338
96432W        W97296  13.780  24.178   3.444
96433W        W97297  12.552  21.792   0.827
96434W        W97298  13.332  22.806   1.651
96435W        W97299  11.013  24.368   1.965
96436W        W97300  12.558  22.312   0.855
96437W        W97301  12.024  24.081   3.353
96438W        W97302  13.108  22.870   1.192
96439W        W97303  13.336  24.287   2.310
96440W        W97304  11.456  24.983   2.574
96441W        W97305  12.106  24.933   3.265
96442W        W97306  11.964  22.561   0.671
96443W        W97307  13.436  22.777   0.794
96444W        W97308  13.353  24.909   2.899
96445W        W97309  12.217  23.476   1.736
96446W        W97310  11.792  25.312   2.353
96447W        W97311  14.469  25.331   0.142
96448W        W97312  11.233  23.902   3.028
96449W        W97313  13.347  24.206   1.816
96450W        W97314  11.825  23.910   1.003
96451W        W97315  12.197  24.974   2.380
96452W        W97316  12.464  22.277   1.551
96453W        W97317  11.057  24.228   0.627
96454W        W97318  12.608  23.078   0.308
96455W        W97319  11.376  23.895   1.333
96456W        W97320  12.461  22.330   2.876
96457W        W97321  14.281  22.160   0.053
96458W        W97322  14.249  23.969   3.261
96459W        W97323  12.983  25.281   3.330
96460W        W97324  14.465  24.293   2.906
96461W        W97325  13.942  25.020   3.444
96462W        W97326  11.777  25.547   1.900
96463W        W97327  14.583  24.033   1.111
96464W        W97328  13.210  23.324   1.454
96465W        W97329  12.787  22.016   1.236
96466W        W97330  11.950  24.902   1.146
96467W        W97331  12.307  22.870   2.315
96468W        W97332  12.143  21.992   1.867
96469W        W97333  11.290  25.093   0.498
96470W        W97334  13.017  24.199   1.218
96471W        W97335  11.933  25.079   2.810
96472W        W97336  11.313  23.819   0.833
96473W        W97337  11.366  22.353   1.722
96474W        W97338  12.852  24.326   1.743
96475W        W97339  11.165  22.148   0.867
96476W        W97340  13.766  23.404   2.532
96477W        W97341  13.691  22.793   0.331
96478W        W97342  14.176  24.514   1.986
96479W        W97343  12.799  24.828   1.706
96480W        W97344  12.172  25.078   0.710
96481W        W97345  13.407  21.941   0.210
96482W        W97346  11.329  25.244   1.940
96483W        W97347  13.123  22.987   3.356
96484W        W97348  11.430  22.688   3.248
96485W        W97349  11.168  23.142   0.874
96486W        W97350  11.832  23.071   0.643
96487W        W97351  13.428  23.402   3.264
96488W        W97352  12.062  23.852   2.049
96489W        W97353  13.308  22.021   1.235
96490W        W97354  12.658  25.304   1.569
96491W        W97355  13.721  24.878   2.543
96492W        W97356  13.576  24.908   1.673
96493W        W97357  13.508  24.086   1.348
96494W        W97358  12.908  22.473   0.462
96495W        W97359  14.559  21.959   1.247
96496W        W97360  12.186  23.392   0.402
96497W        W97361  14.450  22.860   1.173
96498W        W97362  13.034  24.074   0.301
96499W        W97363  13.951  24.220   2.941
96500W        W97364  13.670  25.060   0.324
96501W        W97365  12.272  22.618   3.256
96502W        W97366  12.182  23.375   2.256
96503W        W97367  14.130  24.699   2.852
96504W        W97368  13.296  22.525   2.989
96505W        W97369  10.939  23.145   2.885
96506W        W97370  12.904  23.608   2.482
96507W        W97371  11.179  24.354   1.446
96508W        W97372  11.283  23.555   2.154
96509W        W97373  13.691  23.966   2.574
96510W        W97374  13.508  25.272   3.239
96511W        W97375  13.359  23.037   2.872
96512W        W97376  13.787  25.187   1.282
96513W        W97377  12.692  24.965   2.566
96514W        W97378  12.088  25.125   1.896
96515W        W97379  13.961  24.417   2.462
96516W        W97380  12.858  24.492   3.494
96517W        W97381  11.639  24.268   1.615
96518W        W97382  13.952  23.945   1.594
96519W        W97383  13.565  25.167   2.130
96520W        W97384  11.690  24.875   2.117
96521W        W97385  12.618  22.989   3.276
96522W        W97386  12.922  25.056   0.766
96523W        W97387  12.369  24.485   3.304
96524W        W97388  12.360  24.638   0.948
96525W        W97389  11.709  23.291   0.194
96526W        W97390  11.034  25.663   7.133
96527W        W97391  11.399  24.523   6.669
96528W        W97392  14.266  23.888   4.560
96529W        W97393  14.375  25.367   6.433
96530W        W97394  12.095  25.239   3.688
96531W        W97395  12.310  23.454   5.047
96532W        W97396  11.920  23.262   5.390
96533W        W97397  12.920  24.080   4.665
96534W        W97398  12.464  25.141   6.829
96535W        W97399  11.048  22.764   6.680
96536W        W97400  11.587  21.873   6.522
96537W        W97401  13.465  22.453   5.398
96538W        W97402  13.125  23.096   3.923
96539W        W97403  13.633  22.787   7.066
96540W        W97404  11.113  22.518   6.233
96541W        W97405  11.154  25.164   7.232
96542W        W97406  12.612  24.753   3.975
96543W        W97407  11.096  23.115   5.689
96544W        W97408  12.181  23.095   6.934
96545W        W97409  14.276  22.824   5.480
96546W        W97410  14.173  23.960   6.214
96547W        W97411  12.641  23.411   5.437
96548W        W97412  13.280  24.688   5.807
96549W        W97413  11.611  24.037   6.016
96550W        W97414  10.826  23.563   5.658
96551W        W97415  12.193  23.587   6.734
96552W        W97416  14.305  23.314   7.016
96553W        W97417  11.969  24.713   5.508
96554W        W97418  13.122  24.553   6.549
96555W        W97419  12.286  23.201   5.751
96556W        W97420  12.620  23.938   5.497
96557W        W97421  13.371  24.735   7.147
96558W        W97422  12.696  23.920   7.232
96559W        W97423  12.748  23.765   6.744
96560W        W97424  10.993  22.980   7.150
96561W        W97425  13.826  24.651   6.891
96562W        W97426  11.285  22.149   4.787
96563W        W97427  11.974  24.446   5.982
96564W        W97428  14.473  24.301   5.376
96565W        W97429  13.771  22.796   5.737
96566W        W97430  13.982  22.609   3.539
96567W        W97431  14.480  23.514   6.131
96568W        W97432  12.651  25.041   6.004
96569W        W97433  14.228  24.733   4.286
96570W        W97434  11.445  25.473   4.404
96571W        W97435  11.789  25.450   4.982
96572W        W97436  11.617  22.205   6.086
96573W        W97437  14.189  23.181   6.451
96574W        W97438  13.583  23.556   5.089
96575W        W97439  13.550  23.391   3.794
96576W        W97440  12.859  24.570   6.088
96577W        W97441  12.689  22.625   5.117
96578W        W97442  13.173  24.987   6.221
96579W        W97443  14.062  23.601   4.922
96580W        W97444  13.154  22.333   4.493
96581W        W97445  11.616  25.049   4.699
96582W        W97446  10.952  22.561   4.924
96583W        W97447  13.502  23.123   5.384
96584W        W97448  11.334  24.884   5.556
96585W        W97449  12.556  25.285   3.917
96586W        W97450  13.911  23.131   3.522
96587W        W97451  11.100  24.938   6.021
96588W        W97452  11.844  24.719   6.430
96589W        W97453  12.275  23.989   5.116
96590W        W97454  12.059  22.333   5.863
96591W        W97455  14.419  22.027   5.552
96592W        W97456  11.591  23.739   3.378
96593W        W97457  11.351  22.727   3.755
96594W        W97458  11.593  24.763   5.133
96595W        W97459  12.275  24.524   5.131
96596W        W97460  13.940  25.204   6.659
96597W        W97461  12.884  22.780   4.259
96598W        W97462  14.224  25.233   5.530
96599W        W97463  13.834  23.267   6.804
96600W        W97464  14.697  24.762   5.188
96601W        W97465  13.164  24.010   6.530
96602W        W97466  10.658  23.731   4.821
96603W        W97467  12.007  24.186   6.422
96604W        W97468  13.090  23.237   4.440
96605W        W97469  13.202  23.638   4.758
96606W        W97470  11.427  23.338   6.285
96607W        W97471  11.433  23.098   6.856
96608W        W97472  11.282  22.138   5.303
96609W        W97473  12.961  22.455   5.543
96610W        W97474  12.768  22.417   6.849
96611W        W97475  13.204  22.490   3.997
96612W        W97476  14.429  25.220   6.930
96613W        W97477  13.345  22.007   6.815
96614W        W97478  14.247  24.468   7.113
96615W        W97479  13.750  22.550   6.612
96616W        W97480  13.501  22.636   4.857
96617W        W97481  13.950  23.631   7.227
96618W        W97482  11.742  25.176   5.448
96619W        W97483  12.388  22.743   4.140
96620W        W97484  11.886  22.206   6.787
96621W        W97485  13.868  22.818   4.537
96622W        W97486  14.177  23.237   4.572
96623W        W97487  12.116  25.458   7.040
96624W        W97488  11.833  21.972   4.213
96625W        W97489  14.322  22.361   5.152
96626W        W97490  14.338  24.790   3.725
96627W        W97491  11.232  24.015   5.612
96628W        W97492  13.258  22.514   3.498
96629W        W97493  14.536  24.812   5.683
96630W        W97494  14.276  22.146   6.351
96631W        W97495  12.992  23.299   6.837
96632W        W97496  12.756  24.523   4.422
96633W        W97497  13.484  23.766   7.415
96634W        W97498  13.190  22.006   5.469
96635W        W97499  11.521  22.943   5.423
96636W        W97500  11.460  24.059   6.491
96637W        W97501  13.366  25.088   5.400
96638W        W97502  14.180  23.056   5.940
96639W        W97503  13.069  25.252   6.655
96640W        W97504  14.126  23.941   3.770
96641W        W97505  12.740  23.739   5.033
96642W        W97506  14.778  21.999   6.468
96643W        W97507  12.706  24.247   6.475
96644W        W97508  12.751  22.936   5.612
96645W        W97509  13.658  23.307   4.522
96646W        W97510  13.919  23.134   4.087
96647W        W97511  14.058  24.989   4.702
96648W        W97512  13.959  24.270   5.494
96649W        W97513  13.396  23.631   4.238
96650W        W97514  13.114  23.963   5.298
96651W        W97515  13.940  23.751   5.408
96652W        W97516  11.424  22.747   5.892
96653W        W97517  14.127  23.667   6.651
96654W        W97518  14.531  25.365   5.918
96655W        W97519  12.410  24.961   5.379
96656W        W97520  13.561  25.340   6.361
96657W        W97521  13.340  22.662   6.263
96658W        W97522  12.660  25.408   6.390
96659W        W97523  14.135  22.369   4.631
96660W        W97524  14.019  23.540   5.897
96661W        W97525  11.022  23.019   6.202
96662W        W97526  13.851  22.724   5.235
96663W        W97527  14.114  22.846   6.905
96664W        W97528  13.204  24.568   5.268
96665W        W97529  12.494  25.229   4.936
96666W        W97530  11.421  22.278   4.081
96667W        W97531  12.738  22.026   5.751
96668W        W97532  11.453  25.390   3.797
96669W        W97533  12.623  24.036   4.219
96670W        W97534  12.903  24.300   6.949
96671W        W97535  12.669  22.324   4.698
96672W        W97536  13.813  22.253   5.039
96673W        W97537  13.754  25.423   5.533
96674W        W97538  13.073  25.267   5.786
96675W        W97539  12.552  24.161   5.971
96676W        W97540  14.361  24.928   6.166
96677W        W97541  11.744  22.297   4.599
96678W        W97542  12.432  24.628   5.769
96679W        W97543  11.839  22.616   3.548
96680W        W97544  12.688  23.138   6.095
96681W        W97545  13.355  22.306   5.876
96682W        W97546  11.106  24.020   6.112
96683W        W97547  12.497  23.718   3.769
96684W        W97548  11.918  22.102   3.668
96685W        W97549  12.787  23.201   4.925
96686W        W97550  13.491  22.174   6.354
96687W        W97551  12.343  24.083   6.820
96688W        W97552  13.173  23.848   7.020
96689W        W97553  13.661  23.802   6.863
96690W        W97554  12.958  22.084   7.199
96691W        W97555  11.995  22.787   5.608
96692W        W97556  11.470  22.563   5.041
96693W        W97557  11.344  25.219   5.125
96694W        W97558  12.894  24.842   6.971
96695W        W97559  12.262  24.482   4.244
96696W        W97560  13.451  23.675   5.577
96697W        W97561  13.588  23.258   5.873
96698W        W97562  13.008  23.891   5.823
96699W        W97563  13.332  24.345   3.691
96700W        W97564  13.113  22.325   5.034
96701W        W97565  14.352  22.761   4.369
96702W        W97566  11.159  25.343   6.739
96703W        W97567  11.411  24.509   6.157
96704W        W97568  10.939  25.649   4.545
96705W        W97569  12.853  22.632   6.026
96706W        W97570  12.182  25.005   4.157
96707W        W97571  13.973  25.081   3.976
96708W        W97572  12.915  23.582   4.052
96709W        W97573  12.511  22.819   4.654
96710W        W97574  12.800  22.712   3.731
96711W        W97575  13.444  24.279   6.882
96712W        W97576  13.663  22.348   4.358
96713W        W97577  11.014  21.989   3.914
96714W        W97578  12.358  24.574   6.292
96715W        W97579  12.178  24.219   5.564
96716W        W97580  12.154  24.707   3.729
96717W        W97581  11.100  25.180   4.676
96718W        W97582  11.817  23.455   7.052
96719W        W97583  12.384  22.057   6.738
96720W        W97584  12.988  22.307   6.397
96721W        W97585  12.143  21.962   4.770
96722W        W97586  13.338  22.001   4.076
96723W        W97587  11.198  22.282   5.797
96724W        W97588  11.112  23.027   5.098
96725W        W97589  14.028  22.371   5.584
96726W        W97590  11.253  22.561   4.484
96727W        W97591  13.869  22.429   6.097
96728W        W97592  14.227  23.437   3.780
96729W        W97593  11.640  22.417   5.542
96730W        W97594  12.900  22.839   6.517
96731W        W97595  10.935  22.480   3.986
96732W        W97596  11.827  23.941   6.848
96733W        W97597  13.052  23.366   5.770
96734W        W97598  13.020  25.518   3.996
96735W        W97599  11.021  23.713   3.487
96736W        W97600  11.950  24.446   6.882
96737W        W97601  11.450  23.603   6.723
96738W        W97602  12.421  23.836   6.357
96739W        W97603  13.863  21.974   6.653
96740W        W97604  14.581  23.894   6.545
96741W        W97605  14.466  23.517   4.247
96742W        W97606  13.137  24.070   4.140
96743W        W97607  13.849  25.473   3.644
96744W        W97608  13.011  23.473   7.325
96745W        W97609  11.528  24.528   7.182
96746W        W97610  14.713  22.276   6.876
96747W        W97611  13.971  23.236   5.482
96748W        W97612  12.547  25.373   7.318
96749W        W97613  12.349  22.001   3.962
96750W        W97614  13.795  24.621   3.718
96751W        W97615  11.824  22.758   6.765
96752W        W97616  12.449  24.601   6.819
96753W        W97617  14.205  22.678   6.418
96754W        W97618  13.582  25.544   4.077
96755W        W97619  13.767  23.969   5.875
96756W        W97620  11.940  22.525   6.332
96757W        W97621  12.555  23.425   7.088
96758W        W97622  11.916  24.586   4.752
96759W        W97623  13.703  23.840   4.644
96760W        W97624  11.488  22.841   6.397
96761W        W97625  12.755  24.782   5.043
96762W        W97626  14.349  23.239   5.135
96763W        W97627  12.864  21.907   6.691
96764W        W97628  13.747  24.471   5.950
96765W        W97629  14.023  24.865   5.799
96766W        W97630  12.996  25.037   3.779
96767W        W97631  11.066  24.697   7.024
96768W        W97632  11.879  22.997   6.082
96769W        W97633  11.755  22.118   5.096
96770W        W97634  13.252  22.850   5.766
96771W        W97635  12.471  24.275   3.776
96772W        W97636  14.313  23.919   5.709
96773W        W97637  11.491  24.966   6.881
96774W        W97638  13.848  25.631   4.623
96775W        W97639  12.231  22.419   5.000
96776W        W97640  11.734  23.906   5.550
96777W        W97641  12.313  25.554   6.040
96778W        W97642  14.085  25.594   6.941
96779W        W97643  13.376  23.678   6.088
96780W        W97644  11.288  23.277   3.676
96781W        W97645  14.390  25.159   5.058
96782W        W97646  13.977  22.634   4.049
96783W        W97647  12.070  22.021   6.336
96784W        W97648  14.187  24.726   5.332
96785W        W97649  13.850  23.140   4.967
96786W        W97650  12.360  22.983   5.274
96787W        W97651  12.572  23.291   6.574
96788W        W97652  13.618  24.472   6.445
96789W        W97653  12.254  22.913   6.461
96790W        W97654  12.180  25.410   5.316
96791W        W97655  11.575  25.446   7.058
96792W        W97656  11.676  24.973   3.555
96793W        W97657  14.336  24.576   4.865
96794W        W97658  11.844  23.230   6.565
96795W        W97659  14.341  22.928   3.735
96796W        W97660  12.408  24.257   4.697
96797W        W97661  13.345  23.532   6.581
96798W        W97662  13.208  23.167   6.218
96799W        W97663  11.824  23.703   6.364
96800W        W97664  14.014  25.355   6.035
96801W        W97665  13.718  22.271   7.055
96802W        W97666  11.435  22.358   6.587
96803W        W97667  11.824  23.480   5.872
96804W        W97668  12.193  22.991   3.605
96805W        W97669  11.010  24.867   6.534
96806W        W97670  12.556  23.622   5.903
96807W        W97671  12.330  22.460   3.732
96808W        W97672  11.848  23.691   5.106
96809W        W97673  11.149  25.512   6.247
96810W        W97674  13.943  23.636   4.210
96811W        W97675  14.195  22.342   6.839
96812W        W97676  13.827  24.549   5.010
96813W        W97677  11.074  23.614   7.084
96814W        W97678  14.115  22.154   4.146
96815W        W97679  13.987  24.325   4.561
96816W        W97680  12.728  23.614   4.540
96817W        W97681  13.656  22.313   3.811
96818W        W97682  13.767  22.944   6.259
96819W        W97683  11.250  23.499   5.350
96820W        W97684  11.802  24.293   5.208
96821W        W97685  13.336  23.140   4.884
96822W        W97686  12.450  22.502   5.552
96823W        W97687  14.691  24.530   6.220
96824W        W97688  14.377  22.571   5.947
96825W        W97689  11.053  25.379   5.509
96826W        W97690  11.457  24.366   4.809
96827W        W97691  11.369  22.090   7.057
96828W        W97692  12.466  24.855   7.293
96829W        W97693  14.439  23.761   5.232
96830W        W97694  13.651  24.014   3.974
96831W        W97695  13.122  25.536   6.211
96832W        W97696  13.830  24.152   7.218
96833W        W97697  12.542  21.875   4.430
96834W        W97698  13.124  22.836   5.242
96835W        W97699  11.072  24.479   5.759
96836W        W97700  12.245  22.301   4.393
96837W        W97701  12.205  23.777   7.229
96838W        W97702  13.017  22.764   4.742
96839W        W97703  13.288  24.245   6.097
96840W        W97704  11.453  25.089   6.366
96841W        W97705  12.027  24.933   7.030
96842W        W97706  11.907  22.465   4.043
96843W        W97707  13.398  22.831   4.343
96844W        W97708  13.467  24.928   6.661
96845W        W97709  12.192  23.670   5.523
96846W        W97710  11.844  25.373   6.166
96847W        W97711  14.343  25.295   3.681
96848W        W97712  11.281  24.096   6.976
96849W        W97713  13.426  24.229   5.603
96850W        W97714  11.905  24.071   4.755
96851W        W97715  12.250  25.082   6.326
96852W        W97716  12.674  22.102   5.210
96853W        W97717  11.061  24.663   4.612
96854W        W97718  12.636  23.206   3.754
96855W        W97719  11.399  23.946   5.121
96856W        W97720  12.476  22.433   6.381
96857W        W97721  14.145  22.144   3.633
96858W        W97722  14.328  23.948   7.036
96859W        W97723  13.036  25.323   7.159
96860W        W97724  14.499  24.373   6.674
96861W        W97725  13.929  25.105   7.152
96862W        W97726  11.870  25.600   5.710
96863W        W97727  14.603  24.136   4.914
96864W        W97728  13.113  23.435   5.253
96865W        W97729  12.939  21.893   4.777
96866W        W97730  12.035  24.996   5.037
96867W        W97731  12.347  22.751   5.989
96868W        W97732  12.177  22.096   5.409
96869W        W97733  11.023  25.306   4.135
96870W        W97734  12.732  24.272   5.122
96871W        W97735  11.870  25.205   6.649
96872W        W97736  11.141  23.793   4.691
96873W        W97737  11.121  22.623   5.424
96874W        W97738  12.901  24.351   5.623
96875W        W97739  10.880  22.194   4.426
96876W        W97740  13.775  23.460   6.328
96877W        W97741  13.562  22.839   3.794
96878W        W97742  14.303  24.402   5.862
96879W        W97743  12.869  24.860   5.560
96880W        W97744  12.090  25.266   4.588
96881W        W97745  13.257  22.009   3.549
96882W        W97746  11.433  25.340   5.850
96883W        W97747  13.142  22.919   7.133
96884W        W97748  11.425  22.610   7.034
96885W        W97749  10.895  23.287   4.670
96886W        W97750  12.600  23.202   4.269
96887W        W97751  13.444  23.361   7.087
96888W        W97752  12.102  23.908   5.969
96889W        W97753  13.438  21.885   5.032
96890W        W97754  12.590  25.375   5.631
96891W        W97755  13.837  24.899   6.273
96892W        W97756  13.672  24.690   5.479
96893W        W97757  13.606  24.071   5.144
96894W        W97758  12.724  22.304   4.160
96895W        W97759  14.470  21.993   4.798
96896W        W97760  12.072  23.540   3.483
96897W        W97761  14.235  22.802   4.902
96898W        W97762  12.922  23.995   3.674
96899W        W97763  13.993  24.185   6.722
96900W        W97764  13.509  25.101   3.739
96901W        W97765  12.280  22.567   6.847
96902W        W97766  12.210  23.385   6.222
96903W        W97767  14.264  24.819   6.670
96904W        W97768  13.268  22.521   6.789
96905W        W97769  11.021  23.307   6.645
96906W        W97770  12.904  23.594   6.282
96907W        W97771  11.267  24.406   5.285
96908W        W97772  11.311  23.587   5.864
96909W        W97773  13.671  23.969   6.382
96910W        W97774  13.521  25.375   6.933
96911W        W97775  13.405  23.009   6.663
96912W        W97776  13.859  25.080   5.171
96913W        W97777  12.731  24.883   6.482
96914W        W97778  12.147  25.126   5.795
96915W        W97779  14.124  24.473   6.322
96916W        W97780  12.848  24.409   7.455
96917W        W97781  11.583  24.418   5.669
96918W        W97782  14.107  24.108   5.025
96919W        W97783  13.564  25.112   5.888
96920W        W97784  11.697  24.894   5.934
96921W        W97785  12.654  22.915   6.970
96922W        W97786  12.603  25.172   4.418
96923W        W97787  12.370  24.330   7.269
96924W        W97788  12.371  24.792   4.672
96925W        W97789  11.696  23.124   3.360
96926W        W97790  10.999  25.672  10.701
96927W        W97791  11.419  24.552  10.224
96928W        W97792  14.188  24.225   8.074
96929W        W97793  14.403  25.343  10.039
96930W        W97794  12.088  25.206   7.486
96931W        W97795  12.371  23.439   8.602
96932W        W97796  11.953  23.240   8.913
96933W        W97797  12.817  23.958   8.121
96934W        W97798  12.519  25.193  10.386
96935W        W97799  11.045  22.794  10.310
96936W        W97800  11.682  22.054  10.215
96937W        W97801  13.531  22.326   9.067
96938W        W97802  13.130  22.881   7.639
96939W        W97803  13.685  22.825  10.640
96940W        W97804  11.241  22.449   9.943
96941W        W97805  11.210  25.227  10.861
96942W        W97806  12.468  24.601   7.752
96943W        W97807  11.079  23.146   9.361
96944W        W97808  12.165  23.186  10.666
96945W        W97809  14.210  22.977   9.100
96946W        W97810  14.256  24.032   9.880
96947W        W97811  12.701  23.448   9.022
96948W        W97812  13.310  24.700   9.399
96949W        W97813  11.623  24.019   9.551
96950W        W97814  10.888  23.594   9.208
96951W        W97815  12.222  23.559  10.310
96952W        W97816  14.307  23.386  10.547
96953W        W97817  11.899  24.810   9.036
96954W        W97818  13.106  24.575  10.114
96955W        W97819  12.388  23.189   9.358
96956W        W97820  12.624  23.959   9.042
96957W        W97821  13.368  24.969  10.806
96958W        W97822  12.722  24.028  10.825
96959W        W97823  12.705  23.819  10.349
96960W        W97824  10.933  23.005  10.774
96961W        W97825  13.782  24.721  10.596
96962W        W97826  11.434  22.156   8.455
96963W        W97827  12.010  24.495   9.509
96964W        W97828  14.331  24.372   9.000
96965W        W97829  13.807  22.756   9.346
96966W        W97830  14.040  22.553   7.341
96967W        W97831  14.632  23.377   9.764
96968W        W97832  12.673  25.085   9.536
96969W        W97833  14.149  24.721   7.872
96970W        W97834  11.281  25.376   8.036
96971W        W97835  11.765  25.417   8.472
96972W        W97836  11.697  22.255   9.747
96973W        W97837  14.224  23.298  10.056
96974W        W97838  13.598  23.653   8.656
96975W        W97839  13.478  23.277   7.593
96976W        W97840  12.874  24.591   9.647
96977W        W97841  12.748  22.639   8.813
96978W        W97842  13.198  25.004   9.812
96979W        W97843  14.099  23.699   8.534
96980W        W97844  13.176  22.152   8.268
96981W        W97845  11.644  25.019   8.159
96982W        W97846  11.134  22.607   8.607
96983W        W97847  13.571  23.165   9.043
96984W        W97848  11.380  24.880   9.143
96985W        W97849  12.517  25.125   7.782
96986W        W97850  13.911  23.130   7.321
96987W        W97851  11.182  24.910   9.637
96988W        W97852  11.896  24.722   9.982
96989W        W97853  12.327  23.973   8.619
96990W        W97854  12.131  22.515   9.634
96991W        W97855  14.458  22.076   9.207
96992W        W97856  11.871  24.158   7.321
96993W        W97857  11.877  22.751   7.678
96994W        W97858  11.548  24.895   8.650
96995W        W97859  12.319  24.500   8.656
96996W        W97860  13.971  25.151  10.303
96997W        W97861  12.863  22.984   8.086
96998W        W97862  14.110  25.274   9.157
96999W        W97863  13.830  23.298  10.404
97000W        W97864  14.596  24.788   8.755
97001W        W97865  13.170  24.081  10.263
97002W        W97866  10.936  23.777   8.285
97003W        W97867  11.965  24.196   9.913
97004W        W97868  13.179  23.439   8.317
97005W        W97869  13.247  23.950   8.407
97006W        W97870  11.478  23.269   9.787
97007W        W97871  11.429  23.163  10.539
97008W        W97872  11.348  22.221   8.962
97009W        W97873  13.040  22.462   9.262
97010W        W97874  12.774  22.492  10.542
97011W        W97875  12.977  22.510   7.949
97012W        W97876  14.438  25.210  10.539
97013W        W97877  13.178  22.120  10.527
97014W        W97878  14.408  24.370  10.842
97015W        W97879  13.776  22.547  10.225
97016W        W97880  13.560  22.412   8.530
97017W        W97881  13.929  23.678  10.774
97018W        W97882  11.615  25.302   8.956
97019W        W97883  12.493  22.657   7.838
97020W        W97884  11.875  22.285  10.633
97021W        W97885  13.837  22.850   8.300
97022W        W97886  14.217  23.247   8.260
97023W        W97887  12.172  25.503  10.588
97024W        W97888  11.894  21.906   7.801
97025W        W97889  14.239  22.476   8.959
97026W        W97890  14.350  24.905   7.377
97027W        W97891  11.251  24.024   9.135
97028W        W97892  13.305  22.457   7.314
97029W        W97893  14.449  24.829   9.280
97030W        W97894  14.331  22.074   9.714
97031W        W97895  13.005  23.381  10.478
97032W        W97896  12.852  24.513   8.126
97033W        W97897  13.550  23.799  11.090
97034W        W97898  13.129  21.942   9.172
97035W        W97899  11.551  23.093   9.200
97036W        W97900  11.462  24.074  10.032
97037W        W97901  13.191  25.139   8.810
97038W        W97902  14.157  23.083   9.592
97039W        W97903  13.093  25.322  10.215
97040W        W97904  14.189  23.965   7.564
97041W        W97905  12.809  23.716   8.595
97042W        W97906  14.431  22.014  10.244
97043W        W97907  12.769  24.183   9.963
97044W        W97908  12.883  23.000   9.170
97045W        W97909  13.715  23.405   8.219
97046W        W97910  13.921  23.104   7.849
97047W        W97911  14.081  25.141   8.189
97048W        W97912  13.826  24.442   9.122
97049W        W97913  13.386  23.719   7.937
97050W        W97914  13.128  23.931   8.932
97051W        W97915  13.968  23.945   8.983
97052W        W97916  11.477  22.754   9.583
97053W        W97917  14.057  23.762  10.278
97054W        W97918  14.512  25.305   9.518
97055W        W97919  12.407  24.914   8.930
97056W        W97920  13.589  25.351  10.013
97057W        W97921  13.380  22.699   9.896
97058W        W97922  12.704  25.439   9.917
97059W        W97923  14.123  22.414   8.413
97060W        W97924  14.170  23.594   9.629
97061W        W97925  11.038  22.924   9.810
97062W        W97926  13.805  22.744   8.826
97063W        W97927  14.162  22.890  10.377
97064W        W97928  13.255  24.576   8.881
97065W        W97929  12.550  25.217   8.548
97066W        W97930  11.571  22.294   7.540
97067W        W97931  12.626  22.277   9.626
97068W        W97932  11.438  25.439   7.555
97069W        W97933  12.304  23.791   8.115
97070W        W97934  12.767  24.383  10.444
97071W        W97935  12.705  22.348   8.364
97072W        W97936  13.918  22.106   8.772
97073W        W97937  13.623  25.444   9.076
97074W        W97938  13.117  25.242   9.328
97075W        W97939  12.532  24.166   9.512
97076W        W97940  14.291  24.896   9.804
97077W        W97941  12.088  22.470   8.428
97078W        W97942  12.464  24.637   9.341
97079W        W97943  11.903  22.499   7.203
97080W        W97944  12.803  23.221   9.667
97081W        W97945  13.498  22.054   9.536
97082W        W97946  11.128  24.002   9.645
97083W        W97947  12.578  23.577   7.622
97084W        W97948  11.906  22.003   7.271
97085W        W97949  12.852  23.122   8.603
97086W        W97950  13.434  22.189  10.063
97087W        W97951  12.331  24.187  10.280
97088W        W97952  13.177  23.811  10.709
97089W        W97953  13.616  23.982  10.496
97090W        W97954  12.835  22.166  10.949
97091W        W97955  12.017  22.863   9.264
97092W        W97956  11.597  22.694   8.854
97093W        W97957  11.247  25.322   8.552
97094W        W97958  12.928  24.876  10.524
97095W        W97959  12.044  24.299   7.823
97096W        W97960  13.542  23.693   9.164
97097W        W97961  13.687  23.290   9.508
97098W        W97962  12.992  23.913   9.438
97099W        W97963  13.335  24.256   7.388
97100W        W97964  13.105  22.295   8.771
97101W        W97965  14.424  22.740   8.131
97102W        W97966  11.233  25.373  10.358
97103W        W97967  11.491  24.488   9.716
97104W        W97968  10.790  25.193   7.913
97105W        W97969  12.911  22.711   9.682
97106W        W97970  12.053  24.885   7.875
97107W        W97971  13.951  25.164   7.670
97108W        W97972  13.025  23.378   7.816
97109W        W97973  12.479  22.822   8.388
97110W        W97974  12.800  22.579   7.367
97111W        W97975  13.282  24.471  10.618
97112W        W97976  13.491  22.518   8.018
97113W        W97977  11.082  22.074   7.515
97114W        W97978  12.391  24.534   9.860
97115W        W97979  12.166  24.225   9.085
97116W        W97980  12.002  24.642   7.435
97117W        W97981  11.120  24.916   8.233
97118W        W97982  11.793  23.551  10.673
97119W        W97983  12.347  22.163  10.786
97120W        W97984  12.941  22.322  10.069
97121W        W97985  12.364  22.087   8.639
97122W        W97986  13.191  22.124   7.697
97123W        W97987  11.282  22.278   9.464
97124W        W97988  11.161  23.073   8.839
97125W        W97989  13.972  22.183   9.304
97126W        W97990  11.778  22.347   8.030
97127W        W97991  13.816  22.413   9.736
97128W        W97992  14.294  23.435   7.555
97129W        W97993  11.743  22.437   9.269
97130W        W97994  12.904  22.868  10.172
97131W        W97995  10.900  22.557   7.642
97132W        W97996  11.869  23.932  10.339
97133W        W97997  13.152  23.417   9.352
97134W        W97998  12.937  25.445   7.678
97135W        W97999  11.015  24.335   7.381
97136W        W98000  11.900  24.430  10.408
97137W        W98001  11.486  23.609  10.250
97138W        W98002  12.386  23.841   9.917
97139W        W98003  13.930  22.029  10.094
97140W        W98004  14.570  23.712  10.185
97141W        W98005  14.245  23.715   8.038
97142W        W98006  13.261  24.225   7.951
97143W        W98007  13.814  25.569   7.366
97144W        W98008  13.037  23.411  11.009
97145W        W98009  11.536  24.514  10.752
97146W        W98010  14.591  22.450  10.814
97147W        W98011  14.014  23.459   9.140
97148W        W98012  12.566  25.409  10.897
97149W        W98013  12.330  21.860   7.531
97150W        W98014  13.844  24.657   7.422
97151W        W98015  11.803  22.808  10.539
97152W        W98016  12.342  24.717  10.333
97153W        W98017  14.243  22.475  10.018
97154W        W98018  13.583  25.523   7.831
97155W        W98019  13.853  23.983   9.484
97156W        W98020  11.922  22.514  10.133
97157W        W98021  12.579  23.498  10.738
97158W        W98022  11.963  24.582   8.267
97159W        W98023  13.759  23.930   8.222
97160W        W98024  11.510  22.859  10.105
97161W        W98025  12.804  24.762   8.610
97162W        W98026  14.392  23.345   8.785
97163W        W98027  12.698  21.963  10.499
97164W        W98028  13.693  24.448   9.641
97165W        W98029  13.951  24.858   9.421
97166W        W98030  12.936  24.939   7.499
97167W        W98031  11.085  24.744  10.630
97168W        W98032  11.916  22.961   9.780
97169W        W98033  11.845  22.208   8.819
97170W        W98034  13.318  22.915   9.427
97171W        W98035  12.516  24.084   7.711
97172W        W98036  14.347  23.976   9.334
97173W        W98037  11.527  24.968  10.498
97174W        W98038  13.891  25.622   8.266
97175W        W98039  12.239  22.519   8.920
97176W        W98040  11.748  23.884   9.077
97177W        W98041  12.338  25.525   9.564
97178W        W98042  14.054  25.544  10.650
97179W        W98043  13.416  23.741   9.669
97180W        W98044  11.355  22.773   7.508
97181W        W98045  14.327  25.245   8.661
97182W        W98046  14.008  22.577   7.877
97183W        W98047  12.194  22.006  10.308
97184W        W98048  14.102  24.828   8.905
97185W        W98049  13.910  23.234   8.675
97186W        W98050  12.417  23.010   8.889
97187W        W98051  12.627  23.302  10.152
97188W        W98052  13.589  24.449  10.200
97189W        W98053  12.250  22.920  10.243
97190W        W98054  12.130  25.337   8.913
97191W        W98055  11.676  25.418  10.676
97192W        W98056  11.630  25.001   7.379
97193W        W98057  14.200  24.688   8.411
97194W        W98058  11.840  23.239  10.217
97195W        W98059  14.322  22.922   7.568
97196W        W98060  12.400  24.288   8.197
97197W        W98061  13.381  23.610  10.230
97198W        W98062  13.291  23.254   9.836
97199W        W98063  11.843  23.674   9.886
97200W        W98064  14.020  25.348   9.695
97201W        W98065  13.669  22.258  10.642
97202W        W98066  11.419  22.443  10.431
97203W        W98067  11.900  23.406   9.427
97204W        W98068  12.309  22.764   7.345
97205W        W98069  11.043  24.912  10.143
97206W        W98070  12.564  23.646   9.482
97207W        W98071  12.433  22.240   7.212
97208W        W98072  11.893  23.680   8.633
97209W        W98073  11.221  25.547   9.881
97210W        W98074  13.845  23.607   7.746
97211W        W98075  14.175  22.383  10.511
97212W        W98076  13.709  24.651   8.632
97213W        W98077  11.169  23.594  10.658
97214W        W98078  14.170  22.079   7.804
97215W        W98079  13.735  24.451   8.153
97216W        W98080  12.680  23.452   8.184
97217W        W98081  13.702  22.250   7.592
97218W        W98082  13.802  22.991   9.960
97219W        W98083  11.299  23.575   8.873
97220W        W98084  11.808  24.395   8.726
97221W        W98085  13.442  23.072   8.552
97222W        W98086  12.524  22.668   9.310
97223W        W98087  14.586  24.470   9.885
97224W        W98088  14.296  22.572   9.494
97225W        W98089  11.098  25.343   9.047
97226W        W98090  11.455  24.511   8.329
97227W        W98091  11.432  22.259  10.924
97228W        W98092  12.480  24.900  10.824
97229W        W98093  14.473  23.865   8.851
97230W        W98094  13.724  24.119   7.735
97231W        W98095  13.194  25.542   9.739
97232W        W98096  13.743  24.286  10.889
97233W        W98097  12.691  21.829   8.107
97234W        W98098  13.273  22.762   8.914
97235W        W98099  11.120  24.470   9.346
97236W        W98100  12.296  22.149   8.074
97237W        W98101  12.249  23.879  10.695
97238W        W98102  13.122  22.683   8.416
97239W        W98103  13.252  24.225   9.770
97240W        W98104  11.508  25.094   9.994
97241W        W98105  11.989  24.841  10.696
97242W        W98106  12.141  22.327   7.623
97243W        W98107  13.399  23.031   8.044
97244W        W98108  13.420  24.935  10.294
97245W        W98109  12.222  23.647   9.060
97246W        W98110  11.881  25.353   9.762
97247W        W98111  14.308  25.417   7.383
97248W        W98112  11.370  24.062  10.531
97249W        W98113  13.408  24.190   9.279
97250W        W98114  11.892  24.083   8.308
97251W        W98115  12.288  25.068   9.887
97252W        W98116  12.656  22.182   9.066
97253W        W98117  11.063  24.470   7.947
97254W        W98118  12.696  23.087   7.470
97255W        W98119  11.449  24.017   8.635
97256W        W98120  12.436  22.434  10.099
97257W        W98121  14.383  22.130   7.279
97258W        W98122  14.383  23.889  10.650
97259W        W98123  13.031  25.348  10.716
97260W        W98124  14.548  24.266  10.340
97261W        W98125  14.183  24.882  10.870
97262W        W98126  11.875  25.570   9.307
97263W        W98127  14.514  24.271   8.527
97264W        W98128  13.182  23.426   8.841
97265W        W98129  12.857  21.882   8.624
97266W        W98130  12.051  24.982   8.558
97267W        W98131  12.446  22.879   9.785
97268W        W98132  12.185  22.144   9.280
97269W        W98133  11.214  24.956   7.714
97270W        W98134  12.799  24.235   8.605
97271W        W98135  11.965  25.148  10.277
97272W        W98136  11.349  24.054   8.120
97273W        W98137  11.149  22.668   9.151
97274W        W98138  12.911  24.352   9.188
97275W        W98139  11.073  22.367   8.121
97276W        W98140  13.776  23.510   9.942
97277W        W98141  13.626  22.774   7.583
97278W        W98142  14.199  24.425   9.513
97279W        W98143  12.880  24.853   9.119
97280W        W98144  12.186  25.287   8.163
97281W        W98145  13.443  21.890   7.299
97282W        W98146  11.429  25.336   9.456
97283W        W98147  13.142  22.970  10.744
97284W        W98148  11.372  22.765  10.848
97285W        W98149  11.082  23.245   8.333
97286W        W98150  12.392  23.154   7.888
97287W        W98151  13.485  23.368  10.768
97288W        W98152  12.103  23.894   9.489
97289W        W98153  13.412  21.904   8.687
97290W        W98154  12.666  25.350   9.051
97291W        W98155  13.760  24.882   9.905
97292W        W98156  13.605  24.932   9.054
97293W        W98157  13.552  24.163   8.769
97294W        W98158  12.667  22.196   7.693
97295W        W98159  14.441  22.040   8.690
97296W        W98160  12.185  23.271   7.418
97297W        W98161  14.264  22.868   8.609
97298W        W98162  13.012  23.899   7.629
97299W        W98163  14.044  24.256  10.467
97300W        W98164  13.469  25.176   7.424
97301W        W98165  12.269  22.660  10.700
97302W        W98166  12.243  23.357   9.822
97303W        W98167  14.264  24.726  10.382
97304W        W98168  13.283  22.589  10.383
97305W        W98169  11.109  23.289  10.171
97306W        W98170  12.944  23.675   9.907
97307W        W98171  11.299  24.466   8.831
97308W        W98172  11.387  23.584   9.390
97309W        W98173  13.723  24.023   9.979
97310W        W98174  13.549  25.383  10.528
97311W        W98175  13.387  23.078  10.297
97312W        W98176  13.818  25.187   8.652
97313W        W98177  12.744  24.913  10.033
97314W        W98178  12.173  25.084   9.374
97315W        W98179  14.059  24.474  10.001
97316W        W98180  12.838  24.529  10.926
97317W        W98181  11.621  24.398   9.209
97318W        W98182  14.014  24.232   8.569
97319W        W98183  13.576  25.187   9.518
97320W        W98184  11.712  24.915   9.532
97321W        W98185  12.647  23.003  10.613
97322W        W98186  12.879  25.071   8.164
97323W        W98187  12.332  24.401  10.757
97324W        W98188  12.429  24.816   8.234
97325W        W98189  11.768  22.983   7.234
97326W        W98190  11.071  25.601  14.316
97327W        W98191  11.474  24.514  13.878
97328W        W98192  14.121  24.194  11.656
97329W        W98193  14.434  25.458  13.532
97330W        W98194  12.072  25.236  11.019
97331W        W98195  12.231  23.383  12.021
97332W        W98196  11.888  23.370  12.436
97333W        W98197  12.743  23.906  11.730
97334W        W98198  12.375  25.199  13.824
97335W        W98199  10.980  22.662  13.921
97336W        W98200  11.656  22.080  13.738
97337W        W98201  13.474  22.405  12.569
97338W        W98202  13.060  23.001  11.367
97339W        W98203  13.685  22.613  14.196
97340W        W98204  11.107  22.305  13.495
97341W        W98205  11.171  25.054  14.466
97342W        W98206  12.427  24.582  11.265
97343W        W98207  11.120  23.055  12.929
97344W        W98208  12.184  23.239  14.084
97345W        W98209  14.313  22.727  12.739
97346W        W98210  14.242  23.965  13.367
97347W        W98211  12.724  23.200  12.488
97348W        W98212  13.113  24.795  12.831
97349W        W98213  11.499  24.020  13.131
97350W        W98214  10.840  23.504  12.945
97351W        W98215  12.112  23.634  13.727
97352W        W98216  14.258  23.475  14.163
97353W        W98217  11.872  24.851  12.610
97354W        W98218  12.988  24.525  13.562
97355W        W98219  12.331  23.205  12.839
97356W        W98220  12.579  24.052  12.495
97357W        W98221  13.277  24.772  14.266
97358W        W98222  12.777  23.945  14.270
97359W        W98223  12.596  23.799  13.801
97360W        W98224  10.542  22.876  14.133
97361W        W98225  13.828  24.804  13.830
97362W        W98226  11.433  22.135  11.995
97363W        W98227  12.025  24.679  13.060
97364W        W98228  14.188  24.402  12.537
97365W        W98229  13.798  22.748  12.848
97366W        W98230  14.124  22.708  10.905
97367W        W98231  14.388  23.308  13.463
97368W        W98232  14.373  24.662  11.710
97369W        W98233  11.423  25.496  11.650
97370W        W98234  11.795  25.425  12.017
97371W        W98235  11.730  22.276  13.271
97372W        W98236  14.118  22.864  13.704
97373W        W98237  13.637  23.562  12.165
97374W        W98238  13.464  23.339  11.317
97375W        W98239  12.825  24.444  13.059
97376W        W98240  12.654  22.675  12.357
97377W        W98241  13.152  24.939  13.313
97378W        W98242  14.026  23.728  11.862
97379W        W98243  12.646  22.343  11.949
97380W        W98244  11.622  25.018  11.742
97381W        W98245  11.047  22.443  12.164
97382W        W98246  13.728  23.158  12.517
97383W        W98247  11.365  24.770  12.723
97384W        W98248  12.475  25.101  11.318
97385W        W98249  13.965  23.189  10.907
97386W        W98250  11.159  24.882  13.185
97387W        W98251  11.896  24.506  13.561
97388W        W98252  12.358  23.899  12.061
97389W        W98253  12.255  22.304  13.232
97390W        W98254  14.501  22.022  12.743
97391W        W98255  11.805  24.071  10.843
97392W        W98256  11.461  22.865  11.345
97393W        W98257  11.516  24.826  12.224
97394W        W98258  12.377  24.425  12.153
97395W        W98259  13.972  25.296  13.687
97396W        W98260  12.623  22.766  11.535
97397W        W98261  14.129  25.363  12.457
97398W        W98262  13.853  23.230  13.945
97399W        W98263  14.442  24.763  12.247
97400W        W98264  13.217  24.038  13.502
97401W        W98265  11.206  23.445  12.060
97402W        W98266  12.000  24.140  13.198
97403W        W98267  13.229  23.290  11.785
97404W        W98268  13.188  23.768  11.969
97405W        W98269  11.487  23.118  13.331
97406W        W98270  11.334  23.039  13.825
97407W        W98271  11.286  22.074  12.510
97408W        W98272  12.958  22.411  12.752
97409W        W98273  12.796  22.461  14.125
97410W        W98274  13.271  22.461  11.390
97411W        W98275  14.626  25.217  14.007
97412W        W98276  13.265  22.006  14.055
97413W        W98277  14.173  24.575  14.135
97414W        W98278  13.752  22.502  13.713
97415W        W98279  13.479  22.485  12.048
97416W        W98280  13.761  23.606  14.276
97417W        W98281  11.545  25.249  12.533
97418W        W98282  12.304  23.152  11.583
97419W        W98283  11.812  22.315  14.158
97420W        W98284  13.981  22.841  11.869
97421W        W98285  14.270  23.272  11.672
97422W        W98286  12.090  25.429  14.231
97423W        W98287  11.830  21.971  11.617
97424W        W98288  14.363  22.365  12.376
97425W        W98289  14.585  24.809  11.179
97426W        W98290  11.130  23.888  12.762
97427W        W98291  13.252  22.502  10.875
97428W        W98292  14.420  25.025  12.710
97429W        W98293  14.432  21.919  13.360
97430W        W98294  13.014  23.235  13.782
97431W        W98295  12.762  24.439  11.759
97432W        W98296  13.299  23.863  14.348
97433W        W98297  13.066  21.928  12.636
97434W        W98298  11.556  22.910  12.657
97435W        W98299  11.239  24.275  13.499
97436W        W98300  13.190  25.154  12.080
97437W        W98301  14.160  22.811  13.215
97438W        W98302  12.951  25.250  13.699
97439W        W98303  14.127  24.005  11.124
97440W        W98304  12.744  23.554  12.112
97441W        W98305  14.347  21.876  13.862
97442W        W98306  12.718  24.102  13.424
97443W        W98307  12.792  22.873  12.870
97444W        W98308  13.755  23.292  11.745
97445W        W98309  13.928  22.973  11.372
97446W        W98310  14.082  25.000  11.966
97447W        W98311  13.657  24.436  12.443
97448W        W98312  13.572  23.760  11.625
97449W        W98313  13.005  23.766  12.526
97450W        W98314  14.000  23.597  12.570
97451W        W98315  11.418  22.663  13.113
97452W        W98316  14.012  23.677  13.740
97453W        W98317  14.336  25.476  12.952
97454W        W98318  12.370  24.899  12.477
97455W        W98319  13.480  25.336  13.547
97456W        W98320  13.216  22.585  13.411
97457W        W98321  12.581  25.506  13.447
97458W        W98322  14.232  22.335  11.877
97459W        W98323  13.858  23.625  13.060
97460W        W98324  11.058  22.816  13.439
97461W        W98325  13.871  22.677  12.350
97462W        W98326  14.139  22.869  14.203
97463W        W98327  13.186  24.663  12.324
97464W        W98328  12.473  25.238  12.122
97465W        W98329  11.530  22.337  11.426
97466W        W98330  12.654  22.023  12.981
97467W        W98331  11.595  25.431  11.183
97468W        W98332  12.261  23.695  11.583
97469W        W98333  12.682  24.297  13.898
97470W        W98334  12.280  22.718  11.931
97471W        W98335  13.870  22.181  12.222
97472W        W98336  13.647  25.515  12.630
97473W        W98337  12.887  25.248  13.002
97474W        W98338  12.461  24.085  12.982
97475W        W98339  14.189  25.074  13.277
97476W        W98340  11.867  22.394  11.938
97477W        W98341  12.536  24.850  12.951
97478W        W98342  11.818  22.609  11.036
97479W        W98343  12.689  23.227  13.211
97480W        W98344  13.338  22.198  13.029
97481W        W98345  11.020  23.848  13.309
97482W        W98346  12.631  23.695  11.213
97483W        W98347  11.957  22.137  11.135
97484W        W98348  12.671  23.052  11.988
97485W        W98349  13.449  22.138  13.528
97486W        W98350  12.237  24.130  13.666
97487W        W98351  13.087  23.747  13.901
97488W        W98352  13.580  23.937  13.910
97489W        W98353  12.808  22.149  14.544
97490W        W98354  12.032  22.787  12.814
97491W        W98355  11.542  22.534  12.308
97492W        W98356  11.269  25.259  12.086
97493W        W98357  12.825  24.820  13.969
97494W        W98358  11.840  24.110  11.447
97495W        W98359  13.486  23.592  12.673
97496W        W98360  13.578  23.197  12.998
97497W        W98361  13.011  23.958  13.023
97498W        W98362  13.227  24.195  11.074
97499W        W98363  13.044  22.339  12.266
97500W        W98364  14.487  22.786  11.730
97501W        W98365  11.229  25.530  13.824
97502W        W98366  11.552  24.546  13.193
97503W        W98367  10.924  25.395  11.709
97504W        W98368  12.763  22.447  13.230
97505W        W98369  12.001  24.904  11.405
97506W        W98370  14.142  25.024  11.389
97507W        W98371  13.113  23.732  11.400
97508W        W98372  11.807  22.929  12.068
97509W        W98373  12.794  22.689  11.034
97510W        W98374  13.181  24.264  14.002
97511W        W98375  13.771  22.433  11.639
97512W        W98376  11.067  21.988  11.212
97513W        W98377  12.395  24.483  13.326
97514W        W98378  12.246  24.438  12.670
97515W        W98379  11.943  24.500  11.093
97516W        W98380  11.141  24.821  11.839
97517W        W98381  11.694  23.669  14.017
97518W        W98382  12.318  22.142  14.360
97519W        W98383  12.953  22.177  13.662
97520W        W98384  12.219  22.011  12.077
97521W        W98385  13.130  22.152  11.794
97522W        W98386  11.283  22.177  13.031
97523W        W98387  11.206  22.943  12.263
97524W        W98388  13.991  22.295  12.711
97525W        W98389  11.405  22.654  11.824
97526W        W98390  13.820  22.345  13.210
97527W        W98391  14.378  23.506  11.034
97528W        W98392  11.699  22.397  12.769
97529W        W98393  12.777  22.842  13.557
97530W        W98394  11.067  22.510  11.206
97531W        W98395  11.704  24.033  13.632
97532W        W98396  13.086  23.307  12.847
97533W        W98397  12.886  25.473  11.326
97534W        W98398  11.174  23.763  11.158
97535W        W98399  11.888  24.832  13.997
97536W        W98400  11.393  23.596  13.597
97537W        W98401  12.405  23.701  13.321
97538W        W98402  13.814  22.002  13.873
97539W        W98403  14.547  23.719  13.726
97540W        W98404  14.390  23.763  11.496
97541W        W98405  13.201  24.177  11.635
97542W        W98406  13.805  25.239  10.981
97543W        W98407  12.966  23.532  14.547
97544W        W98408  11.502  24.670  14.365
97545W        W98409  14.552  22.360  14.434
97546W        W98410  14.086  23.192  12.885
97547W        W98411  12.597  25.345  14.269
97548W        W98412  12.440  21.969  11.253
97549W        W98413  14.130  24.512  11.241
97550W        W98414  11.833  22.811  13.975
97551W        W98415  12.331  24.649  13.798
97552W        W98416  14.222  22.338  13.612
97553W        W98417  13.716  25.165  11.643
97554W        W98418  13.544  24.043  12.918
97555W        W98419  12.003  22.440  13.673
97556W        W98420  12.709  23.439  14.131
97557W        W98421  11.906  24.543  11.773
97558W        W98422  13.639  24.195  11.916
97559W        W98423  11.504  22.591  13.642
97560W        W98424  12.741  24.801  12.115
97561W        W98425  14.463  23.350  12.537
97562W        W98426  12.688  21.957  14.053
97563W        W98427  13.626  24.716  12.865
97564W        W98428  13.902  25.156  12.877
97565W        W98429  12.921  25.011  11.083
97566W        W98430  11.018  24.674  14.158
97567W        W98431  11.883  22.794  13.319
97568W        W98432  11.791  22.079  12.377
97569W        W98433  13.294  22.763  12.936
97570W        W98434  12.275  24.072  11.164
97571W        W98435  14.056  24.061  12.886
97572W        W98436  11.407  25.060  14.016
97573W        W98437  14.107  25.522  11.876
97574W        W98438  12.138  22.472  12.382
97575W        W98439  12.048  23.995  12.475
97576W        W98440  14.271  25.608  14.028
97577W        W98441  13.359  23.620  13.184
97578W        W98442  11.283  23.270  11.041
97579W        W98443  14.491  25.198  11.751
97580W        W98444  14.215  22.534  11.384
97581W        W98445  12.187  22.016  13.882
97582W        W98446  13.953  24.867  12.457
97583W        W98447  14.085  23.291  12.157
97584W        W98448  12.249  22.997  12.372
97585W        W98449  12.519  23.314  13.676
97586W        W98450  13.507  24.441  13.630
97587W        W98451  12.251  22.886  13.689
97588W        W98452  12.060  25.315  12.450
97589W        W98453  11.575  25.539  14.208
97590W        W98454  11.616  24.944  11.035
97591W        W98455  14.020  24.503  12.074
97592W        W98456  11.799  23.242  13.709
97593W        W98457  14.413  23.017  11.226
97594W        W98458  12.308  24.229  11.658
97595W        W98459  13.475  23.484  13.665
97596W        W98460  13.195  23.114  13.327
97597W        W98461  11.813  23.636  13.311
97598W        W98462  13.888  25.554  13.232
97599W        W98463  13.685  22.139  14.383
97600W        W98464  11.278  22.264  14.004
97601W        W98465  11.805  23.255  12.942
97602W        W98466  12.177  22.952  11.135
97603W        W98467  11.064  24.760  13.665
97604W        W98468  12.659  23.614  12.878
97605W        W98469  12.349  22.482  11.183
97606W        W98470  11.712  23.443  11.935
97607W        W98471  11.501  25.414  13.401
97608W        W98472  13.948  23.534  11.322
97609W        W98473  14.125  22.321  14.143
97610W        W98474  13.599  24.800  12.062
97611W        W98475  11.196  23.469  14.065
97612W        W98476  14.060  22.048  11.463
97613W        W98477  13.838  24.654  11.629
97614W        W98478  12.759  23.393  11.605
97615W        W98479  13.734  22.411  11.131
97616W        W98480  13.654  22.822  13.334
97617W        W98481  11.385  23.391  12.564
97618W        W98482  11.871  24.451  12.286
97619W        W98483  13.518  22.994  12.100
97620W        W98484  12.455  22.497  12.798
97621W        W98485  14.363  24.482  13.385
97622W        W98486  14.328  22.341  13.103
97623W        W98487  11.021  25.189  12.536
97624W        W98488  11.449  24.371  11.983
97625W        W98489  11.382  22.244  14.527
97626W        W98490  12.389  24.873  14.239
97627W        W98491  14.403  23.913  12.532
97628W        W98492  13.679  24.215  11.388
97629W        W98493  13.092  25.602  13.327
97630W        W98494  13.666  24.400  14.112
97631W        W98495  12.614  21.870  11.725
97632W        W98496  13.146  22.828  12.439
97633W        W98497  11.130  24.364  12.986
97634W        W98498  12.255  22.271  11.627
97635W        W98499  12.254  23.838  14.178
97636W        W98500  13.043  22.697  11.853
97637W        W98501  13.318  24.435  13.162
97638W        W98502  11.555  24.915  13.552
97639W        W98503  11.753  25.110  14.445
97640W        W98504  11.932  22.719  11.538
97641W        W98505  13.490  22.863  11.619
97642W        W98506  13.318  24.891  13.782
97643W        W98507  12.366  23.574  12.468
97644W        W98508  12.022  25.485  13.361
97645W        W98509  14.372  25.338  11.045
97646W        W98510  11.269  23.984  13.932
97647W        W98511  13.166  24.293  12.674
97648W        W98512  11.881  24.042  11.963
97649W        W98513  12.065  24.975  13.474
97650W        W98514  12.590  22.150  12.440
97651W        W98515  10.980  24.203  11.829
97652W        W98516  12.618  23.171  11.147
97653W        W98517  11.567  23.825  12.331
97654W        W98518  12.505  22.409  13.691
97655W        W98519  14.195  22.199  10.994
97656W        W98520  14.060  24.011  14.151
97657W        W98521  13.109  25.279  14.197
97658W        W98522  14.463  24.237  13.853
97659W        W98523  14.122  25.131  14.149
97660W        W98524  11.723  25.542  12.931
97661W        W98525  14.399  24.172  12.098
97662W        W98526  13.194  23.337  12.312
97663W        W98527  12.899  21.837  12.157
97664W        W98528  12.015  24.940  12.095
97665W        W98529  12.389  22.807  13.202
97666W        W98530  12.176  22.076  12.747
97667W        W98531  11.215  25.098  11.377
97668W        W98532  12.961  24.196  12.178
97669W        W98533  11.827  25.299  13.807
97670W        W98534  11.407  23.867  11.828
97671W        W98535  11.164  22.565  12.670
97672W        W98536  12.736  24.545  12.557
97673W        W98537  11.057  22.256  11.658
97674W        W98538  13.882  23.264  13.422
97675W        W98539  13.502  22.882  11.106
97676W        W98540  14.140  24.682  12.951
97677W        W98541  12.889  25.103  12.497
97678W        W98542  12.186  25.289  11.707
97679W        W98543  13.323  22.044  11.035
97680W        W98544  11.251  25.341  12.959
97681W        W98545  13.121  22.895  14.199
97682W        W98546  11.413  22.693  14.238
97683W        W98547  11.321  23.354  11.554
97684W        W98548  11.822  23.241  11.448
97685W        W98549  13.318  23.372  14.160
97686W        W98550  12.111  23.689  12.896
97687W        W98551  13.402  21.972  12.230
97688W        W98552  12.522  25.425  12.634
97689W        W98553  13.685  24.902  13.342
97690W        W98554  13.437  25.062  12.535
97691W        W98555  13.432  23.994  12.357
97692W        W98556  12.781  22.295  11.444
97693W        W98557  14.562  21.966  12.142
97694W        W98558  12.164  23.487  11.091
97695W        W98559  14.333  22.856  12.245
97696W        W98560  12.765  24.186  11.312
97697W        W98561  13.980  24.279  13.713
97698W        W98562  13.702  24.753  11.132
97699W        W98563  12.269  22.585  14.125
97700W        W98564  12.152  23.250  13.325
97701W        W98565  14.325  24.891  13.728
97702W        W98566  13.272  22.494  13.903
97703W        W98567  10.826  23.153  13.801
97704W        W98568  12.915  23.615  13.431
97705W        W98569  11.331  24.298  12.481
97706W        W98570  11.364  23.530  13.057
97707W        W98571  13.707  23.943  13.417
97708W        W98572  13.604  25.212  14.061
97709W        W98573  13.453  22.959  13.789
97710W        W98574  13.722  25.278  12.176
97711W        W98575  12.635  24.927  13.454
97712W        W98576  12.139  25.192  12.940
97713W        W98577  13.837  24.395  13.229
97714W        W98578  12.870  24.456  14.368
97715W        W98579  11.748  24.331  12.775
97716W        W98580  13.944  24.016  12.291
97717W        W98581  13.416  25.269  13.025
97718W        W98582  11.660  25.043  13.060
97719W        W98583  12.630  22.944  14.041
97720W        W98584  12.797  25.123  11.718
97721W        W98585  12.377  24.339  14.299
97722W        W98586  12.374  24.792  11.751
97723W        W98587  11.745  23.117  10.951
97724W        W98588  11.056  25.694  17.970
97725W        W98589  11.496  24.458  17.524
97726W        W98590  13.917  23.485  15.518
97727W        W98591  14.485  25.534  17.398
97728W        W98592  11.852  25.284  14.947
97729W        W98593  12.223  23.438  15.851
97730W        W98594  11.776  23.115  16.107
97731W        W98595  12.944  23.705  15.391
97732W        W98596  12.540  25.290  17.596
97733W        W98597  10.978  22.550  17.566
97734W        W98598  11.667  21.724  17.444
97735W        W98599  13.430  22.348  16.243
97736W        W98600  13.246  22.958  14.694
97737W        W98601  13.691  22.630  17.846
97738W        W98602  11.039  22.275  17.105
97739W        W98603  11.280  25.063  18.117
97740W        W98604  12.471  24.654  14.719
97741W        W98605  11.021  23.021  16.625
97742W        W98606  12.097  23.150  17.828
97743W        W98607  14.217  22.764  16.421
97744W        W98608  14.135  24.028  17.289
97745W        W98609  12.579  23.460  16.261
97746W        W98610  13.221  24.704  16.618
97747W        W98611  11.522  23.946  16.775
97748W        W98612  10.795  23.509  16.616
97749W        W98613  12.170  23.568  17.537
97750W        W98614  14.231  23.128  18.069
97751W        W98615  11.906  24.862  16.384
97752W        W98616  13.054  24.673  17.276
97753W        W98617  12.251  23.078  16.629
97754W        W98618  12.409  23.923  16.401
97755W        W98619  13.248  24.976  18.034
97756W        W98620  12.767  24.093  18.050
97757W        W98621  12.748  23.815  17.600
97758W        W98622  11.008  22.918  17.937
97759W        W98623  13.816  24.921  17.691
97760W        W98624  11.357  22.152  15.689
97761W        W98625  12.098  24.699  16.845
97762W        W98626  14.350  24.475  16.400
97763W        W98627  13.865  22.390  16.535
97764W        W98628  14.151  22.629  14.649
97765W        W98629  14.462  23.395  17.124
97766W        W98630  12.618  25.406  16.809
97767W        W98631  14.347  25.398  15.424
97768W        W98632  11.409  25.455  15.190
97769W        W98633  11.815  25.472  15.750
97770W        W98634  11.593  22.113  17.132
97771W        W98635  14.056  23.103  17.245
97772W        W98636  13.569  23.501  15.951
97773W        W98637  13.444  23.447  14.656
97774W        W98638  12.949  24.388  16.880
97775W        W98639  12.672  22.696  16.022
97776W        W98640  13.316  25.031  17.029
97777W        W98641  14.068  23.669  15.973
97778W        W98642  13.104  22.346  15.416
97779W        W98643  11.697  25.078  15.404
97780W        W98644  11.043  22.516  15.868
97781W        W98645  13.554  23.138  16.352
97782W        W98646  11.389  24.868  16.433
97783W        W98647  12.251  25.145  14.639
97784W        W98648  13.656  23.069  14.392
97785W        W98649  11.191  24.993  16.893
97786W        W98650  11.930  24.742  17.338
97787W        W98651  12.104  23.928  16.000
97788W        W98652  11.799  22.370  16.755
97789W        W98653  14.429  21.958  16.434
97790W        W98654  11.928  24.308  14.044
97791W        W98655  11.297  22.700  14.755
97792W        W98656  11.396  24.894  15.899
97793W        W98657  12.113  24.464  15.856
97794W        W98658  14.018  25.396  17.627
97795W        W98659  13.049  22.812  15.143
97796W        W98660  14.359  25.355  16.294
97797W        W98661  13.855  23.130  17.713
97798W        W98662  14.507  24.887  16.121
97799W        W98663  13.205  24.198  17.304
97800W        W98664  10.998  23.552  15.730
97801W        W98665  11.877  24.229  17.053
97802W        W98666  13.153  23.312  15.635
97803W        W98667  13.194  23.832  15.832
97804W        W98668  11.406  23.069  17.032
97805W        W98669  11.307  22.983  17.521
97806W        W98670  11.298  21.997  16.186
97807W        W98671  12.938  22.459  16.437
97808W        W98672  12.751  22.456  17.772
97809W        W98673  13.196  22.386  14.899
97810W        W98674  14.608  25.275  17.858
97811W        W98675  13.115  22.027  17.758
97812W        W98676  14.132  24.538  17.859
97813W        W98677  13.764  22.592  17.348
97814W        W98678  13.482  22.493  15.740
97815W        W98679  13.898  23.528  18.070
97816W        W98680  11.630  25.272  16.195
97817W        W98681  12.536  22.767  15.096
97818W        W98682  11.743  22.204  17.640
97819W        W98683  13.890  22.763  15.566
97820W        W98684  14.251  23.110  15.475
97821W        W98685  11.762  25.312  18.051
97822W        W98686  11.834  21.988  15.141
97823W        W98687  14.207  22.317  16.151
97824W        W98688  14.501  24.944  14.445
97825W        W98689  11.107  23.897  16.496
97826W        W98690  13.245  22.429  14.405
97827W        W98691  14.515  24.962  16.605
97828W        W98692  14.303  21.933  17.037
97829W        W98693  13.011  23.269  17.614
97830W        W98694  12.834  24.173  15.585
97831W        W98695  13.447  23.783  18.165
97832W        W98696  13.055  21.986  16.270
97833W        W98697  11.534  22.986  16.540
97834W        W98698  11.419  24.037  17.252
97835W        W98699  13.133  25.390  16.179
97836W        W98700  14.049  22.704  16.920
97837W        W98701  13.057  25.409  17.495
97838W        W98702  13.922  24.335  14.546
97839W        W98703  12.662  23.730  15.828
97840W        W98704  14.466  21.994  17.539
97841W        W98705  12.701  24.122  17.211
97842W        W98706  12.758  23.015  16.411
97843W        W98707  13.550  23.110  15.337
97844W        W98708  13.962  22.943  15.066
97845W        W98709  14.124  25.145  15.884
97846W        W98710  13.854  24.401  16.541
97847W        W98711  13.452  23.618  15.372
97848W        W98712  12.901  23.864  16.255
97849W        W98713  13.860  23.552  16.412
97850W        W98714  11.330  22.607  16.814
97851W        W98715  14.095  23.548  17.526
97852W        W98716  14.593  25.449  16.748
97853W        W98717  12.383  24.802  16.207
97854W        W98718  13.557  25.406  17.286
97855W        W98719  13.289  22.565  17.095
97856W        W98720  12.670  25.633  17.258
97857W        W98721  14.124  22.313  15.640
97858W        W98722  13.984  23.601  17.023
97859W        W98723  10.962  22.798  17.116
97860W        W98724  13.818  22.672  16.090
97861W        W98725  14.193  22.766  17.628
97862W        W98726  13.036  24.334  16.042
97863W        W98727  12.411  25.118  15.789
97864W        W98728  11.379  22.263  15.060
97865W        W98729  12.659  22.046  16.628
97866W        W98730  11.424  25.421  14.689
97867W        W98731  12.423  23.590  15.399
97868W        W98732  12.750  24.406  17.626
97869W        W98733  12.620  22.366  15.609
97870W        W98734  13.788  22.108  15.956
97871W        W98735  13.944  25.751  16.679
97872W        W98736  13.040  25.181  16.628
97873W        W98737  12.366  24.256  16.829
97874W        W98738  14.395  25.127  17.089
97875W        W98739  11.798  22.342  15.515
97876W        W98740  12.621  24.876  16.681
97877W        W98741  11.890  22.698  14.488
97878W        W98742  12.709  23.105  16.917
97879W        W98743  13.428  22.100  16.700
97880W        W98744  11.026  23.816  17.005
97881W        W98745  12.697  23.613  14.964
97882W        W98746  11.882  22.099  14.626
97883W        W98747  12.699  23.191  15.849
97884W        W98748  13.475  22.121  17.373
97885W        W98749  12.258  24.325  17.380
97886W        W98750  13.213  24.035  17.777
97887W        W98751  13.662  23.779  17.696
97888W        W98752  12.798  22.116  18.156
97889W        W98753  11.951  22.710  16.393
97890W        W98754  11.582  22.648  15.882
97891W        W98755  11.322  25.335  15.677
97892W        W98756  12.871  24.921  17.678
97893W        W98757  12.512  24.487  15.238
97894W        W98758  13.358  23.679  16.407
97895W        W98759  13.535  23.433  16.813
97896W        W98760  12.773  23.937  16.740
97897W        W98761  13.367  24.331  14.532
97898W        W98762  13.027  22.360  15.926
97899W        W98763  14.415  22.644  15.394
97900W        W98764  10.979  25.608  17.455
97901W        W98765  11.537  24.624  17.030
97902W        W98766  10.921  25.437  15.360
97903W        W98767  12.779  22.556  16.917
97904W        W98768  12.017  24.805  14.974
97905W        W98769  14.058  25.165  14.668
97906W        W98770  13.157  23.329  15.069
97907W        W98771  12.411  22.846  15.597
97908W        W98772  12.815  22.650  14.634
97909W        W98773  13.255  24.541  17.728
97910W        W98774  13.689  22.138  15.427
97911W        W98775  11.002  21.973  14.879
97912W        W98776  12.560  24.644  17.135
97913W        W98777  12.141  24.359  16.360
97914W        W98778  12.001  24.654  14.478
97915W        W98779  11.209  24.890  15.399
97916W        W98780  11.693  23.545  17.734
97917W        W98781  12.220  22.319  17.751
97918W        W98782  12.958  22.226  17.311
97919W        W98783  12.204  22.053  15.710
97920W        W98784  13.280  21.937  15.169
97921W        W98785  11.308  22.111  16.698
97922W        W98786  11.224  22.925  16.151
97923W        W98787  13.946  21.885  16.613
97924W        W98788  11.307  22.614  15.430
97925W        W98789  13.841  22.190  17.015
97926W        W98790  14.095  23.163  14.622
97927W        W98791  11.504  22.457  16.348
97928W        W98792  12.876  22.799  17.373
97929W        W98793  10.863  22.461  14.927
97930W        W98794  11.859  24.009  17.524
97931W        W98795  12.968  23.454  16.648
97932W        W98796  12.730  25.384  14.768
97933W        W98797  10.980  23.733  14.461
97934W        W98798  11.948  24.459  17.770
97935W        W98799  11.351  23.506  17.323
97936W        W98800  12.286  23.847  17.137
97937W        W98801  13.954  21.896  17.443
97938W        W98802  14.549  23.792  17.467
97939W        W98803  14.302  23.390  15.049
97940W        W98804  13.308  24.101  15.376
97941W        W98805  13.914  25.569  14.390
97942W        W98806  13.006  23.621  17.989
97943W        W98807  11.502  24.520  18.060
97944W        W98808  14.534  22.274  18.037
97945W        W98809  13.992  23.174  16.730
97946W        W98810  12.253  25.506  17.977
97947W        W98811  12.337  21.989  14.881
97948W        W98812  13.778  24.826  14.376
97949W        W98813  11.847  22.723  17.671
97950W        W98814  12.371  24.796  17.598
97951W        W98815  14.239  22.385  17.269
97952W        W98816  13.930  25.641  14.905
97953W        W98817  13.725  23.932  16.709
97954W        W98818  11.978  22.469  17.251
97955W        W98819  12.551  23.423  17.858
97956W        W98820  11.666  24.593  15.576
97957W        W98821  13.706  23.940  15.702
97958W        W98822  11.461  22.561  17.313
97959W        W98823  12.603  24.636  15.749
97960W        W98824  14.292  23.284  16.337
97961W        W98825  12.608  21.978  17.664
97962W        W98826  13.701  24.829  16.771
97963W        W98827  14.062  25.214  16.710
97964W        W98828  12.836  24.952  14.497
97965W        W98829  11.110  24.759  17.734
97966W        W98830  11.858  22.861  16.925
97967W        W98831  11.780  22.178  16.020
97968W        W98832  13.177  22.928  16.697
97969W        W98833  12.765  24.109  14.761
97970W        W98834  14.217  24.166  16.812
97971W        W98835  11.624  24.905  17.757
97972W        W98836  14.250  25.666  15.880
97973W        W98837  12.180  22.518  15.953
97974W        W98838  11.688  24.026  16.298
97975W        W98839  12.166  25.595  16.998
97976W        W98840  14.358  25.722  17.854
97977W        W98841  13.237  23.846  16.908
97978W        W98842  11.022  23.033  14.287
97979W        W98843  14.628  25.298  15.844
97980W        W98844  14.017  22.446  15.139
97981W        W98845  12.107  21.969  17.280
97982W        W98846  14.014  24.868  16.334
97983W        W98847  13.970  23.165  15.947
97984W        W98848  12.292  23.013  16.129
97985W        W98849  12.557  23.214  17.399
97986W        W98850  13.577  24.639  17.288
97987W        W98851  12.344  22.796  17.062
97988W        W98852  12.132  25.325  16.162
97989W        W98853  11.374  25.369  17.696
97990W        W98854  11.499  24.925  14.880
97991W        W98855  13.978  24.392  16.042
97992W        W98856  11.778  23.164  17.390
97993W        W98857  14.477  22.907  14.928
97994W        W98858  12.323  24.088  15.553
97995W        W98859  13.216  23.686  17.408
97996W        W98860  13.163  23.240  17.121
97997W        W98861  11.800  23.671  17.150
97998W        W98862  14.034  25.516  17.120
97999W        W98863  13.617  22.110  17.885
98000W        W98864  11.266  22.100  17.537
98001W        W98865  11.809  23.362  16.745
98002W        W98866  12.380  22.943  14.503
98003W        W98867  11.004  25.118  17.355
98004W        W98868  12.439  23.542  16.743
98005W        W98869  12.312  22.480  14.734
98006W        W98870  11.679  23.616  15.987
98007W        W98871  10.849  25.417  16.893
98008W        W98872  13.797  23.438  15.006
98009W        W98873  14.081  22.290  17.749
98010W        W98874  13.493  24.545  16.211
98011W        W98875  11.193  23.385  17.805
98012W        W98876  14.082  21.938  15.110
98013W        W98877  13.828  23.920  15.196
98014W        W98878  12.742  23.188  15.333
98015W        W98879  13.660  22.172  14.907
98016W        W98880  13.606  22.967  17.012
98017W        W98881  11.234  23.453  16.228
98018W        W98882  11.669  24.517  16.099
98019W        W98883  13.502  23.000  15.833
98020W        W98884  12.450  22.615  16.480
98021W        W98885  14.599  24.663  17.198
98022W        W98886  14.381  22.361  16.751
98023W        W98887  11.125  25.262  16.134
98024W        W98888  11.203  24.418  15.821
98025W        W98889  11.373  22.172  18.213
98026W        W98890  12.529  25.046  18.043
98027W        W98891  14.547  23.712  16.184
98028W        W98892  13.666  23.909  14.702
98029W        W98893  13.112  25.518  17.007
98030W        W98894  13.793  24.139  18.120
98031W        W98895  12.546  21.903  15.348
98032W        W98896  13.173  22.814  16.162
98033W        W98897  11.142  24.295  16.856
98034W        W98898  12.245  22.336  15.255
98035W        W98899  12.311  24.018  17.782
98036W        W98900  13.021  22.809  15.655
98037W        W98901  13.482  24.344  16.896
98038W        W98902  11.521  25.067  17.295
98039W        W98903  12.056  24.885  18.020
98040W        W98904  11.832  22.487  14.970
98041W        W98905  13.529  22.602  15.227
98042W        W98906  13.350  25.009  17.536
98043W        W98907  12.073  23.504  16.335
98044W        W98908  11.316  25.491  17.091
98045W        W98909  14.455  25.461  14.493
98046W        W98910  11.293  23.892  17.729
98047W        W98911  13.227  24.177  16.495
98048W        W98912  11.678  24.116  15.781
98049W        W98913  12.289  25.105  17.159
98050W        W98914  12.572  22.195  16.119
98051W        W98915  10.907  24.418  15.375
98052W        W98916  12.771  23.129  14.796
98053W        W98917  11.244  23.938  16.013
98054W        W98918  12.483  22.355  17.323
98055W        W98919  14.147  22.119  14.646
98056W        W98920  14.151  23.999  17.789
98057W        W98921  12.933  25.377  17.979
98058W        W98922  14.535  24.319  17.584
98059W        W98923  14.183  25.067  18.041
98060W        W98924  11.814  25.559  16.606
98061W        W98925  14.473  24.187  15.987
98062W        W98926  13.092  23.337  16.146
98063W        W98927  12.828  21.892  15.786
98064W        W98928  11.910  24.957  15.877
98065W        W98929  12.295  22.325  16.866
98066W        W98930  12.143  22.212  16.389
98067W        W98931  11.039  25.142  14.963
98068W        W98932  12.538  24.204  16.008
98069W        W98933  12.024  25.201  17.606
98070W        W98934  11.256  23.996  15.489
98071W        W98935  11.010  22.534  16.396
98072W        W98936  12.692  24.400  16.445
98073W        W98937  10.935  22.250  15.393
98074W        W98938  13.628  23.401  17.331
98075W        W98939  13.646  22.642  14.717
98076W        W98940  14.184  24.686  16.860
98077W        W98941  12.910  24.841  16.225
98078W        W98942  12.149  25.319  15.386
98079W        W98943  13.276  21.951  14.623
98080W        W98944  11.312  25.393  16.587
98081W        W98945  13.249  22.885  17.991
98082W        W98946  11.396  22.543  17.842
98083W        W98947  11.073  23.027  15.682
98084W        W98948  12.322  23.235  15.012
98085W        W98949  13.436  23.350  17.887
98086W        W98950  12.012  23.869  16.700
98087W        W98951  13.331  21.975  15.782
98088W        W98952  12.627  25.283  16.300
98089W        W98953  13.905  25.025  17.198
98090W        W98954  13.490  25.057  16.362
98091W        W98955  13.644  24.031  16.200
98092W        W98956  12.723  22.294  15.052
98093W        W98957  14.465  21.911  15.917
98094W        W98958  12.424  23.469  14.545
98095W        W98959  14.297  22.777  15.904
98096W        W98960  13.196  23.828  14.924
98097W        W98961  13.711  24.285  17.628
98098W        W98962  13.521  25.255  14.563
98099W        W98963  12.356  22.781  17.565
98100W        W98964  12.170  23.295  17.093
98101W        W98965  14.312  24.951  17.557
98102W        W98966  13.248  22.510  17.617
98103W        W98967  10.816  23.110  17.503
98104W        W98968  12.781  23.598  17.130
98105W        W98969  11.260  24.362  16.354
98106W        W98970  11.311  23.473  16.735
98107W        W98971  13.638  23.939  17.216
98108W        W98972  13.515  25.418  17.798
98109W        W98973  13.413  22.966  17.496
98110W        W98974  13.853  25.412  16.278
98111W        W98975  12.810  25.105  17.167
98112W        W98976  12.194  25.184  16.650
98113W        W98977  14.089  24.538  17.342
98114W        W98978  12.878  24.617  18.095
98115W        W98979  11.702  24.431  16.607
98116W        W98980  14.140  23.997  16.349
98117W        W98981  13.566  25.397  16.756
98118W        W98982  11.704  25.085  16.810
98119W        W98983  12.733  22.948  17.885
98120W        W98984  12.472  25.041  15.096
98121W        W98985  12.397  24.486  18.007
98122W        W98986  12.162  24.799  15.464
98123W        W98987  11.618  23.192  14.231
98124W        W98988  11.084  25.593  21.678
98125W        W98989  11.416  24.482  21.266
98126W        W98990  14.268  23.959  19.465
98127W        W98991  14.421  25.563  20.988
98128W        W98992  11.764  25.363  18.673
98129W        W98993  12.577  23.360  19.516
98130W        W98994  11.884  23.191  19.919
98131W        W98995  12.915  23.615  19.194
98132W        W98996  12.487  25.175  21.303
98133W        W98997  10.971  22.663  21.227
98134W        W98998  11.544  21.975  21.041
98135W        W98999  13.505  22.269  19.991
98136W        W99000  13.253  22.821  18.528
98137W        W99001  13.694  22.817  21.541
98138W        W99002  11.097  22.284  20.852
98139W        W99003  11.226  25.105  21.840
98140W        W99004  12.378  24.761  18.452
98141W        W99005  11.040  23.060  20.289
98142W        W99006  12.147  23.190  21.414
98143W        W99007  14.210  22.726  20.073
98144W        W99008  14.358  24.109  20.998
98145W        W99009  12.695  23.376  20.031
98146W        W99010  13.214  24.738  20.338
98147W        W99011  11.532  24.002  20.498
98148W        W99012  10.892  23.544  20.230
98149W        W99013  12.150  23.661  21.227
98150W        W99014  14.219  23.386  21.421
98151W        W99015  11.868  24.861  20.037
98152W        W99016  12.823  24.784  21.125
98153W        W99017  12.269  23.175  20.277
98154W        W99018  12.478  24.064  20.161
98155W        W99019  13.259  24.858  21.803
98156W        W99020  12.646  23.997  21.815
98157W        W99021  12.628  23.894  21.302
98158W        W99022  10.670  22.931  21.582
98159W        W99023  13.713  24.626  21.524
98160W        W99024  11.361  22.090  19.348
98161W        W99025  11.932  24.667  20.580
98162W        W99026  14.457  24.487  20.110
98163W        W99027  13.733  22.672  20.301
98164W        W99028  14.135  22.625  18.128
98165W        W99029  14.587  23.309  20.657
98166W        W99030  12.461  25.396  20.383
98167W        W99031  14.531  24.986  18.839
98168W        W99032  11.361  25.617  18.845
98169W        W99033  11.743  25.511  19.419
98170W        W99034  11.562  22.281  20.631
98171W        W99035  14.130  23.275  20.910
98172W        W99036  13.565  23.475  19.786
98173W        W99037  13.475  23.334  18.424
98174W        W99038  12.773  24.692  20.612
98175W        W99039  12.755  22.540  19.821
98176W        W99040  13.212  24.919  20.817
98177W        W99041  14.067  23.567  19.718
98178W        W99042  13.153  22.171  19.121
98179W        W99043  11.642  25.115  19.109
98180W        W99044  11.028  22.464  19.480
98181W        W99045  13.860  23.092  19.955
98182W        W99046  11.325  24.849  20.038
98183W        W99047  12.151  25.222  18.386
98184W        W99048  13.749  22.994  18.192
98185W        W99049  11.110  24.930  20.530
98186W        W99050  11.849  24.694  21.087
98187W        W99051  12.147  24.106  19.765
98188W        W99052  12.014  22.313  20.418
98189W        W99053  14.509  22.044  20.201
98190W        W99054  11.804  24.040  18.032
98191W        W99055  11.299  22.694  18.332
98192W        W99056  11.493  24.903  19.561
98193W        W99057  12.200  24.648  19.701
98194W        W99058  13.995  25.324  21.174
98195W        W99059  12.966  22.608  18.930
98196W        W99060  14.230  25.363  20.027
98197W        W99061  13.749  23.272  21.248
98198W        W99062  14.626  24.813  19.751
98199W        W99063  13.148  24.101  21.116
98200W        W99064  11.060  23.527  19.392
98201W        W99065  11.850  24.236  20.812
98202W        W99066  12.924  23.088  19.217
98203W        W99067  13.047  23.537  19.695
98204W        W99068  11.328  23.075  20.779
98205W        W99069  11.413  23.076  21.284
98206W        W99070  11.216  22.096  19.837
98207W        W99071  13.018  22.290  20.259
98208W        W99072  12.820  22.549  21.379
98209W        W99073  13.154  22.248  18.587
98210W        W99074  14.425  25.329  21.498
98211W        W99075  13.165  22.161  21.402
98212W        W99076  14.212  24.642  21.738
98213W        W99077  13.787  22.538  21.115
98214W        W99078  13.512  22.359  19.445
98215W        W99079  13.933  23.751  21.680
98216W        W99080  11.622  25.277  19.878
98217W        W99081  12.355  22.670  18.574
98218W        W99082  11.754  22.259  21.409
98219W        W99083  13.845  22.693  19.217
98220W        W99084  14.124  23.080  19.012
98221W        W99085  12.084  25.417  21.713
98222W        W99086  11.784  21.863  18.799
98223W        W99087  14.292  22.311  19.782
98224W        W99088  14.658  24.992  18.313
98225W        W99089  11.198  23.941  20.123
98226W        W99090  13.234  22.391  18.109
98227W        W99091  14.501  24.975  20.260
98228W        W99092  14.395  22.000  20.717
98229W        W99093  12.999  23.510  21.397
98230W        W99094  12.286  24.322  19.315
98231W        W99095  13.534  23.874  21.995
98232W        W99096  13.197  21.842  20.092
98233W        W99097  11.559  23.070  20.310
98234W        W99098  11.327  24.093  20.951
98235W        W99099  13.214  25.121  19.991
98236W        W99100  14.061  22.780  20.744
98237W        W99101  12.984  25.291  21.112
98238W        W99102  13.744  23.750  18.583
98239W        W99103  12.616  23.831  19.729
98240W        W99104  14.550  21.926  21.224
98241W        W99105  12.704  24.308  20.966
98242W        W99106  12.728  22.880  20.204
98243W        W99107  13.398  22.919  19.111
98244W        W99108  13.736  22.898  18.705
98245W        W99109  14.194  24.822  19.410
98246W        W99110  13.939  24.391  20.158
98247W        W99111  13.359  23.378  19.327
98248W        W99112  12.963  23.858  20.106
98249W        W99113  13.952  23.564  20.217
98250W        W99114  11.235  22.651  20.521
98251W        W99115  13.989  23.754  21.157
98252W        W99116  14.523  25.440  20.467
98253W        W99117  12.319  25.097  19.946
98254W        W99118  13.505  25.385  20.964
98255W        W99119  13.341  22.515  20.622
98256W        W99120  12.598  25.637  20.854
98257W        W99121  14.134  22.269  19.260
98258W        W99122  14.197  23.724  20.669
98259W        W99123  10.826  22.888  20.737
98260W        W99124  13.823  22.601  19.764
98261W        W99125  14.136  22.887  21.266
98262W        W99126  13.141  24.579  19.842
98263W        W99127  12.435  25.345  19.506
98264W        W99128  11.407  22.217  18.725
98265W        W99129  12.701  21.871  20.290
98266W        W99130  11.388  25.504  18.340
98267W        W99131  12.231  23.767  19.394
98268W        W99132  12.634  24.384  21.463
98269W        W99133  12.701  22.261  19.359
98270W        W99134  13.876  22.060  19.653
98271W        W99135  13.694  25.388  20.052
98272W        W99136  12.937  25.179  20.425
98273W        W99137  12.368  24.353  20.580
98274W        W99138  14.289  25.098  20.781
98275W        W99139  11.809  22.235  19.146
98276W        W99140  12.343  24.886  20.408
98277W        W99141  11.834  22.437  18.109
98278W        W99142  12.648  23.156  20.636
98279W        W99143  13.511  22.051  20.461
98280W        W99144  11.020  23.894  20.604
98281W        W99145  12.602  23.652  18.310
98282W        W99146  11.890  21.943  18.263
98283W        W99147  12.916  23.018  19.722
98284W        W99148  13.475  22.163  20.973
98285W        W99149  12.218  24.281  21.159
98286W        W99150  13.102  24.004  21.612
98287W        W99151  13.576  24.096  21.458
98288W        W99152  12.772  22.236  21.788
98289W        W99153  12.067  22.713  20.094
98290W        W99154  11.505  22.507  19.653
98291W        W99155  11.248  25.395  19.299
98292W        W99156  12.767  24.871  21.618
98293W        W99157  11.535  24.673  18.863
98294W        W99158  13.442  23.683  20.229
98295W        W99159  13.612  23.188  20.404
98296W        W99160  12.803  24.012  20.568
98297W        W99161  13.271  24.285  18.209
98298W        W99162  13.090  22.185  19.705
98299W        W99163  14.396  22.638  19.034
98300W        W99164  11.240  25.423  21.216
98301W        W99165  11.437  24.592  20.754
98302W        W99166  10.892  25.408  18.920
98303W        W99167  12.803  22.600  20.628
98304W        W99168  12.011  24.928  18.799
98305W        W99169  14.243  25.402  18.764
98306W        W99170  13.171  23.283  18.822
98307W        W99171  12.571  22.752  19.370
98308W        W99172  12.808  22.638  18.295
98309W        W99173  13.140  24.509  21.438
98310W        W99174  13.677  22.048  19.077
98311W        W99175  10.989  21.927  18.564
98312W        W99176  12.340  24.722  20.932
98313W        W99177  12.086  24.417  20.158
98314W        W99178  11.957  24.477  18.316
98315W        W99179  11.168  24.910  19.167
98316W        W99180  11.689  23.509  21.400
98317W        W99181  12.244  22.198  21.574
98318W        W99182  12.965  22.227  20.933
98319W        W99183  12.232  22.000  19.389
98320W        W99184  13.281  21.775  18.806
98321W        W99185  11.165  22.146  20.345
98322W        W99186  11.377  22.974  19.848
98323W        W99187  13.995  22.212  20.178
98324W        W99188  11.362  22.559  19.110
98325W        W99189  13.904  22.297  20.670
98326W        W99190  14.004  23.305  18.527
98327W        W99191  11.587  22.551  20.171
98328W        W99192  12.881  22.934  21.028
98329W        W99193  10.913  22.428  18.591
98330W        W99194  11.751  24.008  21.253
98331W        W99195  13.001  23.489  20.452
98332W        W99196  12.605  25.477  18.359
98333W        W99197  11.041  23.708  18.175
98334W        W99198  11.867  24.428  21.531
98335W        W99199  11.355  23.548  20.998
98336W        W99200  12.370  23.900  20.838
98337W        W99201  13.971  21.973  21.062
98338W        W99202  14.511  23.625  21.065
98339W        W99203  14.076  23.579  19.167
98340W        W99204  12.924  24.101  19.426
98341W        W99205  13.952  25.600  18.121
98342W        W99206  13.049  23.592  21.902
98343W        W99207  11.447  24.626  21.787
98344W        W99208  14.568  22.274  21.664
98345W        W99209  14.151  23.142  20.409
98346W        W99210  12.576  25.324  21.810
98347W        W99211  12.269  21.928  18.647
98348W        W99212  13.641  24.628  18.061
98349W        W99213  11.861  22.775  21.291
98350W        W99214  12.261  24.741  21.448
98351W        W99215  14.272  22.400  21.028
98352W        W99216  13.885  25.749  18.620
98353W        W99217  13.806  24.001  20.454
98354W        W99218  11.955  22.401  20.947
98355W        W99219  12.534  23.515  21.656
98356W        W99220  11.852  24.647  19.284
98357W        W99221  13.682  23.798  19.412
98358W        W99222  11.456  22.608  21.025
98359W        W99223  12.663  24.881  19.603
98360W        W99224  14.366  23.223  19.957
98361W        W99225  12.662  22.040  21.322
98362W        W99226  13.654  24.535  20.564
98363W        W99227  13.970  25.104  20.379
98364W        W99228  12.872  25.036  18.415
98365W        W99229  11.008  24.665  21.517
98366W        W99230  11.788  22.771  20.644
98367W        W99231  11.782  22.075  19.648
98368W        W99232  13.140  22.976  20.516
98369W        W99233  12.281  24.070  18.294
98370W        W99234  14.363  24.179  20.496
98371W        W99235  11.473  24.977  21.411
98372W        W99236  14.192  25.617  19.239
98373W        W99237  12.275  22.418  19.696
98374W        W99238  11.707  24.013  20.020
98375W        W99239  12.107  25.635  20.722
98376W        W99240  14.074  25.680  21.571
98377W        W99241  13.300  23.868  20.674
98378W        W99242  11.167  23.221  18.312
98379W        W99243  14.455  25.245  19.509
98380W        W99244  13.984  22.448  18.765
98381W        W99245  12.170  21.968  21.105
98382W        W99246  14.128  24.860  19.932
98383W        W99247  13.847  23.184  19.432
98384W        W99248  12.404  22.971  19.813
98385W        W99249  12.563  23.355  21.142
98386W        W99250  13.487  24.549  21.061
98387W        W99251  12.302  22.923  21.007
98388W        W99252  12.074  25.540  19.825
98389W        W99253  11.588  25.457  21.598
98390W        W99254  11.689  24.923  18.395
98391W        W99255  14.160  24.400  19.704
98392W        W99256  11.802  23.198  20.983
98393W        W99257  14.245  22.854  18.561
98394W        W99258  12.036  24.422  18.847
98395W        W99259  13.444  23.691  21.164
98396W        W99260  13.254  23.328  20.867
98397W        W99261  11.812  23.713  20.827
98398W        W99262  13.989  25.516  20.685
98399W        W99263  13.676  22.170  21.453
98400W        W99264  11.223  22.224  21.342
98401W        W99265  11.857  23.499  20.343
98402W        W99266  12.291  22.718  18.062
98403W        W99267  11.093  24.943  21.052
98404W        W99268  12.498  23.627  20.423
98405W        W99269  12.314  22.248  18.252
98406W        W99270  11.797  23.656  19.672
98407W        W99271  11.147  25.415  20.716
98408W        W99272  13.679  23.346  18.933
98409W        W99273  14.105  22.436  21.519
98410W        W99274  13.629  24.415  19.747
98411W        W99275  11.166  23.499  21.479
98412W        W99276  14.181  21.989  18.800
98413W        W99277  13.882  24.269  19.299
98414W        W99278  12.754  23.000  18.693
98415W        W99279  13.645  22.063  18.572
98416W        W99280  13.580  22.937  20.864
98417W        W99281  11.379  23.484  19.960
98418W        W99282  11.721  24.461  19.757
98419W        W99283  13.436  22.961  19.642
98420W        W99284  12.491  22.356  20.215
98421W        W99285  14.533  24.659  20.882
98422W        W99286  14.379  22.456  20.477
98423W        W99287  11.084  25.234  19.763
98424W        W99288  11.363  24.437  19.363
98425W        W99289  11.401  22.219  21.838
98426W        W99290  14.262  23.994  20.022
98427W        W99291  13.371  23.756  18.963
98428W        W99292  13.100  25.571  20.701
98429W        W99293  13.886  24.252  21.880
98430W        W99294  12.613  21.881  19.020
98431W        W99295  13.223  22.708  20.043
98432W        W99296  11.053  24.421  20.334
98433W        W99297  12.309  22.337  19.008
98434W        W99298  12.192  24.016  21.587
98435W        W99299  13.084  22.630  19.428
98436W        W99300  13.171  24.370  20.684
98437W        W99301  11.557  25.108  20.928
98438W        W99302  11.878  24.928  21.773
98439W        W99303  11.933  22.330  18.620
98440W        W99304  13.488  22.481  18.880
98441W        W99305  13.364  24.989  21.309
98442W        W99306  12.215  23.625  19.984
98443W        W99307  11.625  25.498  20.596
98444W        W99308  14.435  25.456  18.299
98445W        W99309  11.251  24.016  21.449
98446W        W99310  13.399  24.232  20.208
98447W        W99311  11.788  24.114  19.384
98448W        W99312  12.051  25.133  20.775
98449W        W99313  12.616  21.992  19.788
98450W        W99314  10.996  24.456  19.001
98451W        W99315  12.981  23.210  18.282
98452W        W99316  11.342  23.925  19.627
98453W        W99317  12.472  22.418  21.007
98454W        W99318  14.076  22.151  18.309
98455W        W99319  14.411  23.874  21.506
98456W        W99320  13.057  25.315  21.623
98457W        W99321  14.532  24.438  21.354
98458W        W99322  13.983  25.111  21.661
98459W        W99323  11.670  25.719  20.129
98460W        W99324  14.631  24.196  19.738
98461W        W99325  13.220  23.227  20.070
98462W        W99326  12.960  21.786  19.391
98463W        W99327  11.979  25.084  19.550
98464W        W99328  12.314  22.726  20.544
98465W        W99329  12.146  22.014  20.002
98466W        W99330  11.270  25.117  18.684
98467W        W99331  12.629  24.373  19.774
98468W        W99332  11.950  25.153  21.292
98469W        W99333  11.199  23.977  19.131
98470W        W99334  11.092  22.583  20.010
98471W        W99335  12.888  24.362  20.227
98472W        W99336  10.973  22.196  19.045
98473W        W99337  13.716  23.560  20.741
98474W        W99338  13.665  22.517  18.355
98475W        W99339  14.174  24.663  20.513
98476W        W99340  12.751  24.837  20.098
98477W        W99341  12.106  25.352  19.094
98478W        W99342  13.272  21.881  18.249
98479W        W99343  11.261  25.345  20.227
98480W        W99344  13.182  23.097  21.812
98481W        W99345  11.420  22.645  21.549
98482W        W99346  11.151  22.980  19.378
98483W        W99347  12.458  23.145  18.284
98484W        W99348  13.475  23.498  21.632
98485W        W99349  12.054  23.960  20.419
98486W        W99350  13.430  21.821  19.611
98487W        W99351  12.748  25.380  19.948
98488W        W99352  13.776  24.958  20.851
98489W        W99353  13.643  24.822  20.092
98490W        W99354  13.307  23.981  19.748
98491W        W99355  12.660  22.267  18.649
98492W        W99356  14.468  21.940  19.476
98493W        W99357  12.120  23.619  18.060
98494W        W99358  14.251  22.779  19.538
98495W        W99359  13.085  23.686  18.511
98496W        W99360  14.057  24.233  21.399
98497W        W99361  13.702  25.152  18.192
98498W        W99362  12.338  22.692  21.477
98499W        W99363  12.208  23.392  20.761
98500W        W99364  14.238  24.873  21.263
98501W        W99365  13.277  22.604  21.144
98502W        W99366  10.928  23.171  21.165
98503W        W99367  12.885  23.675  20.923
98504W        W99368  11.228  24.369  19.857
98505W        W99369  11.362  23.519  20.475
98506W        W99370  13.682  24.099  20.939
98507W        W99371  13.592  25.429  21.487
98508W        W99372  13.283  23.081  21.320
98509W        W99373  13.946  25.249  19.610
98510W        W99374  12.595  25.136  20.803
98511W        W99375  11.976  25.312  20.278
98512W        W99376  14.012  24.506  20.970
98513W        W99377  12.886  24.452  21.905
98514W        W99378  11.574  24.463  20.263
98515W        W99379  13.776  23.951  19.919
98516W        W99380  13.462  25.185  20.466
98517W        W99381  11.597  25.010  20.436
98518W        W99382  12.734  23.052  21.527
98519W        W99383  12.481  25.172  18.779
98520W        W99384  12.329  24.434  21.885
98521W        W99385  12.314  24.876  19.216
98522W        W99386  11.555  23.038  17.969
98523W        W99387  11.112  25.650  25.253
98524W        W99388  11.491  24.482  24.886
98525W        W99389  14.299  24.081  22.673
98526W        W99390  14.148  25.404  24.647
98527W        W99391  11.948  25.310  22.200
98528W        W99392  12.403  23.431  22.951
98529W        W99393  11.837  23.118  23.603
98530W        W99394  12.841  23.924  22.648
98531W        W99395  12.542  25.187  25.018
98532W        W99396  11.028  22.645  24.977
98533W        W99397  11.716  21.986  24.833
98534W        W99398  13.581  22.372  23.666
98535W        W99399  13.137  23.053  22.317
98536W        W99400  13.690  22.788  25.205
98537W        W99401  11.112  22.289  24.610
98538W        W99402  11.229  25.180  25.432
98539W        W99403  12.610  24.217  22.273
98540W        W99404  11.033  23.194  23.988
98541W        W99405  12.150  23.238  25.083
98542W        W99406  14.392  22.961  23.733
98543W        W99407  14.380  24.150  24.724
98544W        W99408  12.740  23.141  23.720
98545W        W99409  13.296  24.751  24.006
98546W        W99410  11.578  24.004  24.109
98547W        W99411  10.789  23.674  23.981
98548W        W99412  12.158  23.673  24.816
98549W        W99413  14.288  23.387  25.134
98550W        W99414  11.910  24.869  23.635
98551W        W99415  13.035  24.557  24.589
98552W        W99416  12.245  23.184  23.899
98553W        W99417  12.429  23.998  23.576
98554W        W99418  13.257  24.836  25.399
98555W        W99419  12.731  23.972  25.430
98556W        W99420  12.664  23.816  24.885
98557W        W99421  10.844  22.956  25.331
98558W        W99422  13.737  24.666  25.246
98559W        W99423  11.352  22.169  23.063
98560W        W99424  12.007  24.459  24.124
98561W        W99425  14.440  24.233  23.511
98562W        W99426  13.610  22.806  23.975
98563W        W99427  14.108  22.762  21.909
98564W        W99428  14.623  23.395  24.351
98565W        W99429  12.504  25.312  24.131
98566W        W99430  14.516  24.549  22.703
98567W        W99431  11.584  25.361  22.598
98568W        W99432  11.847  25.487  23.047
98569W        W99433  11.588  22.255  24.413
98570W        W99434  14.204  23.278  24.607
98571W        W99435  13.549  23.624  23.011
98572W        W99436  13.500  23.373  22.139
98573W        W99437  12.834  24.478  24.082
98574W        W99438  12.796  22.757  23.387
98575W        W99439  13.218  25.015  24.431
98576W        W99440  14.036  23.653  22.728
98577W        W99441  13.259  22.367  22.796
98578W        W99442  11.700  24.872  22.727
98579W        W99443  10.992  22.513  23.213
98580W        W99444  13.588  23.268  23.713
98581W        W99445  11.391  24.932  23.730
98582W        W99446  12.428  25.169  22.309
98583W        W99447  13.889  23.228  21.795
98584W        W99448  11.221  25.004  24.252
98585W        W99449  11.942  24.556  24.618
98586W        W99450  12.540  23.917  23.085
98587W        W99451  12.049  22.308  24.205
98588W        W99452  14.534  22.068  23.761
98589W        W99453  11.709  23.954  21.759
98590W        W99454  11.317  22.680  22.059
98591W        W99455  11.544  24.896  23.239
98592W        W99456  12.340  24.425  23.207
98593W        W99457  13.904  24.980  24.855
98594W        W99458  12.908  22.728  22.634
98595W        W99459  14.218  25.412  23.646
98596W        W99460  13.821  23.303  24.956
98597W        W99461  14.577  24.668  23.259
98598W        W99462  13.185  24.056  24.679
98599W        W99463  10.675  23.659  23.208
98600W        W99464  12.005  24.047  24.413
98601W        W99465  13.226  23.265  22.793
98602W        W99466  13.311  24.053  22.804
98603W        W99467  11.307  23.100  24.442
98604W        W99468  11.402  23.080  25.029
98605W        W99469  11.353  22.054  23.563
98606W        W99470  13.095  22.456  23.847
98607W        W99471  12.824  22.523  25.229
98608W        W99472  13.214  22.551  22.208
98609W        W99473  14.469  25.224  25.026
98610W        W99474  13.175  22.112  25.119
98611W        W99475  14.291  24.700  25.044
98612W        W99476  13.763  22.527  24.783
98613W        W99477  13.630  22.601  23.205
98614W        W99478  13.897  23.698  25.327
98615W        W99479  11.637  25.342  23.516
98616W        W99480  12.502  22.855  22.340
98617W        W99481  11.823  22.318  25.200
98618W        W99482  13.934  22.858  22.881
98619W        W99483  14.301  23.221  22.736
98620W        W99484  12.098  25.408  25.254
98621W        W99485  11.907  21.823  22.459
98622W        W99486  14.347  22.490  23.524
98623W        W99487  14.565  24.885  22.106
98624W        W99488  11.095  24.096  23.843
98625W        W99489  13.249  22.594  21.680
98626W        W99490  14.401  24.907  23.708
98627W        W99491  14.368  22.062  24.278
98628W        W99492  12.973  23.355  25.027
98629W        W99493  13.002  24.417  22.561
98630W        W99494  13.222  23.986  25.629
98631W        W99495  13.198  21.993  23.599
98632W        W99496  11.455  22.880  23.866
98633W        W99497  11.427  24.030  24.597
98634W        W99498  12.954  25.106  23.299
98635W        W99499  13.993  23.175  24.120
98636W        W99500  13.036  25.273  24.823
98637W        W99501  14.294  23.954  22.010
98638W        W99502  13.024  23.682  23.062
98639W        W99503  14.479  22.032  24.791
98640W        W99504  12.733  24.147  24.479
98641W        W99505  13.081  22.933  24.036
98642W        W99506  13.714  23.266  22.663
98643W        W99507  14.016  23.087  22.300
98644W        W99508  14.232  24.933  22.904
98645W        W99509  13.619  24.597  23.637
98646W        W99510  13.571  23.740  22.505
98647W        W99511  12.931  23.923  23.513
98648W        W99512  13.766  23.698  23.466
98649W        W99513  11.231  22.633  24.251
98650W        W99514  14.048  23.762  24.825
98651W        W99515  14.293  25.278  24.131
98652W        W99516  12.445  24.881  23.462
98653W        W99517  13.572  25.338  24.678
98654W        W99518  13.342  22.695  24.424
98655W        W99519  12.693  25.551  24.537
98656W        W99520  14.264  22.440  22.993
98657W        W99521  14.211  23.714  24.301
98658W        W99522  10.812  22.916  24.368
98659W        W99523  13.910  22.903  23.523
98660W        W99524  14.138  22.884  24.930
98661W        W99525  13.175  24.633  23.360
98662W        W99526  12.476  25.190  23.053
98663W        W99527  11.409  22.253  22.353
98664W        W99528  12.844  22.064  24.110
98665W        W99529  11.477  25.460  22.099
98666W        W99530  12.332  23.855  22.599
98667W        W99531  12.799  24.295  24.993
98668W        W99532  12.707  22.400  23.016
98669W        W99533  13.975  22.189  23.349
98670W        W99534  13.710  25.526  23.701
98671W        W99535  13.003  25.263  24.014
98672W        W99536  12.411  24.136  24.067
98673W        W99537  14.245  24.759  24.165
98674W        W99538  11.761  22.238  22.750
98675W        W99539  12.390  24.844  23.981
98676W        W99540  11.886  22.572  21.788
98677W        W99541  12.638  23.197  24.232
98678W        W99542  13.397  22.078  24.081
98679W        W99543  10.979  23.976  24.369
98680W        W99544  12.654  23.700  22.222
98681W        W99545  11.887  22.021  21.904
98682W        W99546  12.831  23.185  23.107
98683W        W99547  13.432  22.181  24.609
98684W        W99548  12.320  24.208  24.779
98685W        W99549  13.118  23.851  25.137
98686W        W99550  13.592  23.934  24.958
98687W        W99551  12.855  22.176  25.598
98688W        W99552  12.015  22.662  23.799
98689W        W99553  11.470  22.574  23.423
98690W        W99554  11.348  25.343  23.066
98691W        W99555  12.909  24.805  25.021
98692W        W99556  12.149  24.335  22.433
98693W        W99557  13.354  23.779  23.755
98694W        W99558  13.788  23.641  24.000
98695W        W99559  12.927  23.961  24.038
98696W        W99560  13.387  24.356  21.868
98697W        W99561  13.165  22.413  23.323
98698W        W99562  14.332  22.745  22.570
98699W        W99563  11.275  25.302  24.874
98700W        W99564  11.391  24.505  24.364
98701W        W99565  11.109  25.589  22.678
98702W        W99566  12.778  22.684  24.389
98703W        W99567  12.061  24.812  22.265
98704W        W99568  14.488  25.197  22.518
98705W        W99569  13.109  23.568  22.407
98706W        W99570  12.486  22.862  22.907
98707W        W99571  12.811  22.733  21.927
98708W        W99572  13.296  24.376  25.118
98709W        W99573  13.792  22.345  22.792
98710W        W99574  11.009  21.942  22.238
98711W        W99575  12.428  24.556  24.405
98712W        W99576  12.239  24.468  23.686
98713W        W99577  11.836  24.396  22.036
98714W        W99578  11.170  24.908  22.838
98715W        W99579  11.712  23.535  25.047
98716W        W99580  12.376  22.310  25.434
98717W        W99581  12.924  22.215  24.647
98718W        W99582  12.185  22.163  23.045
98719W        W99583  13.555  22.195  22.348
98720W        W99584  11.173  22.146  24.134
98721W        W99585  11.077  22.953  23.507
98722W        W99586  14.050  22.193  23.876
98723W        W99587  11.233  22.573  22.732
98724W        W99588  13.782  22.405  24.275
98725W        W99589  14.353  23.439  21.903
98726W        W99590  11.589  22.378  23.911
98727W        W99591  12.783  22.885  24.874
98728W        W99592  10.908  22.435  22.270
98729W        W99593  11.833  24.066  24.900
98730W        W99594  13.041  23.452  23.996
98731W        W99595  12.866  25.437  22.232
98732W        W99596  10.940  23.811  21.819
98733W        W99597  11.983  24.517  25.123
98734W        W99598  11.293  23.522  24.737
98735W        W99599  12.428  23.741  24.398
98736W        W99600  13.971  22.070  24.653
98737W        W99601  14.537  23.669  24.760
98738W        W99602  14.438  23.623  22.395
98739W        W99603  13.477  24.279  22.373
98740W        W99604  13.835  25.498  21.981
98741W        W99605  13.011  23.486  25.533
98742W        W99606  11.551  24.523  25.412
98743W        W99607  14.614  22.439  25.373
98744W        W99608  14.113  23.395  23.673
98745W        W99609  12.543  25.401  25.487
98746W        W99610  12.330  22.031  22.223
98747W        W99611  14.268  24.442  22.231
98748W        W99612  11.867  22.807  25.054
98749W        W99613  12.426  24.695  24.900
98750W        W99614  14.243  22.501  24.553
98751W        W99615  14.031  25.421  22.457
98752W        W99616  13.699  24.138  23.914
98753W        W99617  11.971  22.457  24.699
98754W        W99618  12.541  23.509  25.278
98755W        W99619  11.948  24.443  22.887
98756W        W99620  13.815  24.063  22.917
98757W        W99621  11.482  22.653  24.736
98758W        W99622  12.736  24.712  23.053
98759W        W99623  14.511  23.367  23.358
98760W        W99624  12.672  22.039  25.080
98761W        W99625  13.757  24.573  24.181
98762W        W99626  13.895  25.011  23.835
98763W        W99627  12.837  24.922  22.127
98764W        W99628  11.106  24.703  25.211
98765W        W99629  11.752  22.745  24.291
98766W        W99630  11.851  22.228  23.463
98767W        W99631  13.457  23.243  24.215
98768W        W99632  12.198  23.940  22.091
98769W        W99633  14.165  23.913  23.790
98770W        W99634  11.576  24.949  25.125
98771W        W99635  14.292  25.504  22.921
98772W        W99636  12.325  22.545  23.375
98773W        W99637  11.948  24.067  23.759
98774W        W99638  12.119  25.595  24.333
98775W        W99639  14.146  25.602  25.144
98776W        W99640  13.371  23.774  24.269
98777W        W99641  11.140  23.043  21.728
98778W        W99642  14.490  25.180  23.274
98779W        W99643  13.900  22.580  22.345
98780W        W99644  12.228  22.009  24.662
98781W        W99645  14.033  24.793  23.369
98782W        W99646  14.022  23.347  23.154
98783W        W99647  12.356  23.080  23.383
98784W        W99648  12.556  23.335  24.735
98785W        W99649  13.572  24.431  24.686
98786W        W99650  12.263  22.901  24.719
98787W        W99651  12.151  25.321  23.446
98788W        W99652  11.601  25.468  25.232
98789W        W99653  11.567  24.951  22.210
98790W        W99654  14.178  24.398  23.078
98791W        W99655  11.769  23.129  24.673
98792W        W99656  14.516  23.030  22.180
98793W        W99657  12.539  24.315  22.765
98794W        W99658  13.339  23.547  24.735
98795W        W99659  13.051  23.145  24.519
98796W        W99660  11.742  23.619  24.503
98797W        W99661  13.861  25.591  24.263
98798W        W99662  13.699  22.219  25.217
98799W        W99663  11.318  22.220  25.074
98800W        W99664  11.723  23.243  24.132
98801W        W99665  12.291  23.014  21.874
98802W        W99666  11.080  24.837  24.720
98803W        W99667  12.548  23.617  23.915
98804W        W99668  12.354  22.494  21.986
98805W        W99669  12.135  23.570  23.556
98806W        W99670  11.217  25.550  24.426
98807W        W99671  13.956  23.584  22.190
98808W        W99672  14.189  22.389  25.069
98809W        W99673  13.639  24.508  23.111
98810W        W99674  11.103  23.448  25.225
98811W        W99675  14.246  22.234  22.505
98812W        W99676  13.945  24.501  22.637
98813W        W99677  12.731  23.260  22.582
98814W        W99678  13.697  22.416  21.893
98815W        W99679  13.771  22.978  24.542
98816W        W99680  11.075  23.659  23.558
98817W        W99681  11.798  24.445  23.381
98818W        W99682  13.561  23.136  23.192
98819W        W99683  12.587  22.647  23.850
98820W        W99684  14.608  24.524  24.466
98821W        W99685  14.479  22.514  24.048
98822W        W99686  11.094  25.402  23.498
98823W        W99687  11.421  24.463  22.978
98824W        W99688  11.438  22.192  25.575
98825W        W99689  12.692  24.903  25.466
98826W        W99690  14.214  23.845  23.227
98827W        W99691  13.925  24.060  22.352
98828W        W99692  13.187  25.547  24.403
98829W        W99693  13.667  24.163  25.423
98830W        W99694  12.592  21.997  22.700
98831W        W99695  13.295  22.861  23.556
98832W        W99696  11.070  24.594  23.947
98833W        W99697  12.324  22.434  22.612
98834W        W99698  12.269  23.974  25.220
98835W        W99699  13.189  22.824  23.041
98836W        W99700  13.317  24.286  24.244
98837W        W99701  11.594  24.944  24.620
98838W        W99702  12.186  24.923  25.415
98839W        W99703  11.924  22.365  22.274
98840W        W99704  13.490  22.793  22.603
98841W        W99705  13.397  24.871  24.892
98842W        W99706  12.630  23.532  23.413
98843W        W99707  11.671  25.332  24.297
98844W        W99708  14.338  25.364  22.012
98845W        W99709  11.345  23.931  25.092
98846W        W99710  13.211  24.293  23.745
98847W        W99711  12.035  24.005  23.237
98848W        W99712  12.133  25.026  24.408
98849W        W99713  12.737  22.239  23.531
98850W        W99714  10.881  24.381  22.805
98851W        W99715  12.731  23.224  22.047
98852W        W99716  11.492  24.030  23.517
98853W        W99717  12.487  22.444  24.815
98854W        W99718  14.149  22.195  21.997
98855W        W99719  14.372  23.893  25.204
98856W        W99720  13.016  25.288  25.329
98857W        W99721  14.065  25.096  25.316
98858W        W99722  11.754  25.673  23.905
98859W        W99723  14.621  24.154  23.045
98860W        W99724  13.147  23.383  23.470
98861W        W99725  13.013  21.987  23.067
98862W        W99726  12.049  24.896  23.129
98863W        W99727  12.273  22.790  24.232
98864W        W99728  12.282  22.197  23.760
98865W        W99729  11.118  25.180  22.349
98866W        W99730  12.939  24.236  23.097
98867W        W99731  12.035  25.023  24.913
98868W        W99732  10.994  24.101  23.273
98869W        W99733  11.089  22.499  23.757
98870W        W99734  12.736  24.412  23.547
98871W        W99735  10.933  22.164  22.736
98872W        W99736  13.773  23.514  24.488
98873W        W99737  13.587  22.881  22.062
98874W        W99738  14.093  24.482  23.783
98875W        W99739  12.873  24.863  23.740
98876W        W99740  12.093  25.214  22.696
98877W        W99741  13.272  22.109  21.903
98878W        W99742  11.323  25.392  23.938
98879W        W99743  13.255  23.017  25.398
98880W        W99744  11.455  22.661  25.321
98881W        W99745  11.004  22.984  22.990
98882W        W99746  12.280  23.363  22.271
98883W        W99747  13.442  23.469  25.240
98884W        W99748  12.038  23.664  24.061
98885W        W99749  13.516  22.078  23.176
98886W        W99750  12.643  25.350  23.628
98887W        W99751  13.878  25.052  24.359
98888W        W99752  13.377  25.089  23.619
98889W        W99753  13.400  24.059  23.311
98890W        W99754  12.738  22.364  22.309
98891W        W99755  14.526  22.050  23.241
98892W        W99756  12.042  23.532  21.789
98893W        W99757  14.333  22.909  23.208
98894W        W99758  13.072  24.033  22.167
98895W        W99759  13.980  24.257  25.024
98896W        W99760  14.059  24.949  22.175
98897W        W99761  12.356  22.766  25.207
98898W        W99762  12.162  23.300  24.405
98899W        W99763  14.068  24.552  24.598
98900W        W99764  13.238  22.573  24.915
98901W        W99765  10.930  23.131  24.825
98902W        W99766  12.913  23.638  24.466
98903W        W99767  11.266  24.493  23.466
98904W        W99768  11.298  23.585  24.212
98905W        W99769  13.794  24.038  24.438
98906W        W99770  13.565  25.253  25.205
98907W        W99771  13.382  23.055  24.889
98908W        W99772  13.929  25.295  23.243
98909W        W99773  12.687  24.997  24.532
98910W        W99774  12.034  25.248  23.942
98911W        W99775  14.221  24.233  24.213
98912W        W99776  12.940  24.441  25.494
98913W        W99777  11.575  24.448  23.856
98914W        W99778  13.886  24.189  23.432
98915W        W99779  13.504  25.268  24.090
98916W        W99780  11.714  24.865  24.124
98917W        W99781  12.749  23.044  25.375
98918W        W99782  12.789  25.078  22.660
98919W        W99783  12.448  24.442  25.350
98920W        W99784  12.342  24.776  22.708
98921W        W99785  11.725  23.069  21.703
98922W        W99786  11.078  25.613  28.840
98923W        W99787  11.498  24.412  28.520
98924W        W99788  14.087  24.132  26.207
98925W        W99789  14.446  25.163  28.152
98926W        W99790  12.086  25.328  25.761
98927W        W99791  12.291  23.296  26.616
98928W        W99792  11.873  23.083  26.967
98929W        W99793  12.788  23.963  26.386
98930W        W99794  12.503  25.214  28.240
98931W        W99795  11.276  22.693  28.516
98932W        W99796  11.716  21.959  28.279
98933W        W99797  13.585  22.388  27.250
98934W        W99798  13.276  23.165  25.904
98935W        W99799  13.712  22.604  28.801
98936W        W99800  11.302  22.282  28.140
98937W        W99801  11.294  25.162  28.987
98938W        W99802  12.516  24.586  25.850
98939W        W99803  11.058  22.987  27.568
98940W        W99804  12.097  23.263  28.824
98941W        W99805  14.426  22.941  27.356
98942W        W99806  14.267  24.074  28.233
98943W        W99807  12.721  23.306  27.185
98944W        W99808  13.199  24.687  27.602
98945W        W99809  11.648  24.068  27.809
98946W        W99810  10.942  23.638  27.471
98947W        W99811  12.150  23.686  28.511
98948W        W99812  14.327  23.365  28.746
98949W        W99813  11.885  24.794  27.222
98950W        W99814  13.070  24.553  28.138
98951W        W99815  12.335  23.065  27.497
98952W        W99816  12.468  23.920  27.225
98953W        W99817  13.298  24.855   0.006
98954W        W99818  12.589  24.076  28.961
98955W        W99819  12.652  23.821  28.517
98956W        W99820  11.077  22.963  28.985
98957W        W99821  13.733  24.699  28.760
98958W        W99822  11.425  22.124  26.655
98959W        W99823  11.964  24.496  27.759
98960W        W99824  14.380  24.325  27.045
98961W        W99825  13.620  22.694  27.649
98962W        W99826  14.084  22.656  25.515
98963W        W99827  14.640  23.384  27.951
98964W        W99828  12.531  25.279  27.706
98965W        W99829  14.236  24.628  26.204
98966W        W99830  11.406  25.621  26.197
98967W        W99831  11.794  25.504  26.568
98968W        W99832  11.752  22.248  27.864
98969W        W99833  14.281  23.062  28.124
98970W        W99834  13.669  23.623  26.874
98971W        W99835  13.550  23.575  25.728
98972W        W99836  12.748  24.449  27.702
98973W        W99837  12.864  22.812  27.094
98974W        W99838  13.326  24.990  27.992
98975W        W99839  14.080  23.736  26.549
98976W        W99840  13.241  22.401  26.453
98977W        W99841  11.711  25.202  26.133
98978W        W99842  11.091  22.519  26.695
98979W        W99843  13.775  23.145  27.411
98980W        W99844  11.310  24.874  27.279
98981W        W99845  12.533  25.109  25.927
98982W        W99846  13.908  23.181  25.463
98983W        W99847  11.180  24.918  27.817
98984W        W99848  11.912  24.640  28.278
98985W        W99849  12.070  23.930  26.905
98986W        W99850  12.272  22.300  27.795
98987W        W99851  14.569  22.033  27.438
98988W        W99852  11.800  24.055  25.409
98989W        W99853  11.384  22.634  25.842
98990W        W99854  11.558  24.836  26.822
98991W        W99855  12.516  24.181  26.771
98992W        W99856  13.986  25.085  28.498
98993W        W99857  13.016  22.830  26.227
98994W        W99858  14.243  25.386  27.056
98995W        W99859  13.933  23.256  28.434
98996W        W99860  14.558  24.623  26.650
98997W        W99861  13.114  24.047  28.260
98998W        W99862  10.764  23.705  26.579
98999W        W99863  12.049  24.123  28.137
99000W        W99864  13.200  23.299  26.405
99001W        W99865  13.183  23.761  26.658
99002W        W99866  11.514  23.106  27.827
99003W        W99867  11.565  23.028  28.798
99004W        W99868  11.401  21.963  27.178
99005W        W99869  13.100  22.502  27.469
99006W        W99870  12.771  22.415  28.717
99007W        W99871  13.317  22.448  25.952
99008W        W99872  14.473  25.008  28.690
99009W        W99873  13.235  22.100  28.716
99010W        W99874  14.235  24.533  28.830
99011W        W99875  13.865  22.729  28.316
99012W        W99876  13.656  22.582  26.772
99013W        W99877  13.964  23.618   0.040
99014W        W99878  11.661  25.276  27.053
99015W        W99879  12.511  22.902  26.310
99016W        W99880  11.906  22.107  28.761
99017W        W99881  13.990  22.883  26.520
99018W        W99882  14.243  23.282  26.298
99019W        W99883  12.111  25.512  28.999
99020W        W99884  11.941  21.972  26.162
99021W        W99885  14.415  22.427  27.136
99022W        W99886  14.179  24.948  25.790
99023W        W99887  11.373  23.983  27.314
99024W        W99888  13.312  22.502  25.428
99025W        W99889  14.398  24.865  27.122
99026W        W99890  14.339  22.124  27.892
99027W        W99891  12.971  23.113  28.668
99028W        W99892  12.842  24.510  26.301
99029W        W99893  13.463  23.821   0.077
99030W        W99894  13.178  22.038  27.259
99031W        W99895  11.533  22.852  27.320
99032W        W99896  11.320  24.058  28.210
99033W        W99897  13.098  25.226  27.064
99034W        W99898  14.127  22.750  27.730
99035W        W99899  13.022  25.315  28.264
99036W        W99900  14.129  24.015  25.683
99037W        W99901  12.647  23.650  26.799
99038W        W99902  14.487  22.050  28.380
99039W        W99903  12.615  24.115  28.100
99040W        W99904  12.888  22.975  27.577
99041W        W99905  13.746  23.326  26.460
99042W        W99906  13.828  23.171  25.981
99043W        W99907  14.105  24.947  26.587
99044W        W99908  13.580  24.471  27.292
99045W        W99909  13.488  23.691  26.237
99046W        W99910  12.977  23.802  27.167
99047W        W99911  13.984  23.616  27.296
99048W        W99912  11.375  22.599  27.728
99049W        W99913  14.004  23.756  28.544
99050W        W99914  14.479  25.213  27.546
99051W        W99915  12.352  24.942  27.095
99052W        W99916  13.574  25.358  28.274
99053W        W99917  13.341  22.683  28.083
99054W        W99918  12.689  25.676  28.036
99055W        W99919  14.208  22.413  26.547
99056W        W99920  14.154  23.576  28.079
99057W        W99921  11.113  22.893  28.071
99058W        W99922  13.976  22.723  27.177
99059W        W99923  14.280  22.864  28.589
99060W        W99924  13.164  24.673  27.066
99061W        W99925  12.519  25.229  26.701
99062W        W99926  11.491  22.197  26.104
99063W        W99927  12.730  22.132  27.586
99064W        W99928  11.575  25.515  25.732
99065W        W99929  12.297  23.799  26.439
99066W        W99930  12.769  24.366  28.516
99067W        W99931  12.775  22.575  26.633
99068W        W99932  13.980  22.215  26.963
99069W        W99933  13.792  25.537  27.279
99070W        W99934  13.064  25.226  27.609
99071W        W99935  12.312  24.117  27.683
99072W        W99936  14.278  24.798  27.796
99073W        W99937  11.890  22.303  26.537
99074W        W99938  12.358  24.780  27.588
99075W        W99939  11.972  22.664  25.556
99076W        W99940  12.599  23.209  27.932
99077W        W99941  13.460  22.158  27.699
99078W        W99942  11.120  24.029  27.748
99079W        W99943  12.567  23.630  25.793
99080W        W99944  11.943  22.133  25.663
99081W        W99945  12.789  23.128  26.692
99082W        W99946  13.577  22.289  28.379
99083W        W99947  12.283  24.231  28.575
99084W        W99948  13.071  24.009  28.787
99085W        W99949  13.523  23.929  28.560
99086W        W99950  12.908  22.095   0.104
99087W        W99951  12.049  22.677  27.243
99088W        W99952  11.619  22.555  26.903
99089W        W99953  11.311  25.334  26.648
99090W        W99954  12.841  24.887  28.517
99091W        W99955  11.919  24.209  26.499
99092W        W99956  13.441  23.623  27.348
99093W        W99957  13.751  23.547  27.749
99094W        W99958  12.797  23.943  27.647
99095W        W99959  13.388  24.473  25.764
99096W        W99960  13.187  22.449  26.953
99097W        W99961  14.482  22.786  26.318
99098W        W99962  11.267  25.297  28.472
99099W        W99963  11.489  24.532  27.998
99100W        W99964  10.912  25.479  26.346
99101W        W99965  12.832  22.573  27.901
99102W        W99966  12.081  24.866  25.961
99103W        W99967  14.398  25.173  26.196
99104W        W99968  13.043  23.676  26.009
99105W        W99969  12.058  22.797  26.556
99106W        W99970  12.938  22.704  25.718
99107W        W99971  13.325  24.427  28.573
99108W        W99972  13.740  22.341  26.329
99109W        W99973  11.073  21.948  25.912
99110W        W99974  12.390  24.574  28.068
99111W        W99975  12.281  24.415  27.230
99112W        W99976  12.017  24.483  25.637
99113W        W99977  11.341  24.911  26.353
99114W        W99978  11.679  23.533  28.684
99115W        W99979  12.410  22.038  28.921
99116W        W99980  13.053  22.264  28.260
99117W        W99981  12.270  21.971  26.674
99118W        W99982  13.475  21.973  26.102
99119W        W99983  11.300  22.095  27.659
99120W        W99984  11.068  22.901  27.061
99121W        W99985  14.054  22.283  27.476
99122W        W99986  11.503  22.618  26.387
99123W        W99987  13.877  22.356  27.962
99124W        W99988  14.273  23.514  25.647
99125W        W99989  11.678  22.359  27.380
99126W        W99990  12.702  22.808  28.350
99127W        W99991  10.878  22.822  25.838
99128W        W99992  11.815  24.036  28.687
99129W        W99993  12.994  23.479  27.588
99130W        W99994  12.938  25.410  25.854
99131W        W99995  10.737  23.775  25.416
99132W        W99996  11.925  24.537  28.794
99133W        W99997  12.341  23.677  28.046
99134W        W99998  13.968  21.940  28.273
99135W        W99999  14.560  23.679  28.382
99136W        W    0  14.449  23.760  26.133
99137W        W    1  13.247  24.158  26.231
99138W        W    2  13.872  25.484  25.580
99139W        W    3  13.109  23.434   0.076
99140W        W    4  11.503  24.283   0.038
99141W        W    5  14.570  22.441  28.741
99142W        W    6  14.197  23.277  27.666
99143W        W    7  12.511  25.254  28.757
99144W        W    8  12.403  22.083  25.914
99145W        W    9  13.914  24.493  25.760
99146W        W   10  11.776  22.594  28.644
99147W        W   11  12.344  24.774  28.538
99148W        W   12  14.345  22.551  28.179
99149W        W   13  13.875  25.563  26.089
99150W        W   14  13.725  24.038  27.549
99151W        W   15  12.038  22.391  28.251
99152W        W   16  12.600  23.454  28.917
99153W        W   17  11.838  24.722  26.390
99154W        W   18  13.670  24.043  26.554
99155W        W   19  11.634  22.694  28.155
99156W        W   20  12.701  24.689  26.796
99157W        W   21  14.657  23.292  27.036
99158W        W   22  12.762  21.927  28.564
99159W        W   23  13.707  24.759  27.707
99160W        W   24  14.001  25.076  27.429
99161W        W   25  12.990  24.815  25.876
99162W        W   26  11.177  24.652  28.853
99163W        W   27  11.893  22.750  27.718
99164W        W   28  11.867  22.080  26.994
99165W        W   29  13.359  23.154  27.715
99166W        W   30  12.326  24.087  25.737
99167W        W   31  14.248  24.044  27.471
99168W        W   32  11.595  24.897  28.642
99169W        W   33  14.160  25.485  26.538
99170W        W   34  12.293  22.449  26.855
99171W        W   35  11.901  24.095  27.367
99172W        W   36  12.191  25.559  27.989
99173W        W   37  14.244  25.486  28.711
99174W        W   38  13.311  23.814  27.836
99175W        W   39  11.268  23.079  25.572
99176W        W   40  14.555  25.146  26.693
99177W        W   41  14.007  22.672  26.049
99178W        W   42  12.253  21.946  28.438
99179W        W   43  13.888  24.779  27.015
99180W        W   44  14.143  23.329  26.861
99181W        W   45  12.388  22.949  26.979
99182W        W   46  12.522  23.310  28.427
99183W        W   47  13.708  24.718  28.221
99184W        W   48  12.145  22.912  28.412
99185W        W   49  12.156  25.463  27.019
99186W        W   50  11.696  25.378  28.738
99187W        W   51  11.700  25.014  25.620
99188W        W   52  14.049  24.417  26.651
99189W        W   53  11.700  23.174  28.316
99190W        W   54  14.311  23.021  25.820
99191W        W   55  12.379  24.288  26.259
99192W        W   56  13.114  23.574  28.520
99193W        W   57  13.064  23.157  28.147
99194W        W   58  11.772  23.666  28.134
99195W        W   59  14.078  25.527  27.695
99196W        W   60  13.743  22.056  28.822
99197W        W   61  11.418  22.200  28.631
99198W        W   62  11.852  23.228  27.464
99199W        W   63  12.287  23.113  25.591
99200W        W   64  11.174  24.795  28.339
99201W        W   65  12.480  23.551  27.573
99202W        W   66  12.433  22.633  25.850
99203W        W   67  11.730  23.636  27.179
99204W        W   68  11.254  25.452  27.982
99205W        W   69  13.960  23.655  26.045
99206W        W   70  14.096  22.339  28.583
99207W        W   71  13.538  24.486  26.763
99208W        W   72  11.245  23.457  28.943
99209W        W   73  14.158  22.153  26.074
99210W        W   74  13.694  24.472  26.245
99211W        W   75  12.698  23.455  26.312
99212W        W   76  13.768  22.298  25.756
99213W        W   77  13.790  23.086  27.965
99214W        W   78  11.323  23.317  27.274
99215W        W   79  12.185  24.578  26.756
99216W        W   80  13.683  23.088  26.903
99217W        W   81  12.536  22.605  27.462
99218W        W   82  14.586  24.419  28.000
99219W        W   83  14.582  22.515  27.626
99220W        W   84  11.069  25.293  27.091
99221W        W   85  11.424  24.422  26.554
99222W        W   86  11.539  22.054   0.121
99223W        W   87  12.784  24.938   0.052
99224W        W   88  14.361  23.804  27.006
99225W        W   89  13.657  24.057  25.925
99226W        W   90  13.223  25.647  27.912
99227W        W   91  13.891  24.119  28.924
99228W        W   92  12.653  21.901  26.329
99229W        W   93  13.355  22.882  27.235
99230W        W   94  11.001  24.486  27.493
99231W        W   95  12.367  22.382  26.341
99232W        W   96  12.168  23.755   0.019
99233W        W   97  13.240  22.882  26.702
99234W        W   98  13.475  24.332  27.916
99235W        W   99  11.586  25.045  28.149
99236W        W  100  12.063  25.009  28.910
99237W        W  101  11.937  22.490  26.052
99238W        W  102  13.536  22.835  26.267
99239W        W  103  13.345  24.950  28.502
99240W        W  104  12.223  23.454  27.128
99241W        W  105  11.749  25.395  27.820
99242W        W  106  14.401  25.403  25.621
99243W        W  107  11.297  23.932  28.725
99244W        W  108  13.210  24.180  27.484
99245W        W  109  11.769  24.377  26.969
99246W        W  110  12.100  25.017  27.948
99247W        W  111  12.725  22.306  27.096
99248W        W  112  10.680  24.157  26.271
99249W        W  113  12.746  23.152  25.891
99250W        W  114  11.112  23.676  26.970
99251W        W  115  12.542  22.323  28.250
99252W        W  116  14.226  22.157  25.552
99253W        W  117  14.425  23.878  28.832
99254W        W  118  13.064  25.296  28.800
99255W        W  119  14.598  24.304  28.538
99256W        W  120  14.078  24.998   0.012
99257W        W  121  11.808  25.638  27.381
99258W        W  122  14.460  24.095  26.583
99259W        W  123  13.203  23.334  26.971
99260W        W  124  12.965  22.026  26.736
99261W        W  125  12.017  25.065  26.724
99262W        W  126  12.350  22.768  27.959
99263W        W  127  12.264  22.180  27.304
99264W        W  128  11.173  25.233  25.949
99265W        W  129  13.042  24.268  26.732
99266W        W  130  12.016  25.156  28.421
99267W        W  131  11.517  23.969  26.814
99268W        W  132  11.187  22.432  27.237
99269W        W  133  12.798  24.326  27.199
99270W        W  134  11.014  22.409  26.156
99271W        W  135  13.518  23.497  28.208
99272W        W  136  13.613  22.799  25.720
99273W        W  137  14.069  24.522  27.413
99274W        W  138  12.791  24.875  27.349
99275W        W  139  12.200  25.282  26.285
99276W        W  140  13.350  22.028  25.603
99277W        W  141  11.383  25.335  27.487
99278W        W  142  13.395  22.989  28.945
99279W        W  143  11.426  22.564   0.020
99280W        W  144  10.978  23.246  26.674
99281W        W  145  12.265  23.306  26.079
99282W        W  146  13.563  23.444  28.748
99283W        W  147  11.995  23.686  27.657
99284W        W  148  13.509  22.068  26.805
99285W        W  149  12.627  25.367  27.203
99286W        W  150  13.944  25.119  27.989
99287W        W  151  13.501  25.015  27.300
99288W        W  152  13.409  24.050  27.029
99289W        W  153  12.829  22.348  26.105
99290W        W  154  14.473  22.025  26.791
99291W        W  155  12.066  23.581  25.480
99292W        W  156  14.382  22.867  26.848
99293W        W  157  12.815  24.154  25.912
99294W        W  158  13.870  24.302  28.451
99295W        W  159  13.674  24.986  25.660
99296W        W  160  12.270  22.479  28.693
99297W        W  161  12.068  23.227  27.944
99298W        W  162  14.242  24.665  28.312
99299W        W  163  13.219  22.627  28.604
99300W        W  164  11.195  23.193  28.483
99301W        W  165  12.859  23.635  28.068
99302W        W  166  11.263  24.414  27.044
99303W        W  167  11.482  23.604  27.663
99304W        W  168  13.769  23.938  28.091
99305W        W  169  13.615  25.248  28.826
99306W        W  170  13.471  23.038  28.440
99307W        W  171  13.773  25.267  26.851
99308W        W  172  12.793  24.914  27.930
99309W        W  173  12.078  25.208  27.461
99310W        W  174  14.003  24.372  27.910
99311W        W  175  12.943  24.468  28.974
99312W        W  176  11.534  24.453  27.475
99313W        W  177  13.916  24.094  27.048
99314W        W  178  13.582  25.330  27.705
99315W        W  179  11.671  24.917  27.661
99316W        W  180  12.495  22.931  28.816
99317W        W  181  12.859  25.045  26.338
99318W        W  182  12.420  24.563  28.997
99319W        W  183  12.402  24.810  26.359
99320W        W  184  11.764  23.142  25.421
99321W        W  185  11.091   0.196   3.368
99322W        W  186  11.392  27.985   2.994
99323W        W  187  14.185  27.681   0.767
99324W        W  188  14.325  28.813   2.738
99325W        W  189  12.352  28.679   0.331
99326W        W  190  12.140  26.961   1.042
99327W        W  191  11.814  26.738   1.452
99328W        W  192  12.704  27.842   0.852
99329W        W  193  12.492  28.686   3.286
99330W        W  194  11.047  26.328   2.842
99331W        W  195  11.634  25.498   2.794
99332W        W  196  13.508  25.958   1.669
99333W        W  197  13.201  26.662   0.444
99334W        W  198  13.724  26.308   3.310
99335W        W  199  11.116  25.916   2.536
99336W        W  200  11.213  28.692   3.510
99337W        W  201  13.018  28.150   0.568
99338W        W  202  11.095  26.747   1.969
99339W        W  203  12.131  26.837   3.124
99340W        W  204  14.339  26.429   1.836
99341W        W  205  14.237  27.594   2.684
99342W        W  206  12.673  27.108   1.488
99343W        W  207  13.172  28.342   1.952
99344W        W  208  11.488  27.669   2.245
99345W        W  209  10.883  27.217   1.870
99346W        W  210  12.037  27.302   2.880
99347W        W  211  14.175  26.924   3.270
99348W        W  212  11.819  28.432   1.715
99349W        W  213  13.016  28.143   2.783
99350W        W  214  12.464  26.831   1.879
99351W        W  215  12.485  27.569   1.650
99352W        W  216  13.307  28.375   3.558
99353W        W  217  12.773  27.533   3.529
99354W        W  218  12.542  27.423   2.999
99355W        W  219  10.937  26.563   3.279
99356W        W  220  13.712  28.262   3.223
99357W        W  221  11.468  25.726   1.067
99358W        W  222  11.943  28.244   2.195
99359W        W  223  14.369  27.909   1.611
99360W        W  224  13.965  26.053   1.890
99361W        W  225  14.218  26.354   0.114
99362W        W  226  14.534  27.040   2.463
99363W        W  227  12.465  28.778   2.350
99364W        W  228  14.228  28.203   0.758
99365W        W  229  11.536   0.065   0.634
99366W        W  230  11.783   0.005   1.102
99367W        W  231  11.611  25.809   2.370
99368W        W  232  14.131  26.815   2.682
99369W        W  233  13.590  27.172   1.253
99370W        W  234  13.606  26.964   0.329
99371W        W  235  12.817  28.184   2.299
99372W        W  236  12.808  26.596   1.565
99373W        W  237  13.171  28.527   2.476
99374W        W  238  14.133  27.267   1.067
99375W        W  239  12.993  25.960   1.031
99376W        W  240  11.657  28.605   0.782
99377W        W  241  11.174  26.082   1.276
99378W        W  242  13.844  26.566   1.788
99379W        W  243  11.290  28.375   1.671
99380W        W  244  12.692  28.565   0.736
99381W        W  245  13.940  26.768  28.983
99382W        W  246  11.059  28.523   2.354
99383W        W  247  11.841  28.162   2.734
99384W        W  248  12.114  27.471   1.200
99385W        W  249  12.118  25.992   2.130
99386W        W  250  14.526  25.637   1.833
99387W        W  251  11.443  27.447   0.240
99388W        W  252  11.525  26.548   0.464
99389W        W  253  11.371  28.398   1.160
99390W        W  254  12.373  27.901   1.261
99391W        W  255  13.855  28.708   2.937
99392W        W  256  12.860  26.367   0.708
99393W        W  257  14.191  28.935   1.575
99394W        W  258  13.734  26.750   3.022
99395W        W  259  14.553  28.140   1.175
99396W        W  260  13.187  27.666   2.670
99397W        W  261  10.838  27.344   0.958
99398W        W  262  11.994  27.772   2.362
99399W        W  263  13.262  26.886   0.918
99400W        W  264  13.089  27.340   1.088
99401W        W  265  11.389  26.733   2.422
99402W        W  266  11.406  26.686   2.947
99403W        W  267  11.370  25.683   1.576
99404W        W  268  13.109  25.964   2.042
99405W        W  269  12.852  26.134   3.164
99406W        W  270  13.358  26.038   0.518
99407W        W  271  14.536  28.658   3.192
99408W        W  272  13.224  25.695   3.101
99409W        W  273  14.184  28.060   3.399
99410W        W  274  13.828  26.120   2.840
99411W        W  275  13.455  26.116   1.190
99412W        W  276  13.816  27.294   3.473
99413W        W  277  11.523  28.779   1.472
99414W        W  278  12.389  26.583   0.741
99415W        W  279  11.786  25.898   3.129
99416W        W  280  13.993  26.439   0.951
99417W        W  281  14.335  26.819   0.906
99418W        W  282  12.108  28.965   3.525
99419W        W  283  12.094  25.577   0.564
99420W        W  284  14.338  25.998   1.549
99421W        W  285  14.458  28.342   0.293
99422W        W  286  11.293  27.559   1.792
99423W        W  287  13.376  26.061   0.002
99424W        W  288  14.456  28.450   1.883
99425W        W  289  14.407  25.590   2.382
99426W        W  290  12.880  27.002   3.034
99427W        W  291  13.236  28.375   0.983
99428W        W  292  13.306  27.510   3.582
99429W        W  293  13.097  25.622   1.610
99430W        W  294  11.562  26.563   1.869
99431W        W  295  11.145  27.641   2.633
99432W        W  296  13.200  28.765   1.644
99433W        W  297  14.020  26.348   2.321
99434W        W  298  13.058  28.976   2.912
99435W        W  299  14.252  27.728   0.267
99436W        W  300  12.579  27.359   1.019
99437W        W  301  14.502  25.650   2.903
99438W        W  302  12.676  27.783   2.634
99439W        W  303  12.891  26.444   2.047
99440W        W  304  13.774  26.902   0.863
99441W        W  305  14.049  26.697   0.484
99442W        W  306  13.854  28.471   1.015
99443W        W  307  13.819  27.965   1.668
99444W        W  308  13.436  27.313   0.676
99445W        W  309  13.019  27.434   1.719
99446W        W  310  13.988  27.094   1.764
99447W        W  311  11.312  26.269   2.237
99448W        W  312  13.929  27.237   2.941
99449W        W  313  14.370  28.900   2.117
99450W        W  314  12.289  28.335   1.516
99451W        W  315  13.468  28.935   2.612
99452W        W  316  13.127  26.320   2.484
99453W        W  317  12.612   0.140   2.701
99454W        W  318  14.252  25.972   1.049
99455W        W  319  14.071  27.281   2.319
99456W        W  320  10.885  26.542   2.397
99457W        W  321  13.904  26.231   1.405
99458W        W  322  14.178  26.452   3.038
99459W        W  323  13.154  28.196   1.463
99460W        W  324  12.432  28.720   1.213
99461W        W  325  11.557  26.019   0.499
99462W        W  326  12.726  25.614   1.983
99463W        W  327  11.716  28.730   0.278
99464W        W  328  11.875  27.318   0.750
99465W        W  329  12.744  27.885   3.143
99466W        W  330  12.601  26.293   1.158
99467W        W  331  13.923  25.706   1.418
99468W        W  332  13.661  28.989   1.680
99469W        W  333  12.908  28.748   2.101
99470W        W  334  12.472  27.796   2.157
99471W        W  335  14.192  28.461   2.380
99472W        W  336  11.934  25.915   0.926
99473W        W  337  12.426  28.364   2.012
99474W        W  338  11.886  26.449   0.101
99475W        W  339  12.695  26.821   2.347
99476W        W  340  13.548  25.686   2.102
99477W        W  341  10.935  27.630   2.165
99478W        W  342  12.604  27.212   0.099
99479W        W  343  12.004  25.959   0.228
99480W        W  344  12.733  26.839   1.041
99481W        W  345  13.467  25.901   2.552
99482W        W  346  12.194  27.798   2.851
99483W        W  347  13.048  27.469   3.117
99484W        W  348  13.541  27.548   3.089
99485W        W  349  12.859  25.772   3.553
99486W        W  350  12.054  26.405   1.790
99487W        W  351  11.682  26.218   1.440
99488W        W  352  11.267  28.912   1.049
99489W        W  353  12.904  28.375   3.223
99490W        W  354  11.674  27.767   0.565
99491W        W  355  13.545  27.378   1.790
99492W        W  356  13.538  26.911   2.010
99493W        W  357  12.965  27.681   2.192
99494W        W  358  13.378  27.947   0.238
99495W        W  359  13.032  26.133   1.545
99496W        W  360  14.584  26.354   0.842
99497W        W  361  11.225  28.865   2.984
99498W        W  362  11.386  28.102   2.498
99499W        W  363  10.852  28.922   0.760
99500W        W  364  12.653  26.015   2.296
99501W        W  365  12.486  28.136   0.488
99502W        W  366  14.098  28.685   0.586
99503W        W  367  12.924  27.133   0.611
99504W        W  368  12.030  26.424   1.083
99505W        W  369  12.935  26.278   0.202
99506W        W  370  13.260  27.956   3.242
99507W        W  371  13.784  25.966   0.821
99508W        W  372  11.105  25.818   0.299
99509W        W  373  12.339  28.175   2.498
99510W        W  374  12.129  27.930   1.816
99511W        W  375  12.063  27.877   0.251
99512W        W  376  10.932  28.395   0.841
99513W        W  377  11.651  27.090   3.136
99514W        W  378  12.303  25.870   3.254
99515W        W  379  12.976  25.880   2.686
99516W        W  380  12.324  25.637   1.093
99517W        W  381  13.236  25.548   0.715
99518W        W  382  11.191  25.770   2.045
99519W        W  383  11.309  26.591   1.368
99520W        W  384  14.023  25.539   1.938
99521W        W  385  11.556  26.244   0.951
99522W        W  386  13.955  25.847   2.356
99523W        W  387  14.365  27.093   0.223
99524W        W  388  11.649  26.045   1.912
99525W        W  389  12.746  26.523   2.804
99526W        W  390  11.083  26.322   0.369
99527W        W  391  11.660  27.640   2.727
99528W        W  392  13.003  26.945   1.925
99529W        W  393  12.818  28.964   0.384
99530W        W  394  11.032  27.803   0.182
99531W        W  395  11.992  28.153   3.234
99532W        W  396  11.351  27.166   2.702
99533W        W  397  12.343  27.407   2.485
99534W        W  398  13.984  25.628   2.805
99535W        W  399  14.462  27.220   2.945
99536W        W  400  14.504  27.263   0.689
99537W        W  401  13.229  27.827   0.922
99538W        W  402  13.895   0.027   0.218
99539W        W  403  13.017  27.057   3.594
99540W        W  404  11.552  28.067   3.488
99541W        W  405  14.632  26.090   3.526
99542W        W  406  14.166  26.801   2.155
99543W        W  407  12.591  28.966   3.720
99544W        W  408  12.486  25.730   0.262
99545W        W  409  13.950  28.159   0.318
99546W        W  410  11.867  26.402   3.021
99547W        W  411  12.424  28.262   2.985
99548W        W  412  14.298  26.066   2.672
99549W        W  413  13.642   0.007   0.683
99550W        W  414  13.705  27.732   2.138
99551W        W  415  11.994  26.048   2.644
99552W        W  416  12.534  27.082   3.406
99553W        W  417  11.783  28.132   0.906
99554W        W  418  13.716  27.618   0.981
99555W        W  419  11.518  26.213   2.707
99556W        W  420  12.737  28.264   1.168
99557W        W  421  14.471  26.860   1.583
99558W        W  422  12.712  25.644   3.043
99559W        W  423  13.681  28.244   2.069
99560W        W  424  13.967  28.639   1.934
99561W        W  425  13.180  28.647   0.544
99562W        W  426  11.070  28.213   3.327
99563W        W  427  11.836  26.432   2.308
99564W        W  428  11.855  25.708   1.411
99565W        W  429  13.540  26.238   2.130
99566W        W  430  12.520  27.608   0.429
99567W        W  431  14.127  27.573   1.907
99568W        W  432  11.512  28.461   3.146
99569W        W  433  14.015  28.972   1.061
99570W        W  434  12.204  26.076   1.404
99571W        W  435  11.786  27.539   1.611
99572W        W  436  12.124   0.149   2.505
99573W        W  437  14.188   0.019   3.218
99574W        W  438  13.335  27.332   2.270
99575W        W  439  11.461  27.043   0.569
99576W        W  440  14.359  28.603   1.091
99577W        W  441  14.197  26.167   0.571
99578W        W  442  12.157  25.564   2.719
99579W        W  443  14.118  28.374   1.491
99580W        W  444  14.024  26.829   1.326
99581W        W  445  12.333  26.659   1.413
99582W        W  446  12.445  26.980   2.757
99583W        W  447  13.521  28.034   2.809
99584W        W  448  12.233  26.517   2.675
99585W        W  449  12.058  28.887   1.554
99586W        W  450  11.616  28.986   3.321
99587W        W  451  12.000  28.336   0.479
99588W        W  452  14.078  27.943   1.190
99589W        W  453  11.828  26.842   2.694
99590W        W  454  14.558  26.672   0.440
99591W        W  455  12.166  27.790   0.777
99592W        W  456  13.317  27.185   2.776
99593W        W  457  13.203  26.832   2.398
99594W        W  458  11.801  27.271   2.400
99595W        W  459  13.922  28.902   2.395
99596W        W  460  13.717  25.780   3.241
99597W        W  461  11.296  25.815   2.995
99598W        W  462  11.796  27.017   1.937
99599W        W  463  11.963  26.834   0.547
99600W        W  464  11.069  28.366   2.838
99601W        W  465  12.636  27.286   2.070
99602W        W  466  12.398  26.314   0.257
99603W        W  467  11.680  27.182   1.230
99604W        W  468  11.184   0.022   2.482
99605W        W  469  13.993  27.241   0.553
99606W        W  470  14.210  25.970   3.182
99607W        W  471  13.590  28.079   1.215
99608W        W  472  11.137  27.033   3.247
99609W        W  473  14.261  25.660   0.567
99610W        W  474  13.588  28.141   0.687
99611W        W  475  12.405  27.099   0.598
99612W        W  476  13.827  25.950   0.274
99613W        W  477  13.603  26.498   2.579
99614W        W  478  11.370  27.046   1.632
99615W        W  479  11.867  28.030   1.395
99616W        W  480  13.566  26.626   1.284
99617W        W  481  12.544  26.154   1.792
99618W        W  482  14.470  28.040   2.511
99619W        W  483  14.435  26.044   2.159
99620W        W  484  10.992  28.769   1.478
99621W        W  485  11.281  27.984   0.860
99622W        W  486  11.390  25.845   3.500
99623W        W  487  12.802  28.512   3.708
99624W        W  488  14.396  27.379   1.516
99625W        W  489  13.757  27.690   0.473
99626W        W  490  13.044   0.219   2.422
99627W        W  491  13.731  27.813   3.483
99628W        W  492  12.589  25.460   0.695
99629W        W  493  13.313  26.520   1.733
99630W        W  494  11.141  28.089   2.059
99631W        W  495  12.409  26.025   0.720
99632W        W  496  12.298  27.719   3.356
99633W        W  497  13.091  26.473   1.158
99634W        W  498  13.316  28.036   2.345
99635W        W  499  11.505  28.578   2.648
99636W        W  500  12.283  28.548   3.761
99637W        W  501  11.972  26.315   0.594
99638W        W  502  13.506  26.445   0.795
99639W        W  503  13.340  28.525   2.971
99640W        W  504  12.150  27.125   1.569
99641W        W  505  11.666  28.928   2.323
99642W        W  506  14.444  28.858   0.223
99643W        W  507  11.319  27.496   3.103
99644W        W  508  13.310  27.864   1.840
99645W        W  509  11.660  27.676   1.097
99646W        W  510  12.024  28.626   2.576
99647W        W  511  12.660  25.814   1.422
99648W        W  512  10.792  27.886   0.653
99649W        W  513  12.703  26.739   0.348
99650W        W  514  11.211  27.438   1.311
99651W        W  515  12.487  26.034   2.783
99652W        W  516  14.317  25.842   0.088
99653W        W  517  14.237  27.534   3.293
99654W        W  518  13.071  28.838   3.431
99655W        W  519  14.493  27.896   3.016
99656W        W  520  14.083  28.558   3.404
99657W        W  521  11.641   0.075   1.850
99658W        W  522  14.573  27.624   1.106
99659W        W  523  13.166  26.945   1.432
99660W        W  524  12.906  25.461   1.124
99661W        W  525  11.913  28.525   1.216
99662W        W  526  12.374  26.439   2.197
99663W        W  527  12.270  25.677   1.732
99664W        W  528  11.220  28.674   0.506
99665W        W  529  12.876  27.760   1.333
99666W        W  530  11.989  28.647   3.100
99667W        W  531  11.317  27.469   0.801
99668W        W  532  11.184  26.238   1.753
99669W        W  533  12.777  28.007   1.788
99670W        W  534  11.117  26.003   0.778
99671W        W  535  13.693  27.000   2.503
99672W        W  536  13.645  26.434   0.284
99673W        W  537  14.165  28.060   2.058
99674W        W  538  12.757  28.519   1.630
99675W        W  539  12.150  28.812   0.786
99676W        W  540  13.427  25.576   0.204
99677W        W  541  11.204  28.839   1.948
99678W        W  542  13.285  26.589   3.391
99679W        W  543  11.403  26.282   3.246
99680W        W  544  11.225  27.007   1.040
99681W        W  545  11.653  26.745   0.950
99682W        W  546  13.401  27.075   3.261
99683W        W  547  12.128  27.415   2.006
99684W        W  548  13.432  25.598   1.204
99685W        W  549  12.490  28.922   1.836
99686W        W  550  13.677  28.452   2.535
99687W        W  551  13.605  28.453   1.590
99688W        W  552  13.387  27.644   1.385
99689W        W  553  12.879  25.870   0.534
99690W        W  554  14.571  25.616   1.287
99691W        W  555  12.095  27.344   0.264
99692W        W  556  14.374  26.450   1.301
99693W        W  557  13.047  27.616   0.469
99694W        W  558  13.948  27.845   3.005
99695W        W  559  13.643  28.583   0.355
99696W        W  560  12.371  26.376   3.151
99697W        W  561  12.177  26.925   2.304
99698W        W  562  14.190  28.312   2.911
99699W        W  563  13.332  26.191   2.963
99700W        W  564  10.927  26.838   2.815
99701W        W  565  12.852  27.279   2.563
99702W        W  566  11.337  27.935   1.408
99703W        W  567  11.328  27.183   2.159
99704W        W  568  13.697  27.546   2.606
99705W        W  569  13.594  28.760   3.372
99706W        W  570  13.239  26.683   2.888
99707W        W  571  13.493  28.815   1.185
99708W        W  572  12.737  28.600   2.761
99709W        W  573  12.047  28.731   2.055
99710W        W  574  13.945  28.008   2.515
99711W        W  575  12.932  28.020   3.629
99712W        W  576  11.610  27.987   1.861
99713W        W  577  13.908  27.522   1.448
99714W        W  578  13.482  28.724   2.108
99715W        W  579  11.509  28.472   2.129
99716W        W  580  12.775  26.616   3.372
99717W        W  581  12.953  28.744   1.181
99718W        W  582  12.477  28.177   3.484
99719W        W  583  12.277  28.298   0.932
99720W        W  584  11.725  27.012   0.126
99721W        W  585  10.998   0.167   7.057
99722W        W  586  11.409  28.001   6.736
99723W        W  587  14.175  27.722   4.462
99724W        W  588  14.263  28.850   6.339
99725W        W  589  11.939  28.837   4.011
99726W        W  590  12.266  26.966   4.967
99727W        W  591  11.947  26.720   5.314
99728W        W  592  12.753  27.533   4.456
99729W        W  593  12.485  28.775   6.830
99730W        W  594  11.188  26.443   6.650
99731W        W  595  11.574  25.600   6.553
99732W        W  596  13.712  25.906   5.322
99733W        W  597  13.235  26.794   4.003
99734W        W  598  13.661  26.425   6.992
99735W        W  599  11.129  26.042   6.305
99736W        W  600  11.191  28.719   7.212
99737W        W  601  12.574  28.198   4.041
99738W        W  602  11.047  26.742   5.700
99739W        W  603  12.094  26.761   6.877
99740W        W  604  14.361  26.541   5.402
99741W        W  605  14.255  27.619   6.227
99742W        W  606  12.617  27.028   5.362
99743W        W  607  13.144  28.244   5.573
99744W        W  608  11.495  27.654   5.967
99745W        W  609  10.806  27.211   5.698
99746W        W  610  12.077  27.191   6.606
99747W        W  611  14.190  27.089   6.955
99748W        W  612  11.815  28.398   5.359
99749W        W  613  12.944  28.132   6.412
99750W        W  614  12.305  26.750   5.683
99751W        W  615  12.559  27.543   5.401
99752W        W  616  13.309  28.366   7.108
99753W        W  617  12.645  27.554   7.183
99754W        W  618  12.560  27.390   6.677
99755W        W  619  10.894  26.666   7.148
99756W        W  620  13.702  28.224   6.778
99757W        W  621  11.344  25.671   4.877
99758W        W  622  12.053  28.201   5.801
99759W        W  623  14.512  27.965   5.349
99760W        W  624  13.948  26.289   5.597
99761W        W  625  14.150  26.308   3.587
99762W        W  626  14.518  27.134   6.162
99763W        W  627  12.505  28.919   5.899
99764W        W  628  14.038  28.176   4.225
99765W        W  629  11.359   0.049   4.322
99766W        W  630  11.755  28.898   4.787
99767W        W  631  11.571  25.831   6.094
99768W        W  632  14.135  26.767   6.332
99769W        W  633  13.553  27.133   5.089
99770W        W  634  13.607  27.185   3.950
99771W        W  635  12.820  28.064   5.928
99772W        W  636  12.888  26.286   5.195
99773W        W  637  13.206  28.394   6.072
99774W        W  638  13.942  27.444   4.863
99775W        W  639  12.724  25.884   4.775
99776W        W  640  11.643  28.619   4.383
99777W        W  641  11.024  26.095   4.857
99778W        W  642  13.716  26.700   5.351
99779W        W  643  11.311  28.365   5.420
99780W        W  644  12.574  28.693   4.165
99781W        W  645  13.752  26.780   3.558
99782W        W  646  11.125  28.507   6.099
99783W        W  647  11.880  28.218   6.518
99784W        W  648  12.139  27.504   5.045
99785W        W  649  12.048  26.010   5.984
99786W        W  650  14.499  25.655   5.484
99787W        W  651  11.800  27.674   3.210
99788W        W  652  11.555  26.254   3.745
99789W        W  653  11.492  28.398   4.927
99790W        W  654  12.281  27.983   4.898
99791W        W  655  13.855  28.714   6.636
99792W        W  656  12.916  26.460   4.297
99793W        W  657  14.192  28.950   5.299
99794W        W  658  13.776  26.893   6.731
99795W        W  659  14.625  28.298   4.941
99796W        W  660  13.146  27.658   6.397
99797W        W  661  10.577  27.319   4.846
99798W        W  662  11.928  27.855   6.162
99799W        W  663  13.227  26.843   4.519
99800W        W  664  13.087  27.278   4.740
99801W        W  665  11.448  26.756   6.082
99802W        W  666  11.325  26.863   6.925
99803W        W  667  11.465  25.658   5.386
99804W        W  668  13.131  26.098   5.619
99805W        W  669  12.775  26.126   6.866
99806W        W  670  13.294  25.970   3.978
99807W        W  671  14.334  28.600   6.870
99808W        W  672  13.126  25.735   6.841
99809W        W  673  14.147  28.112   7.012
99810W        W  674  13.774  26.419   6.493
99811W        W  675  13.580  26.087   4.753
99812W        W  676  13.897  27.365   7.353
99813W        W  677  11.528  28.816   5.239
99814W        W  678  12.428  26.350   4.080
99815W        W  679  11.837  25.875   6.959
99816W        W  680  13.946  26.402   4.558
99817W        W  681  14.236  26.805   4.431
99818W        W  682  12.096   0.001   7.105
99819W        W  683  11.903  25.476   4.102
99820W        W  684  14.284  26.048   5.263
99821W        W  685  14.367  28.310   3.812
99822W        W  686  11.186  27.561   5.544
99823W        W  687  13.291  26.071   3.463
99824W        W  688  14.497  28.418   5.599
99825W        W  689  14.353  25.802   6.143
99826W        W  690  12.912  27.002   6.792
99827W        W  691  12.854  28.058   4.476
99828W        W  692  13.370  27.484   7.373
99829W        W  693  13.281  25.621   5.483
99830W        W  694  11.510  26.569   5.533
99831W        W  695  11.243  27.633   6.428
99832W        W  696  13.345  28.623   4.834
99833W        W  697  14.267  26.763   5.847
99834W        W  698  12.983  28.872   6.611
99835W        W  699  14.085  27.816   3.862
99836W        W  700  12.617  27.332   4.932
99837W        W  701  14.470  25.818   6.661
99838W        W  702  12.655  27.717   6.282
99839W        W  703  12.838  26.630   5.581
99840W        W  704  13.713  26.833   4.334
99841W        W  705  13.956  26.463   4.051
99842W        W  706  13.834  28.563   4.525
99843W        W  707  13.576  27.928   5.393
99844W        W  708  13.554  27.288   4.567
99845W        W  709  13.031  27.289   5.236
99846W        W  710  13.852  27.474   5.363
99847W        W  711  11.271  26.303   5.896
99848W        W  712  14.066  27.243   6.490
99849W        W  713  14.362  28.867   5.790
99850W        W  714  12.309  28.379   5.274
99851W        W  715  13.461  28.923   6.332
99852W        W  716  13.376  26.312   6.193
99853W        W  717  12.563   0.054   6.384
99854W        W  718  14.202  25.991   4.749
99855W        W  719  14.045  27.225   5.950
99856W        W  720  10.961  26.589   6.200
99857W        W  721  13.908  26.322   5.071
99858W        W  722  14.170  26.579   6.803
99859W        W  723  13.227  28.141   5.053
99860W        W  724  12.475  28.714   4.902
99861W        W  725  11.507  25.838   4.040
99862W        W  726  12.773  25.794   5.908
99863W        W  727  11.492   0.001   3.824
99864W        W  728  12.294  27.309   4.542
99865W        W  729  12.707  27.876   6.775
99866W        W  730  12.619  26.397   4.755
99867W        W  731  14.075  25.576   5.133
99868W        W  732  13.696   0.016   5.426
99869W        W  733  12.939  28.693   5.736
99870W        W  734  12.391  27.787   5.843
99871W        W  735  14.196  28.447   6.018
99872W        W  736  11.863  25.749   4.538
99873W        W  737  12.501  28.428   5.768
99874W        W  738  12.018  26.201   3.516
99875W        W  739  12.678  26.812   6.047
99876W        W  740  13.576  25.667   5.948
99877W        W  741  10.980  27.591   6.002
99878W        W  742  12.705  27.289   3.976
99879W        W  743  11.866  25.708   3.625
99880W        W  744  12.823  26.844   4.915
99881W        W  745  13.477  25.850   6.435
99882W        W  746  12.227  27.800   6.595
99883W        W  747  13.075  27.488   6.907
99884W        W  748  13.728  27.404   6.853
99885W        W  749  12.843  25.796   7.288
99886W        W  750  12.110  26.279   5.524
99887W        W  751  11.509  26.130   5.112
99888W        W  752  11.230  28.831   4.793
99889W        W  753  12.859  28.399   6.834
99890W        W  754  11.935  27.680   4.619
99891W        W  755  13.388  27.440   5.551
99892W        W  756  13.611  27.023   5.730
99893W        W  757  12.879  27.549   5.833
99894W        W  758  13.407  27.957   3.857
99895W        W  759  13.188  25.889   5.032
99896W        W  760  14.504  26.354   4.446
99897W        W  761  11.204  28.875   6.696
99898W        W  762  11.441  28.096   6.242
99899W        W  763  10.843   0.006   4.475
99900W        W  764  12.904  26.347   6.012
99901W        W  765  12.070  28.351   4.189
99902W        W  766  14.150  28.678   4.127
99903W        W  767  13.166  27.283   4.214
99904W        W  768  12.016  26.314   4.986
99905W        W  769  12.998  26.357   3.782
99906W        W  770  13.242  27.966   6.808
99907W        W  771  13.775  26.002   4.254
99908W        W  772  11.040  25.720   3.835
99909W        W  773  12.383  28.158   6.227
99910W        W  774  12.135  27.876   5.405
99911W        W  775  12.045  28.076   3.742
99912W        W  776  10.932  28.426   4.497
99913W        W  777  11.738  27.162   6.974
99914W        W  778  12.332  25.895   7.271
99915W        W  779  12.948  25.983   6.387
99916W        W  780  12.250  25.675   4.864
99917W        W  781  13.134  25.989   4.468
99918W        W  782  11.144  25.800   5.813
99919W        W  783  11.112  26.621   5.177
99920W        W  784  14.066  25.789   5.709
99921W        W  785  11.427  26.025   4.522
99922W        W  786  13.882  26.080   6.104
99923W        W  787  14.087  26.953   3.927
99924W        W  788  11.645  26.074   5.636
99925W        W  789  12.861  26.514   6.499
99926W        W  790  11.010  26.232   3.719
99927W        W  791  11.744  27.600   6.599
99928W        W  792  13.037  27.069   5.710
99929W        W  793  13.047  28.870   4.020
99930W        W  794  10.986  27.719   3.438
99931W        W  795  11.880  27.959   6.960
99932W        W  796  11.290  27.113   6.452
99933W        W  797  12.234  27.443   6.210
99934W        W  798  13.962  25.694   6.454
99935W        W  799  14.527  27.410   6.636
99936W        W  800  14.390  27.447   4.061
99937W        W  801  13.256  27.724   4.501
99938W        W  802  13.933  28.937   3.727
99939W        W  803  12.969  27.162   7.308
99940W        W  804  11.447  27.962   7.235
99941W        W  805  14.509  26.210   7.016
99942W        W  806  14.083  27.033   5.443
99943W        W  807  12.534  28.971   7.350
99944W        W  808  12.357  25.751   3.793
99945W        W  809  13.827  28.264   3.746
99946W        W  810  11.722  26.374   6.822
99947W        W  811  12.347  28.291   6.739
99948W        W  812  14.287  26.262   6.397
99949W        W  813  13.709   0.028   4.194
99950W        W  814  13.758  27.657   5.829
99951W        W  815  11.913  25.994   6.478
99952W        W  816  12.473  27.077   7.077
99953W        W  817  11.737  28.140   4.549
99954W        W  818  13.729  27.867   4.679
99955W        W  819  11.572  26.326   6.321
99956W        W  820  12.719  28.241   4.955
99957W        W  821  14.505  26.979   5.149
99958W        W  822  12.601  25.639   6.859
99959W        W  823  13.612  28.239   5.790
99960W        W  824  13.936  28.604   5.607
99961W        W  825  13.084  28.315   4.079
99962W        W  826  11.046  28.237   7.092
99963W        W  827  11.874  26.505   5.925
99964W        W  828  11.935  25.865   5.250
99965W        W  829  13.335  26.572   5.714
99966W        W  830  12.453  27.746   3.860
99967W        W  831  14.252  27.629   5.684
99968W        W  832  11.547  28.451   6.934
99969W        W  833  14.042   0.070   4.592
99970W        W  834  12.421  26.057   5.152
99971W        W  835  11.676  27.519   5.347
99972W        W  836  12.114   0.164   6.129
99973W        W  837  14.129   0.078   6.851
99974W        W  838  13.316  27.329   6.042
99975W        W  839  11.284  26.679   3.622
99976W        W  840  14.305  28.688   4.805
99977W        W  841  14.274  26.055   4.094
99978W        W  842  12.193  25.576   6.542
99979W        W  843  14.179  28.399   5.202
99980W        W  844  14.018  26.929   4.918
99981W        W  845  12.449  26.559   5.228
99982W        W  846  12.480  26.880   6.528
99983W        W  847  13.487  28.039   6.341
99984W        W  848  12.085  26.482   6.439
99985W        W  849  12.062  28.843   5.207
99986W        W  850  11.596  28.984   7.007
99987W        W  851  11.783  28.549   3.585
99988W        W  852  14.157  28.183   4.724
99989W        W  853  11.703  26.819   6.536
99990W        W  854  14.465  26.527   3.933
99991W        W  855  12.361  27.863   4.379
99992W        W  856  13.333  27.209   6.557
99993W        W  857  13.189  26.818   6.157
99994W        W  858  11.730  27.251   6.203
99995W        W  859  13.885  28.976   5.978
99996W        W  860  13.607  25.879   6.962
99997W        W  861  11.342  25.972   6.807
99998W        W  862  11.770  26.997   5.743
99999W        W  863  12.297  26.650   3.585
    0W        W  864  11.078  28.371   6.594
    1W        W  865  12.477  27.230   5.822
    2W        W  866  12.548  26.189   3.600
    3W        W  867  11.764  27.125   5.042
    4W        W  868  11.212   0.031   6.194
    5W        W  869  14.004  27.258   4.345
    6W        W  870  14.042  26.090   6.823
    7W        W  871  13.721  28.273   4.986
    8W        W  872  11.005  27.197   7.199
    9W        W  873  14.110  25.567   4.114
   10W        W  874  13.523  28.178   4.320
   11W        W  875  12.747  27.002   4.417
   12W        W  876  13.761  25.967   3.733
   13W        W  877  13.786  26.585   5.982
   14W        W  878  11.360  27.065   5.408
   15W        W  879  11.780  27.968   5.046
   16W        W  880  13.583  26.656   4.839
   17W        W  881  12.608  26.200   5.618
   18W        W  882  14.502  28.059   6.164
   19W        W  883  14.420  26.246   5.859
   20W        W  884  11.009  28.764   5.283
   21W        W  885  11.228  27.991   4.676
   22W        W  886  11.442  25.909   7.322
   23W        W  887  12.554  28.463   7.248
   24W        W  888  14.353  27.461   5.212
   25W        W  889  13.696  27.666   4.196
   26W        W  890  13.006   0.063   6.092
   27W        W  891  13.712  27.834   7.148
   28W        W  892  12.362  25.631   4.308
   29W        W  893  13.408  26.313   5.225
   30W        W  894  11.183  28.040   5.805
   31W        W  895  12.269  26.087   4.538
   32W        W  896  12.153  27.502   7.018
   33W        W  897  13.143  26.402   4.776
   34W        W  898  13.289  27.849   5.898
   35W        W  899  11.525  28.582   6.425
   36W        W  900  12.038  28.438   7.169
   37W        W  901  12.004  26.001   4.066
   38W        W  902  13.443  26.395   4.333
   39W        W  903  13.312  28.476   6.575
   40W        W  904  12.135  27.186   5.432
   41W        W  905  11.701  28.869   6.050
   42W        W  906  14.428  28.813   3.691
   43W        W  907  11.345  27.521   6.940
   44W        W  908  13.060  27.778   5.397
   45W        W  909  11.489  27.559   4.860
   46W        W  910  12.184  28.645   6.226
   47W        W  911  12.795  25.778   5.364
   48W        W  912  10.739  27.894   4.442
   49W        W  913  12.708  26.767   3.900
   50W        W  914  11.066  27.356   5.090
   51W        W  915  12.433  26.039   6.437
   52W        W  916  14.242  25.792   3.655
   53W        W  917  14.208  27.594   7.014
   54W        W  918  12.978  28.807   7.142
   55W        W  919  14.484  27.914   6.684
   56W        W  920  13.884  28.551   7.129
   57W        W  921  11.725   0.114   5.608
   58W        W  922  14.492  27.803   4.857
   59W        W  923  13.203  26.787   5.250
   60W        W  924  12.913  25.279   5.247
   61W        W  925  12.013  28.448   4.856
   62W        W  926  12.386  26.390   6.040
   63W        W  927  12.319  25.804   5.595
   64W        W  928  11.019  28.745   4.054
   65W        W  929  12.902  27.753   4.909
   66W        W  930  11.959  28.697   6.706
   67W        W  931  11.009  27.479   4.595
   68W        W  932  11.097  26.156   5.425
   69W        W  933  12.645  28.051   5.443
   70W        W  934  11.002  26.052   4.227
   71W        W  935  13.673  27.004   6.244
   72W        W  936  13.514  26.404   3.812
   73W        W  937  14.069  28.097   5.616
   74W        W  938  12.974  28.581   5.225
   75W        W  939  12.159  28.786   4.472
   76W        W  940  13.348  25.587   3.606
   77W        W  941  11.289  28.832   5.710
   78W        W  942  13.084  26.648   7.146
   79W        W  943  11.333  26.383   7.154
   80W        W  944  10.930  26.958   4.759
   81W        W  945  11.953  26.511   3.938
   82W        W  946  13.400  27.053   7.058
   83W        W  947  11.956  27.511   5.778
   84W        W  948  13.551  25.492   5.051
   85W        W  949  12.545  28.822   5.396
   86W        W  950  13.719  28.491   6.210
   87W        W  951  13.483  28.549   5.340
   88W        W  952  13.407  27.618   5.011
   89W        W  953  12.767  25.967   4.061
   90W        W  954  14.561  25.650   4.975
   91W        W  955  12.057  27.263   3.407
   92W        W  956  14.338  26.524   4.896
   93W        W  957  12.964  27.753   4.052
   94W        W  958  13.972  27.816   6.621
   95W        W  959  13.520  28.610   3.968
   96W        W  960  12.225  26.237   6.894
   97W        W  961  12.132  26.920   6.141
   98W        W  962  14.149  28.295   6.508
   99W        W  963  13.272  26.220   6.706
  100W        W  964  10.875  26.850   6.648
  101W        W  965  12.860  27.228   6.283
  102W        W  966  11.289  27.904   5.186
  103W        W  967  11.282  27.191   5.909
  104W        W  968  13.677  27.541   6.323
  105W        W  969  13.453  28.845   6.921
  106W        W  970  13.320  26.709   6.650
  107W        W  971  13.826  28.778   4.992
  108W        W  972  12.733  28.576   6.233
  109W        W  973  12.065  28.719   5.705
  110W        W  974  13.951  28.014   6.128
  111W        W  975  12.889  28.041   7.218
  112W        W  976  11.643  27.966   5.581
  113W        W  977  14.043  27.887   5.130
  114W        W  978  13.455  28.747   5.814
  115W        W  979  11.584  28.412   5.855
  116W        W  980  12.601  26.600   6.953
  117W        W  981  12.891  28.593   4.581
  118W        W  982  12.353  27.984   7.155
  119W        W  983  12.431  28.349   4.543
  120W        W  984  11.766  26.659   3.448
  121W        W  985  11.056   0.148  10.745
  122W        W  986  11.480  28.065  10.340
  123W        W  987  14.161  27.747   8.012
  124W        W  988  14.351  28.763   9.994
  125W        W  989  12.040  28.818   7.571
  126W        W  990  12.278  26.886   8.381
  127W        W  991  11.893  26.648   8.711
  128W        W  992  12.734  27.556   8.077
  129W        W  993  12.536  28.695  10.390
  130W        W  994  11.221  26.411  10.300
  131W        W  995  11.688  25.579  10.177
  132W        W  996  13.606  25.948   8.960
  133W        W  997  13.128  26.801   7.683
  134W        W  998  13.704  26.445  10.666
  135W        W  999  11.152  26.061   9.898
  136W        W 1000  11.197  28.647  10.806
  137W        W 1001  12.547  28.099   7.623
  138W        W 1002  11.069  26.649   9.287
  139W        W 1003  12.203  26.877  10.487
  140W        W 1004  14.269  26.608   9.025
  141W        W 1005  14.188  27.576   9.818
  142W        W 1006  12.630  27.018   9.035
  143W        W 1007  13.203  28.287   9.248
  144W        W 1008  11.491  27.676   9.574
  145W        W 1009  10.955  27.111   9.079
  146W        W 1010  11.979  27.283  10.245
  147W        W 1011  14.446  27.030  10.446
  148W        W 1012  11.814  28.344   8.934
  149W        W 1013  12.907  28.107  10.038
  150W        W 1014  12.267  26.683   9.266
  151W        W 1015  12.487  27.520   8.945
  152W        W 1016  13.323  28.341  10.762
  153W        W 1017  12.747  27.548  10.830
  154W        W 1018  12.565  27.241  10.340
  155W        W 1019  10.965  26.673  10.703
  156W        W 1020  13.726  28.316  10.428
  157W        W 1021  11.360  25.781   8.351
  158W        W 1022  12.030  28.176   9.404
  159W        W 1023  14.539  27.930   9.006
  160W        W 1024  13.841  26.309   9.294
  161W        W 1025  14.108  26.425   7.287
  162W        W 1026  14.534  27.065   9.630
  163W        W 1027  12.459  28.924   9.501
  164W        W 1028  14.156  28.244   7.841
  165W        W 1029  11.339  28.973   7.990
  166W        W 1030  11.715  28.853   8.376
  167W        W 1031  11.628  25.845   9.717
  168W        W 1032  14.262  26.822  10.012
  169W        W 1033  13.556  27.155   8.577
  170W        W 1034  13.580  27.061   7.662
  171W        W 1035  12.860  28.044   9.524
  172W        W 1036  12.817  26.321   8.723
  173W        W 1037  13.210  28.405   9.752
  174W        W 1038  14.042  27.302   8.392
  175W        W 1039  12.779  25.981   8.327
  176W        W 1040  11.678  28.587   7.937
  177W        W 1041  11.063  26.150   8.544
  178W        W 1042  13.695  26.779   9.075
  179W        W 1043  11.268  28.327   8.965
  180W        W 1044  12.547  28.656   7.748
  181W        W 1045  13.841  26.860   7.244
  182W        W 1046  11.069  28.449   9.670
  183W        W 1047  11.918  28.164   9.975
  184W        W 1048  12.125  27.516   8.556
  185W        W 1049  12.093  25.998   9.520
  186W        W 1050  14.421  25.678   9.144
  187W        W 1051  11.739  27.537   7.332
  188W        W 1052  11.450  26.332   7.654
  189W        W 1053  11.522  28.371   8.505
  190W        W 1054  12.356  27.974   8.525
  191W        W 1055  13.908  28.759  10.248
  192W        W 1056  12.809  26.440   7.852
  193W        W 1057  14.132  28.984   8.866
  194W        W 1058  13.929  26.920  10.501
  195W        W 1059  14.580  28.280   8.618
  196W        W 1060  13.132  27.643  10.026
  197W        W 1061  10.830  27.304   8.176
  198W        W 1062  12.017  27.726   9.654
  199W        W 1063  13.251  26.900   8.177
  200W        W 1064  13.103  27.342   8.364
  201W        W 1065  11.460  26.792   9.633
  202W        W 1066  11.454  26.811  10.563
  203W        W 1067  11.352  25.748   8.869
  204W        W 1068  13.041  26.098   9.160
  205W        W 1069  12.853  26.151  10.563
  206W        W 1070  13.228  26.132   7.713
  207W        W 1071  14.399  28.564  10.492
  208W        W 1072  13.187  25.764  10.481
  209W        W 1073  14.151  28.097  10.640
  210W        W 1074  13.805  26.271  10.196
  211W        W 1075  13.648  26.068   8.441
  212W        W 1076  13.848  27.424  10.779
  213W        W 1077  11.501  28.769   8.839
  214W        W 1078  12.363  26.735   7.877
  215W        W 1079  11.866  25.907  10.548
  216W        W 1080  13.958  26.423   8.200
  217W        W 1081  14.283  26.857   8.141
  218W        W 1082  12.020  28.904  10.728
  219W        W 1083  11.792  25.525   7.947
  220W        W 1084  14.304  26.103   8.879
  221W        W 1085  14.337  28.374   7.394
  222W        W 1086  11.189  27.603   9.087
  223W        W 1087  13.223  26.155   7.201
  224W        W 1088  14.462  28.399   9.230
  225W        W 1089  14.345  25.761   9.710
  226W        W 1090  12.986  26.895  10.302
  227W        W 1091  12.862  28.069   8.028
  228W        W 1092  13.290  27.569  10.878
  229W        W 1093  13.151  25.626   9.002
  230W        W 1094  11.547  26.538   9.094
  231W        W 1095  11.201  27.722  10.038
  232W        W 1096  13.227  28.613   8.576
  233W        W 1097  14.187  26.669   9.519
  234W        W 1098  12.977  28.873  10.157
  235W        W 1099  14.148  27.855   7.474
  236W        W 1100  12.597  27.276   8.509
  237W        W 1101  14.512  25.760  10.308
  238W        W 1102  12.659  27.679   9.831
  239W        W 1103  12.887  26.594   9.138
  240W        W 1104  13.771  26.909   8.146
  241W        W 1105  13.966  26.688   7.726
  242W        W 1106  13.874  28.576   8.128
  243W        W 1107  13.622  27.974   9.024
  244W        W 1108  13.573  27.369   8.105
  245W        W 1109  12.985  27.345   8.881
  246W        W 1110  13.847  27.495   8.861
  247W        W 1111  11.358  26.301   9.513
  248W        W 1112  14.070  27.371  10.287
  249W        W 1113  14.384  28.842   9.481
  250W        W 1114  12.330  28.357   8.877
  251W        W 1115  13.442  28.863   9.960
  252W        W 1116  13.329  26.282   9.845
  253W        W 1117  12.570   0.103   9.960
  254W        W 1118  14.233  26.002   8.364
  255W        W 1119  14.024  27.170   9.554
  256W        W 1120  11.011  26.557   9.824
  257W        W 1121  13.879  26.366   8.779
  258W        W 1122  14.234  26.518  10.431
  259W        W 1123  13.193  28.120   8.766
  260W        W 1124  12.461  28.693   8.499
  261W        W 1125  11.411  25.858   7.844
  262W        W 1126  12.807  25.701   9.410
  263W        W 1127  11.540  28.934   7.528
  264W        W 1128  12.277  27.308   8.068
  265W        W 1129  12.697  27.753  10.348
  266W        W 1130  12.552  26.450   8.291
  267W        W 1131  14.022  25.668   8.778
  268W        W 1132  13.647   0.043   9.028
  269W        W 1133  12.920  28.696   9.428
  270W        W 1134  12.427  27.799   9.371
  271W        W 1135  14.142  28.429   9.643
  272W        W 1136  11.861  25.911   8.334
  273W        W 1137  12.504  28.404   9.358
  274W        W 1138  11.876  26.212   7.336
  275W        W 1139  12.644  26.853   9.560
  276W        W 1140  13.445  25.928   9.460
  277W        W 1141  10.966  27.554   9.562
  278W        W 1142  12.594  27.256   7.646
  279W        W 1143  11.881  25.686   7.448
  280W        W 1144  12.831  26.815   8.547
  281W        W 1145  13.494  25.847  10.050
  282W        W 1146  12.221  27.750  10.123
  283W        W 1147  13.050  27.373  10.461
  284W        W 1148  13.532  27.524  10.382
  285W        W 1149  12.915  25.813  10.939
  286W        W 1150  12.034  26.270   9.039
  287W        W 1151  11.576  26.195   8.699
  288W        W 1152  11.185  28.751   8.404
  289W        W 1153  12.857  28.293  10.510
  290W        W 1154  11.866  27.609   7.861
  291W        W 1155  13.456  27.284   9.108
  292W        W 1156  13.541  26.997   9.557
  293W        W 1157  12.769  27.414   9.383
  294W        W 1158  13.316  27.993   7.515
  295W        W 1159  13.185  25.988   8.643
  296W        W 1160  14.492  26.367   8.073
  297W        W 1161  11.128  28.860  10.314
  298W        W 1162  11.428  28.127   9.829
  299W        W 1163  10.817  28.880   7.959
  300W        W 1164  12.877  26.345   9.593
  301W        W 1165  12.116  28.356   7.740
  302W        W 1166  13.960  28.687   7.637
  303W        W 1167  13.126  27.291   7.823
  304W        W 1168  12.036  26.402   8.233
  305W        W 1169  12.731  26.286   7.358
  306W        W 1170  13.177  27.896  10.484
  307W        W 1171  13.705  26.012   7.939
  308W        W 1172  10.977  25.653   7.674
  309W        W 1173  12.399  28.111   9.773
  310W        W 1174  12.108  27.878   8.981
  311W        W 1175  11.912  27.993   7.475
  312W        W 1176  10.792  28.368   8.033
  313W        W 1177  11.447  27.286  10.350
  314W        W 1178  12.427  25.906  10.774
  315W        W 1179  12.963  25.919  10.034
  316W        W 1180  12.284  25.644   8.526
  317W        W 1181  13.252  25.830   8.149
  318W        W 1182  11.213  25.804   9.428
  319W        W 1183  11.116  26.635   8.772
  320W        W 1184  13.952  25.769   9.318
  321W        W 1185  11.504  26.257   8.175
  322W        W 1186  13.881  26.044   9.745
  323W        W 1187  14.285  27.029   7.462
  324W        W 1188  11.636  26.017   9.214
  325W        W 1189  12.877  26.426  10.115
  326W        W 1190  11.003  26.135   7.491
  327W        W 1191  11.703  27.677  10.058
  328W        W 1192  13.079  27.011   9.337
  329W        W 1193  12.980  28.950   7.658
  330W        W 1194  10.964  27.745   7.248
  331W        W 1195  11.980  28.075  10.482
  332W        W 1196  11.328  27.261   9.867
  333W        W 1197  12.330  27.292   9.871
  334W        W 1198  14.001  25.695  10.139
  335W        W 1199  14.569  27.380  10.100
  336W        W 1200  14.465  27.480   7.646
  337W        W 1201  13.265  27.758   8.005
  338W        W 1202  13.819   0.027   7.267
  339W        W 1203  13.056  27.104  10.945
  340W        W 1204  11.530  28.027  10.853
  341W        W 1205  14.605  26.169  10.724
  342W        W 1206  14.109  27.097   9.051
  343W        W 1207  12.527  28.888  10.875
  344W        W 1208  12.307  25.622   7.729
  345W        W 1209  13.776  28.216   7.496
  346W        W 1210  11.708  26.377  10.459
  347W        W 1211  12.417  28.214  10.265
  348W        W 1212  14.292  26.163  10.049
  349W        W 1213  13.610   0.072   7.761
  350W        W 1214  13.763  27.617   9.385
  351W        W 1215  11.973  26.022  10.052
  352W        W 1216  12.552  27.061  10.849
  353W        W 1217  11.816  28.099   8.070
  354W        W 1218  13.788  27.752   8.393
  355W        W 1219  11.598  26.370   9.953
  356W        W 1220  12.775  28.270   8.510
  357W        W 1221  14.463  27.001   8.624
  358W        W 1222  12.691  25.664  10.410
  359W        W 1223  13.684  28.296   9.421
  360W        W 1224  13.950  28.702   9.257
  361W        W 1225  12.986  28.428   7.553
  362W        W 1226  11.057  28.169  10.669
  363W        W 1227  11.858  26.454   9.507
  364W        W 1228  11.875  25.785   8.827
  365W        W 1229  13.348  26.529   9.392
  366W        W 1230  12.267  27.627   7.529
  367W        W 1231  14.277  27.542   9.284
  368W        W 1232  11.687  28.482  10.658
  369W        W 1233  14.059   0.064   8.213
  370W        W 1234  12.312  26.134   8.630
  371W        W 1235  11.620  27.512   8.767
  372W        W 1236  12.062   0.086   9.794
  373W        W 1237  14.192   0.040  10.563
  374W        W 1238  13.254  27.427   9.577
  375W        W 1239  11.256  26.795   7.477
  376W        W 1240  14.289  28.670   8.429
  377W        W 1241  14.142  26.194   7.750
  378W        W 1242  12.235  25.572  10.088
  379W        W 1243  14.091  28.437   8.842
  380W        W 1244  13.969  26.847   8.622
  381W        W 1245  12.409  26.612   8.792
  382W        W 1246  12.521  26.804  10.061
  383W        W 1247  13.463  28.022  10.084
  384W        W 1248  12.085  26.518  10.132
  385W        W 1249  12.028  28.789   8.786
  386W        W 1250  11.536  28.977  10.591
  387W        W 1251  11.597  28.414   7.457
  388W        W 1252  14.137  28.177   8.341
  389W        W 1253  11.682  26.876  10.092
  390W        W 1254  14.494  26.588   7.612
  391W        W 1255  12.299  27.848   8.014
  392W        W 1256  13.331  27.175  10.051
  393W        W 1257  13.127  26.766   9.804
  394W        W 1258  11.811  27.259   9.712
  395W        W 1259  13.904  28.904   9.733
  396W        W 1260  13.668  25.891  10.533
  397W        W 1261  11.349  25.916  10.370
  398W        W 1262  11.826  26.943   9.278
  399W        W 1263  12.234  26.583   7.326
  400W        W 1264  11.054  28.328  10.172
  401W        W 1265  12.280  27.217   9.370
  402W        W 1266  12.334  26.237   7.686
  403W        W 1267  11.806  27.113   8.476
  404W        W 1268  11.197  28.915   9.810
  405W        W 1269  14.033  27.258   7.861
  406W        W 1270  14.144  26.035  10.540
  407W        W 1271  13.672  28.246   8.553
  408W        W 1272  11.067  27.186  10.714
  409W        W 1273  14.123  25.667   7.797
  410W        W 1274  13.691  28.097   8.021
  411W        W 1275  12.753  27.008   8.073
  412W        W 1276  13.709  26.082   7.427
  413W        W 1277  13.747  26.570   9.769
  414W        W 1278  11.467  27.020   8.885
  415W        W 1279  11.820  27.951   8.570
  416W        W 1280  13.535  26.607   8.483
  417W        W 1281  12.531  26.229   9.185
  418W        W 1282  14.435  28.027   9.741
  419W        W 1283  14.409  26.186   9.399
  420W        W 1284  10.948  28.737   8.854
  421W        W 1285  11.284  28.234   8.085
  422W        W 1286  11.448  25.840  10.872
  423W        W 1287  12.691  28.422  10.963
  424W        W 1288  14.362  27.477   8.785
  425W        W 1289  13.714  27.686   7.712
  426W        W 1290  13.058   0.119   9.688
  427W        W 1291  13.646  27.909  10.719
  428W        W 1292  12.635  25.531   8.119
  429W        W 1293  13.359  26.394   8.901
  430W        W 1294  11.144  28.023   9.383
  431W        W 1295  12.321  25.969   8.119
  432W        W 1296  12.260  27.571  10.597
  433W        W 1297  13.104  26.386   8.288
  434W        W 1298  13.378  27.923   9.595
  435W        W 1299  11.526  28.555  10.150
  436W        W 1300  12.214  28.435  10.765
  437W        W 1301  11.884  26.043   7.834
  438W        W 1302  13.503  26.499   7.965
  439W        W 1303  13.268  28.469  10.262
  440W        W 1304  12.144  27.091   8.877
  441W        W 1305  11.679  28.754   9.695
  442W        W 1306  14.295  28.870   7.303
  443W        W 1307  11.205  27.679  10.580
  444W        W 1308  13.145  27.753   9.162
  445W        W 1309  11.488  27.718   8.234
  446W        W 1310  12.171  28.574   9.775
  447W        W 1311  12.712  25.828   8.821
  448W        W 1312  10.915  27.944   7.748
  449W        W 1313  12.672  26.781   7.463
  450W        W 1314  11.110  27.423   8.615
  451W        W 1315  12.460  26.112  10.219
  452W        W 1316  14.190  25.919   7.316
  453W        W 1317  14.383  27.551  10.652
  454W        W 1318  13.002  28.768  10.679
  455W        W 1319  14.414  27.853  10.236
  456W        W 1320  13.990  28.588  10.776
  457W        W 1321  11.669   0.033   9.260
  458W        W 1322  14.495  27.810   8.428
  459W        W 1323  13.227  26.882   8.857
  460W        W 1324  12.979  25.515   8.506
  461W        W 1325  12.029  28.407   8.438
  462W        W 1326  12.375  26.401   9.713
  463W        W 1327  12.306  25.777   9.104
  464W        W 1328  11.156  28.576   7.704
  465W        W 1329  12.844  27.749   8.566
  466W        W 1330  12.034  28.594  10.283
  467W        W 1331  11.455  27.906   7.736
  468W        W 1332  11.146  26.181   9.051
  469W        W 1333  12.709  28.013   8.996
  470W        W 1334  10.857  25.633   8.179
  471W        W 1335  13.809  27.040  10.003
  472W        W 1336  13.501  26.547   7.459
  473W        W 1337  14.102  28.031   9.289
  474W        W 1338  12.852  28.507   8.945
  475W        W 1339  12.160  28.758   8.075
  476W        W 1340  13.328  25.692   7.395
  477W        W 1341  11.232  28.769   9.285
  478W        W 1342  13.176  26.614  10.697
  479W        W 1343  11.347  26.359  10.833
  480W        W 1344  11.085  26.589   8.226
  481W        W 1345  11.905  26.557   7.733
  482W        W 1346  13.455  27.068  10.626
  483W        W 1347  11.854  27.470   9.223
  484W        W 1348  13.490  25.582   8.593
  485W        W 1349  12.486  28.846   8.999
  486W        W 1350  13.702  28.437   9.912
  487W        W 1351  13.556  28.524   8.971
  488W        W 1352  13.374  27.638   8.694
  489W        W 1353  12.745  25.926   7.789
  490W        W 1354  14.586  25.698   8.665
  491W        W 1355  12.081  27.109   7.402
  492W        W 1356  14.332  26.504   8.536
  493W        W 1357  12.895  27.699   7.609
  494W        W 1358  13.906  27.849  10.261
  495W        W 1359  13.465  28.671   7.471
  496W        W 1360  12.195  26.338  10.621
  497W        W 1361  12.106  26.848   9.733
  498W        W 1362  14.152  28.288  10.133
  499W        W 1363  13.310  26.241  10.350
  500W        W 1364  11.115  26.901  10.195
  501W        W 1365  12.849  27.205   9.883
  502W        W 1366  11.309  27.914   8.669
  503W        W 1367  11.395  27.221   9.355
  504W        W 1368  13.664  27.539   9.887
  505W        W 1369  13.536  28.797  10.599
  506W        W 1370  13.481  26.704  10.229
  507W        W 1371  13.755  28.792   8.576
  508W        W 1372  12.681  28.551   9.873
  509W        W 1373  12.047  28.680   9.284
  510W        W 1374  13.893  27.985   9.765
  511W        W 1375  12.979  28.000  10.945
  512W        W 1376  11.599  27.919   9.117
  513W        W 1377  14.088  27.930   8.778
  514W        W 1378  13.449  28.747   9.443
  515W        W 1379  11.550  28.370   9.388
  516W        W 1380  12.644  26.617  10.561
  517W        W 1381  12.891  28.627   8.146
  518W        W 1382  12.492  28.000  10.754
  519W        W 1383  12.437  28.327   8.133
  520W        W 1384  11.728  26.708   7.247
  521W        W 1385  11.055   0.116  14.329
  522W        W 1386  11.419  28.107  13.957
  523W        W 1387  14.134  27.667  11.584
  524W        W 1388  14.379  28.827  13.688
  525W        W 1389  12.143  28.751  11.188
  526W        W 1390  12.257  26.902  12.151
  527W        W 1391  11.835  26.627  12.318
  528W        W 1392  12.753  27.631  11.753
  529W        W 1393  12.434  28.761  13.780
  530W        W 1394  11.020  26.373  13.948
  531W        W 1395  11.669  25.775  13.736
  532W        W 1396  13.540  26.006  12.571
  533W        W 1397  13.305  26.716  11.206
  534W        W 1398  13.690  26.451  14.253
  535W        W 1399  11.216  26.027  13.584
  536W        W 1400  11.230  28.614  14.416
  537W        W 1401  12.860  28.225  11.430
  538W        W 1402  11.132  26.698  12.960
  539W        W 1403  12.136  26.876  14.255
  540W        W 1404  14.387  26.762  12.645
  541W        W 1405  14.391  27.629  13.523
  542W        W 1406  12.650  26.913  12.647
  543W        W 1407  13.221  28.267  12.880
  544W        W 1408  11.565  27.673  13.179
  545W        W 1409  10.873  27.132  12.847
  546W        W 1410  12.066  27.287  13.871
  547W        W 1411  14.237  27.079  14.192
  548W        W 1412  11.850  28.418  12.597
  549W        W 1413  13.088  28.138  13.831
  550W        W 1414  12.312  26.737  13.018
  551W        W 1415  12.584  27.600  12.721
  552W        W 1416  13.293  28.363  14.314
  553W        W 1417  12.700  27.583  14.553
  554W        W 1418  12.592  27.486  14.040
  555W        W 1419  10.865  26.639  14.379
  556W        W 1420  13.769  28.259  14.096
  557W        W 1421  11.396  25.758  12.077
  558W        W 1422  11.955  28.108  13.198
  559W        W 1423  14.527  28.001  12.566
  560W        W 1424  13.931  26.542  12.803
  561W        W 1425  14.139  26.351  10.949
  562W        W 1426  14.529  27.115  13.472
  563W        W 1427  12.505  28.795  13.262
  564W        W 1428  14.162  28.187  11.495
  565W        W 1429  11.527   0.034  11.543
  566W        W 1430  11.786  28.842  11.981
  567W        W 1431  11.793  25.949  13.276
  568W        W 1432  14.160  26.805  13.643
  569W        W 1433  13.581  27.195  12.068
  570W        W 1434  13.535  27.216  11.163
  571W        W 1435  12.873  28.065  13.204
  572W        W 1436  12.779  26.412  12.452
  573W        W 1437  13.272  28.357  13.389
  574W        W 1438  14.087  27.371  12.009
  575W        W 1439  13.075  25.905  11.817
  576W        W 1440  11.601  28.509  11.619
  577W        W 1441  11.068  26.132  12.134
  578W        W 1442  13.466  26.995  12.539
  579W        W 1443  11.326  28.340  12.598
  580W        W 1444  12.605  28.692  11.392
  581W        W 1445  13.820  26.828  11.004
  582W        W 1446  11.160  28.535  13.315
  583W        W 1447  11.872  28.134  13.738
  584W        W 1448  12.117  27.551  12.478
  585W        W 1449  12.308  25.931  13.321
  586W        W 1450  14.433  25.763  12.451
  587W        W 1451  11.742  27.638  10.577
  588W        W 1452  11.346  26.427  11.351
  589W        W 1453  11.599  28.362  12.143
  590W        W 1454  12.466  28.085  12.254
  591W        W 1455  13.918  28.723  13.928
  592W        W 1456  12.916  26.382  11.585
  593W        W 1457  14.130  28.895  12.375
  594W        W 1458  13.788  26.888  13.982
  595W        W 1459  14.643  28.236  12.114
  596W        W 1460  13.248  27.658  13.700
  597W        W 1461  10.885  27.268  11.897
  598W        W 1462  11.999  27.694  13.492
  599W        W 1463  13.127  26.822  11.778
  600W        W 1464  13.055  27.288  12.053
  601W        W 1465  11.435  26.832  13.402
  602W        W 1466  11.389  26.770  14.127
  603W        W 1467  11.260  25.708  12.577
  604W        W 1468  13.052  26.100  12.853
  605W        W 1469  12.915  26.175  14.090
  606W        W 1470  13.231  26.029  11.332
  607W        W 1471  14.397  28.627  14.186
  608W        W 1472  13.220  25.655  13.859
  609W        W 1473  14.230  28.126  14.302
  610W        W 1474  13.844  26.339  13.750
  611W        W 1475  13.528  26.113  12.050
  612W        W 1476  13.897  27.359  14.548
  613W        W 1477  11.511  28.780  12.419
  614W        W 1478  12.413  26.480  11.548
  615W        W 1479  11.905  25.934  14.176
  616W        W 1480  13.916  26.391  11.803
  617W        W 1481  14.063  26.884  11.853
  618W        W 1482  11.992  28.887  14.410
  619W        W 1483  11.895  25.685  11.543
  620W        W 1484  14.322  26.245  12.606
  621W        W 1485  14.414  28.314  11.050
  622W        W 1486  11.137  27.550  12.680
  623W        W 1487  13.330  26.134  10.850
  624W        W 1488  14.551  28.435  12.861
  625W        W 1489  14.368  25.917  13.215
  626W        W 1490  12.966  26.994  14.092
  627W        W 1491  12.909  28.108  11.945
  628W        W 1492  13.394  27.559  14.555
  629W        W 1493  13.120  25.586  12.682
  630W        W 1494  11.593  26.556  12.765
  631W        W 1495  11.255  27.699  13.624
  632W        W 1496  13.268  28.665  12.556
  633W        W 1497  14.251  26.828  13.141
  634W        W 1498  13.044  28.906  13.756
  635W        W 1499  14.203  27.802  11.071
  636W        W 1500  12.562  27.297  12.280
  637W        W 1501  14.586  25.900  13.767
  638W        W 1502  12.750  27.787  13.632
  639W        W 1503  13.058  26.634  12.813
  640W        W 1504  13.624  26.902  11.577
  641W        W 1505  14.114  26.642  11.392
  642W        W 1506  13.834  28.480  11.781
  643W        W 1507  13.567  27.930  12.674
  644W        W 1508  13.670  27.443  11.635
  645W        W 1509  13.001  27.286  12.579
  646W        W 1510  13.844  27.405  12.479
  647W        W 1511  11.435  26.326  13.201
  648W        W 1512  14.083  27.305  13.772
  649W        W 1513  14.497  28.910  13.129
  650W        W 1514  12.362  28.468  12.604
  651W        W 1515  13.550  28.931  13.566
  652W        W 1516  13.382  26.371  13.503
  653W        W 1517  12.641   0.188  13.557
  654W        W 1518  14.239  26.035  11.987
  655W        W 1519  14.104  27.315  13.252
  656W        W 1520  11.019  26.519  13.441
  657W        W 1521  13.881  26.327  12.337
  658W        W 1522  14.198  26.542  14.077
  659W        W 1523  13.190  28.111  12.384
  660W        W 1524  12.484  28.858  12.250
  661W        W 1525  11.483  25.932  11.367
  662W        W 1526  12.697  25.754  13.003
  663W        W 1527  11.631  28.824  11.079
  664W        W 1528  12.261  27.676  11.995
  665W        W 1529  12.636  28.043  14.058
  666W        W 1530  12.658  26.098  12.038
  667W        W 1531  13.884  25.786  12.258
  668W        W 1532  13.709  28.978  12.672
  669W        W 1533  13.047  28.798  13.252
  670W        W 1534  12.416  27.799  13.186
  671W        W 1535  14.281  28.472  13.306
  672W        W 1536  11.862  25.966  11.987
  673W        W 1537  12.423  28.319  13.103
  674W        W 1538  11.803  26.211  10.995
  675W        W 1539  12.660  26.886  13.392
  676W        W 1540  13.466  25.800  13.022
  677W        W 1541  11.047  27.553  13.184
  678W        W 1542  12.748  27.330  11.302
  679W        W 1543  11.968  25.735  11.017
  680W        W 1544  12.666  26.629  11.986
  681W        W 1545  13.535  25.876  13.512
  682W        W 1546  12.203  27.789  13.948
  683W        W 1547  13.088  27.484  14.158
  684W        W 1548  13.702  27.456  14.085
  685W        W 1549  12.908  25.757  14.411
  686W        W 1550  12.056  26.286  12.963
  687W        W 1551  11.536  26.195  12.336
  688W        W 1552  11.251  28.719  11.961
  689W        W 1553  12.828  28.539  14.055
  690W        W 1554  12.123  27.771  11.469
  691W        W 1555  13.461  27.407  12.852
  692W        W 1556  13.459  26.876  13.053
  693W        W 1557  12.868  27.544  13.194
  694W        W 1558  13.381  28.151  11.243
  695W        W 1559  13.074  26.007  12.357
  696W        W 1560  14.560  26.654  11.726
  697W        W 1561  11.164  28.842  13.894
  698W        W 1562  11.454  28.120  13.423
  699W        W 1563  10.861  28.919  11.673
  700W        W 1564  12.922  26.437  13.263
  701W        W 1565  12.316  28.250  11.254
  702W        W 1566  14.060  28.678  11.349
  703W        W 1567  13.193  27.260  11.549
  704W        W 1568  12.208  26.374  12.032
  705W        W 1569  12.880  26.344  11.057
  706W        W 1570  13.422  27.885  14.127
  707W        W 1571  13.704  25.980  11.552
  708W        W 1572  11.103  25.595  11.232
  709W        W 1573  12.367  28.132  13.590
  710W        W 1574  12.213  27.990  12.748
  711W        W 1575  12.038  27.904  10.965
  712W        W 1576  10.952  28.391  11.676
  713W        W 1577  11.700  27.169  14.220
  714W        W 1578  12.410  25.832  14.296
  715W        W 1579  12.973  26.039  13.595
  716W        W 1580  12.273  25.713  12.171
  717W        W 1581  13.401  25.559  11.484
  718W        W 1582  11.301  25.821  13.126
  719W        W 1583  11.163  26.560  12.426
  720W        W 1584  14.017  25.845  12.771
  721W        W 1585  11.443  26.217  11.810
  722W        W 1586  13.882  26.099  13.200
  723W        W 1587  14.238  27.121  10.910
  724W        W 1588  11.637  26.039  12.803
  725W        W 1589  12.806  26.560  13.759
  726W        W 1590  10.994  26.097  11.170
  727W        W 1591  11.685  27.643  13.918
  728W        W 1592  12.975  27.074  13.042
  729W        W 1593  12.990   0.045  11.430
  730W        W 1594  10.854  27.804  10.986
  731W        W 1595  11.866  28.018  14.249
  732W        W 1596  11.386  27.213  13.803
  733W        W 1597  12.427  27.405  13.527
  734W        W 1598  14.077  25.872  13.627
  735W        W 1599  14.581  27.380  13.923
  736W        W 1600  14.492  27.418  11.258
  737W        W 1601  13.268  27.721  11.860
  738W        W 1602  13.878   0.037  10.985
  739W        W 1603  13.040  27.185  14.603
  740W        W 1604  11.419  28.099  14.489
  741W        W 1605  14.509  26.141  14.243
  742W        W 1606  13.895  27.065  12.855
  743W        W 1607  12.496  28.802  14.519
  744W        W 1608  12.359  25.606  11.320
  745W        W 1609  13.874  28.195  11.081
  746W        W 1610  11.782  26.441  14.131
  747W        W 1611  12.220  28.370  14.062
  748W        W 1612  14.348  26.326  13.575
  749W        W 1613  13.618   0.019  11.450
  750W        W 1614  13.874  27.697  12.999
  751W        W 1615  11.978  26.173  13.709
  752W        W 1616  12.569  27.114  14.405
  753W        W 1617  11.910  28.104  11.807
  754W        W 1618  13.745  27.727  12.072
  755W        W 1619  11.490  26.429  13.718
  756W        W 1620  12.820  28.472  12.353
  757W        W 1621  14.427  27.042  12.211
  758W        W 1622  12.719  25.685  13.909
  759W        W 1623  13.671  28.183  13.116
  760W        W 1624  14.108  28.706  12.861
  761W        W 1625  13.102  28.615  11.172
  762W        W 1626  10.990  28.155  14.231
  763W        W 1627  11.881  26.547  13.373
  764W        W 1628  11.762  25.716  12.437
  765W        W 1629  13.477  26.349  12.985
  766W        W 1630  12.598  27.824  11.257
  767W        W 1631  14.394  27.750  13.011
  768W        W 1632  11.698  28.494  14.221
  769W        W 1633  13.994  28.981  11.855
  770W        W 1634  12.056  26.123  12.457
  771W        W 1635  11.636  27.459  12.665
  772W        W 1636  12.081   0.051  13.440
  773W        W 1637  14.123   0.054  14.252
  774W        W 1638  13.317  27.313  13.332
  775W        W 1639  11.303  26.848  11.053
  776W        W 1640  14.311  28.592  11.959
  777W        W 1641  14.181  26.109  11.433
  778W        W 1642  12.199  25.698  13.800
  779W        W 1643  14.184  28.381  12.423
  780W        W 1644  13.946  26.877  12.365
  781W        W 1645  12.297  26.556  12.540
  782W        W 1646  12.504  27.008  13.876
  783W        W 1647  13.586  28.047  13.654
  784W        W 1648  12.226  26.592  13.844
  785W        W 1649  12.032  28.879  12.470
  786W        W 1650  11.534  28.998  14.201
  787W        W 1651  11.820  28.346  11.159
  788W        W 1652  14.140  28.076  11.993
  789W        W 1653  11.784  26.857  13.800
  790W        W 1654  14.545  26.919  11.282
  791W        W 1655  12.440  28.078  11.724
  792W        W 1656  13.373  27.166  13.835
  793W        W 1657  13.170  26.842  13.492
  794W        W 1658  11.741  27.259  13.440
  795W        W 1659  14.006  28.917  13.329
  796W        W 1660  13.731  25.678  13.930
  797W        W 1661  11.382  26.027  14.080
  798W        W 1662  11.831  26.948  13.033
  799W        W 1663  12.408  26.590  11.026
  800W        W 1664  10.999  28.358  13.759
  801W        W 1665  12.468  27.225  13.047
  802W        W 1666  12.270  26.120  11.201
  803W        W 1667  11.787  27.164  12.274
  804W        W 1668  11.130   0.033  13.424
  805W        W 1669  14.044  27.169  11.393
  806W        W 1670  14.005  26.048  14.153
  807W        W 1671  13.686  28.213  12.214
  808W        W 1672  11.115  27.192  14.254
  809W        W 1673  13.962  25.555  11.364
  810W        W 1674  13.701  27.989  11.636
  811W        W 1675  12.671  27.098  11.766
  812W        W 1676  13.810  25.921  11.022
  813W        W 1677  13.821  26.591  13.304
  814W        W 1678  11.331  27.023  12.569
  815W        W 1679  11.942  28.004  12.309
  816W        W 1680  13.568  26.683  12.054
  817W        W 1681  12.566  26.280  12.917
  818W        W 1682  14.587  28.081  13.422
  819W        W 1683  14.513  26.401  13.070
  820W        W 1684  10.998  28.721  12.445
  821W        W 1685  11.372  28.050  11.813
  822W        W 1686  11.387  25.911  14.576
  823W        W 1687  12.658  28.326  14.496
  824W        W 1688  14.394  27.517  12.412
  825W        W 1689  13.695  27.713  11.197
  826W        W 1690  13.192   0.258  13.397
  827W        W 1691  13.827  27.845  14.420
  828W        W 1692  12.625  25.605  11.774
  829W        W 1693  13.389  26.471  12.476
  830W        W 1694  11.216  27.998  12.961
  831W        W 1695  12.292  25.979  11.699
  832W        W 1696  12.151  27.445  14.363
  833W        W 1697  13.112  26.394  12.049
  834W        W 1698  13.342  27.817  13.214
  835W        W 1699  11.543  28.552  13.699
  836W        W 1700  12.137  28.401  14.580
  837W        W 1701  11.879  26.234  11.523
  838W        W 1702  13.422  26.414  11.636
  839W        W 1703  13.409  28.540  13.854
  840W        W 1704  12.153  27.068  12.643
  841W        W 1705  11.611  28.868  13.292
  842W        W 1706  14.398  28.835  10.994
  843W        W 1707  11.182  27.682  14.127
  844W        W 1708  13.086  27.760  12.773
  845W        W 1709  11.714  27.645  12.025
  846W        W 1710  12.056  28.539  13.483
  847W        W 1711  12.580  25.936  12.528
  848W        W 1712  10.970  27.900  11.499
  849W        W 1713  12.814  26.812  11.321
  850W        W 1714  11.282  27.397  12.214
  851W        W 1715  12.478  26.136  13.832
  852W        W 1716  14.307  25.844  11.003
  853W        W 1717  14.274  27.593  14.265
  854W        W 1718  13.015  28.753  14.485
  855W        W 1719  14.540  27.915  13.930
  856W        W 1720  13.960  28.557  14.466
  857W        W 1721  11.692   0.035  12.820
  858W        W 1722  14.523  27.733  11.950
  859W        W 1723  13.039  26.837  12.302
  860W        W 1724  12.847  25.568  12.234
  861W        W 1725  12.125  28.469  12.148
  862W        W 1726  12.407  26.425  13.403
  863W        W 1727  12.167  25.775  12.823
  864W        W 1728  11.185  28.685  11.325
  865W        W 1729  12.855  27.723  12.288
  866W        W 1730  11.930  28.834  13.897
  867W        W 1731  11.288  27.539  11.706
  868W        W 1732  11.137  26.186  12.773
  869W        W 1733  12.724  28.103  12.704
  870W        W 1734  11.059  25.884  11.673
  871W        W 1735  13.726  27.051  13.482
  872W        W 1736  13.689  26.374  11.208
  873W        W 1737  14.121  28.170  12.896
  874W        W 1738  12.809  28.588  12.862
  875W        W 1739  12.137  28.539  11.647
  876W        W 1740  13.400  25.621  10.964
  877W        W 1741  11.234  28.823  12.890
  878W        W 1742  13.113  26.678  14.470
  879W        W 1743  11.337  26.402  14.459
  880W        W 1744  11.093  26.771  11.956
  881W        W 1745  12.339  26.994  11.356
  882W        W 1746  13.456  27.062  14.342
  883W        W 1747  12.027  27.492  13.004
  884W        W 1748  13.371  25.636  12.200
  885W        W 1749  12.433  28.937  12.780
  886W        W 1750  13.800  28.478  13.501
  887W        W 1751  13.716  28.438  12.668
  888W        W 1752  13.357  27.578  12.363
  889W        W 1753  12.720  25.960  11.401
  890W        W 1754  14.630  25.691  11.978
  891W        W 1755  12.288  27.448  11.090
  892W        W 1756  14.306  26.535  12.161
  893W        W 1757  13.110  27.724  11.357
  894W        W 1758  14.008  27.829  13.892
  895W        W 1759  13.600  28.621  11.108
  896W        W 1760  12.243  26.309  14.283
  897W        W 1761  12.164  26.966  13.461
  898W        W 1762  14.200  28.305  13.799
  899W        W 1763  13.427  26.111  13.965
  900W        W 1764  11.004  26.864  13.828
  901W        W 1765  12.903  27.273  13.654
  902W        W 1766  11.387  27.896  12.346
  903W        W 1767  11.377  27.197  13.044
  904W        W 1768  13.733  27.580  13.506
  905W        W 1769  13.555  28.819  14.283
  906W        W 1770  13.303  26.627  13.963
  907W        W 1771  13.660  28.749  12.208
  908W        W 1772  12.778  28.450  13.540
  909W        W 1773  12.042  28.690  12.995
  910W        W 1774  14.058  27.999  13.396
  911W        W 1775  13.009  27.955  14.414
  912W        W 1776  11.692  27.962  12.768
  913W        W 1777  14.033  27.886  12.474
  914W        W 1778  13.544  28.701  13.085
  915W        W 1779  11.580  28.429  13.031
  916W        W 1780  12.627  26.633  14.235
  917W        W 1781  12.999  28.849  12.040
  918W        W 1782  12.328  27.928  14.456
  919W        W 1783  12.604  28.529  11.882
  920W        W 1784  11.877  26.696  10.852
  921W        W 1785  10.915   0.148  17.915
  922W        W 1786  11.449  28.071  17.622
  923W        W 1787  14.100  27.766  15.245
  924W        W 1788  14.407  28.766  17.223
  925W        W 1789  12.004  28.794  14.915
  926W        W 1790  12.335  26.985  15.747
  927W        W 1791  11.911  26.790  16.146
  928W        W 1792  12.782  27.605  15.315
  929W        W 1793  12.508  28.815  17.665
  930W        W 1794  11.209  26.394  17.608
  931W        W 1795  11.748  25.553  17.353
  932W        W 1796  13.640  26.203  16.533
  933W        W 1797  13.162  26.854  14.981
  934W        W 1798  13.694  26.505  17.952
  935W        W 1799  11.138  26.088  17.208
  936W        W 1800  11.179  28.758  18.095
  937W        W 1801  12.539  28.066  14.929
  938W        W 1802  11.120  26.723  16.613
  939W        W 1803  11.980  26.710  17.929
  940W        W 1804  14.453  26.601  16.317
  941W        W 1805  14.192  27.643  17.074
  942W        W 1806  12.653  27.075  16.187
  943W        W 1807  13.092  28.237  16.615
  944W        W 1808  11.625  27.727  16.934
  945W        W 1809  10.921  27.186  16.547
  946W        W 1810  12.128  27.294  17.580
  947W        W 1811  14.312  27.095  17.782
  948W        W 1812  11.855  28.381  16.267
  949W        W 1813  12.964  28.140  17.511
  950W        W 1814  12.286  26.784  16.553
  951W        W 1815  12.472  27.602  16.233
  952W        W 1816  13.360  28.352  18.026
  953W        W 1817  12.392  27.475  18.033
  954W        W 1818  12.662  27.265  17.559
  955W        W 1819  11.031  26.734  18.159
  956W        W 1820  13.775  28.345  17.726
  957W        W 1821  11.455  25.809  15.578
  958W        W 1822  11.984  28.125  16.833
  959W        W 1823  14.571  27.928  16.386
  960W        W 1824  13.868  26.643  16.605
  961W        W 1825  14.104  26.401  14.561
  962W        W 1826  14.642  27.107  16.977
  963W        W 1827  12.460  28.795  16.967
  964W        W 1828  14.199  28.283  15.292
  965W        W 1829  11.421  28.933  15.234
  966W        W 1830  11.756  28.852  15.669
  967W        W 1831  11.621  25.916  17.007
  968W        W 1832  14.304  26.915  17.300
  969W        W 1833  13.596  27.220  15.811
  970W        W 1834  13.594  27.105  14.874
  971W        W 1835  12.849  28.057  17.021
  972W        W 1836  12.798  26.287  16.020
  973W        W 1837  13.217  28.403  17.088
  974W        W 1838  14.097  27.367  15.599
  975W        W 1839  12.718  25.954  15.635
  976W        W 1840  11.610  28.468  15.323
  977W        W 1841  11.142  26.146  15.802
  978W        W 1842  13.631  26.881  16.212
  979W        W 1843  11.336  28.341  16.300
  980W        W 1844  12.516  28.595  15.004
  981W        W 1845  13.904  26.858  14.497
  982W        W 1846  11.116  28.542  16.965
  983W        W 1847  11.894  28.121  17.351
  984W        W 1848  12.135  27.525  15.813
  985W        W 1849  12.067  26.032  16.743
  986W        W 1850  14.435  25.835  16.455
  987W        W 1851  11.601  27.617  14.445
  988W        W 1852  11.468  26.478  14.958
  989W        W 1853  11.558  28.353  15.833
  990W        W 1854  12.387  27.992  15.880
  991W        W 1855  13.988  28.777  17.523
  992W        W 1856  12.887  26.599  15.317
  993W        W 1857  14.165  28.936  16.168
  994W        W 1858  13.895  26.858  17.617
  995W        W 1859  14.551  28.231  15.953
  996W        W 1860  13.112  27.677  17.352
  997W        W 1861  10.787  27.293  15.595
  998W        W 1862  12.111  27.702  17.115
  999W        W 1863  13.260  26.908  15.532
 1000W        W 1864  13.143  27.400  15.638
 1001W        W 1865  11.498  26.828  16.999
 1002W        W 1866  11.465  26.753  17.855
 1003W        W 1867  11.392  25.732  16.101
 1004W        W 1868  13.123  26.171  16.405
 1005W        W 1869  12.879  26.255  17.846
 1006W        W 1870  13.065  26.347  14.902
 1007W        W 1871  14.436  28.597  17.773
 1008W        W 1872  13.181  25.813  17.763
 1009W        W 1873  14.190  28.125  17.931
 1010W        W 1874  13.837  26.347  17.484
 1011W        W 1875  13.523  26.182  16.040
 1012W        W 1876  13.882  27.392  18.022
 1013W        W 1877  11.556  28.779  16.132
 1014W        W 1878  12.533  26.339  15.056
 1015W        W 1879  11.833  25.767  17.818
 1016W        W 1880  14.015  26.522  15.441
 1017W        W 1881  14.313  26.950  15.405
 1018W        W 1882  12.124  28.946  17.995
 1019W        W 1883  11.862  25.711  15.223
 1020W        W 1884  14.381  26.149  16.060
 1021W        W 1885  14.435  28.350  14.725
 1022W        W 1886  11.226  27.579  16.408
 1023W        W 1887  13.268  26.198  14.449
 1024W        W 1888  14.555  28.399  16.593
 1025W        W 1889  14.377  25.879  16.982
 1026W        W 1890  12.989  26.853  17.773
 1027W        W 1891  12.874  28.115  15.324
 1028W        W 1892  13.400  27.502  18.239
 1029W        W 1893  12.952  25.705  16.552
 1030W        W 1894  11.556  26.554  16.409
 1031W        W 1895  11.242  27.706  17.283
 1032W        W 1896  13.246  28.610  15.864
 1033W        W 1897  14.333  26.719  16.813
 1034W        W 1898  13.026  28.940  17.508
 1035W        W 1899  14.218  27.730  14.751
 1036W        W 1900  12.640  27.409  15.786
 1037W        W 1901  14.557  26.108  17.592
 1038W        W 1902  12.595  27.691  17.263
 1039W        W 1903  12.818  26.636  16.420
 1040W        W 1904  13.767  26.963  15.380
 1041W        W 1905  14.038  26.740  14.977
 1042W        W 1906  13.758  28.588  15.474
 1043W        W 1907  13.708  28.183  16.206
 1044W        W 1908  13.636  27.453  15.357
 1045W        W 1909  12.984  27.534  16.187
 1046W        W 1910  13.964  27.416  16.108
 1047W        W 1911  11.366  26.332  16.823
 1048W        W 1912  14.002  27.358  17.490
 1049W        W 1913  14.345  28.846  16.677
 1050W        W 1914  12.385  28.419  16.203
 1051W        W 1915  13.526  28.963  17.353
 1052W        W 1916  13.422  26.391  17.085
 1053W        W 1917  12.638   0.184  17.273
 1054W        W 1918  14.398  26.043  15.534
 1055W        W 1919  14.080  27.168  16.901
 1056W        W 1920  11.050  26.603  17.129
 1057W        W 1921  13.967  26.474  16.127
 1058W        W 1922  14.346  26.585  17.686
 1059W        W 1923  13.187  28.158  16.114
 1060W        W 1924  12.489  28.745  15.826
 1061W        W 1925  11.457  25.973  15.074
 1062W        W 1926  12.586  25.932  16.865
 1063W        W 1927  11.533  28.942  14.718
 1064W        W 1928  12.332  27.332  15.346
 1065W        W 1929  12.716  27.760  17.756
 1066W        W 1930  12.480  26.427  15.581
 1067W        W 1931  13.941  25.921  16.208
 1068W        W 1932  13.553   0.064  16.276
 1069W        W 1933  12.932  28.719  16.779
 1070W        W 1934  12.465  27.817  16.763
 1071W        W 1935  14.108  28.463  16.896
 1072W        W 1936  11.931  25.980  15.648
 1073W        W 1937  12.551  28.348  16.693
 1074W        W 1938  11.799  26.225  14.609
 1075W        W 1939  12.701  26.836  16.883
 1076W        W 1940  13.336  25.941  16.838
 1077W        W 1941  10.948  27.601  16.856
 1078W        W 1942  12.668  27.238  14.945
 1079W        W 1943  11.866  25.697  14.640
 1080W        W 1944  12.820  26.757  15.808
 1081W        W 1945  13.569  25.912  17.306
 1082W        W 1946  12.225  27.798  17.613
 1083W        W 1947  13.050  27.386  17.873
 1084W        W 1948  13.522  27.522  17.681
 1085W        W 1949  12.929  25.852  18.209
 1086W        W 1950  12.015  26.321  16.323
 1087W        W 1951  11.615  26.205  16.005
 1088W        W 1952  11.245  28.746  15.682
 1089W        W 1953  12.875  28.517  17.838
 1090W        W 1954  11.895  27.624  15.222
 1091W        W 1955  13.473  27.363  16.325
 1092W        W 1956  13.610  27.054  16.705
 1093W        W 1957  12.948  27.682  16.675
 1094W        W 1958  13.445  28.069  14.709
 1095W        W 1959  13.122  25.873  15.971
 1096W        W 1960  14.522  26.481  15.304
 1097W        W 1961  11.182  28.903  17.535
 1098W        W 1962  11.442  28.171  17.117
 1099W        W 1963  10.894  28.887  15.314
 1100W        W 1964  12.930  26.338  16.857
 1101W        W 1965  12.084  28.307  15.096
 1102W        W 1966  13.973  28.642  15.001
 1103W        W 1967  13.186  27.352  15.107
 1104W        W 1968  11.993  26.481  15.752
 1105W        W 1969  12.697  26.239  14.555
 1106W        W 1970  13.208  27.876  17.870
 1107W        W 1971  13.943  26.125  15.744
 1108W        W 1972  11.024  25.669  14.891
 1109W        W 1973  12.376  28.178  17.175
 1110W        W 1974  12.185  27.994  16.385
 1111W        W 1975  11.899  27.950  14.765
 1112W        W 1976  11.005  28.385  15.381
 1113W        W 1977  11.693  27.202  17.836
 1114W        W 1978  12.401  25.941  18.231
 1115W        W 1979  13.050  25.990  17.271
 1116W        W 1980  12.310  25.637  15.767
 1117W        W 1981  13.243  25.836  14.810
 1118W        W 1982  11.157  25.861  16.754
 1119W        W 1983  11.271  26.610  15.985
 1120W        W 1984  14.152  26.236  16.554
 1121W        W 1985  11.553  26.307  15.486
 1122W        W 1986  13.887  26.160  16.991
 1123W        W 1987  14.380  27.229  14.663
 1124W        W 1988  11.609  26.022  16.494
 1125W        W 1989  12.962  26.518  17.346
 1126W        W 1990  11.029  26.198  14.868
 1127W        W 1991  11.745  27.635  17.459
 1128W        W 1992  13.047  27.114  16.559
 1129W        W 1993  12.953  28.883  14.988
 1130W        W 1994  11.040  27.584  14.614
 1131W        W 1995  11.914  28.124  17.857
 1132W        W 1996  11.416  27.230  17.385
 1133W        W 1997  12.347  27.228  17.112
 1134W        W 1998  14.095  25.908  17.438
 1135W        W 1999  14.510  27.405  17.409
 1136W        W 2000  14.519  27.489  15.099
 1137W        W 2001  13.288  27.823  15.393
 1138W        W 2002  13.842   0.027  14.686
 1139W        W 2003  13.012  27.099  18.287
 1140W        W 2004  11.499  27.964  18.146
 1141W        W 2005  14.643  26.257  18.075
 1142W        W 2006  14.138  27.016  16.382
 1143W        W 2007  12.640  28.944  18.193
 1144W        W 2008  12.281  25.565  14.938
 1145W        W 2009  13.957  28.164  14.808
 1146W        W 2010  11.702  26.285  17.785
 1147W        W 2011  12.462  28.251  17.685
 1148W        W 2012  14.304  26.361  17.209
 1149W        W 2013  13.586  28.982  15.150
 1150W        W 2014  13.781  27.591  16.711
 1151W        W 2015  12.044  26.106  17.257
 1152W        W 2016  12.542  26.983  18.018
 1153W        W 2017  11.877  28.060  15.500
 1154W        W 2018  13.842  27.793  15.694
 1155W        W 2019  11.602  26.388  17.274
 1156W        W 2020  12.784  28.326  15.842
 1157W        W 2021  14.497  27.032  15.976
 1158W        W 2022  12.656  25.780  17.770
 1159W        W 2023  13.619  28.298  16.716
 1160W        W 2024  13.856  28.727  16.528
 1161W        W 2025  13.017  28.357  14.862
 1162W        W 2026  11.096  28.248  17.995
 1163W        W 2027  11.873  26.503  16.806
 1164W        W 2028  11.931  25.805  16.147
 1165W        W 2029  13.329  26.618  16.600
 1166W        W 2030  12.296  27.604  14.883
 1167W        W 2031  14.265  27.526  16.537
 1168W        W 2032  11.563  28.471  17.928
 1169W        W 2033  14.005   0.031  15.598
 1170W        W 2034  12.311  26.116  15.958
 1171W        W 2035  11.701  27.484  16.202
 1172W        W 2036  12.037   0.064  16.989
 1173W        W 2037  14.230   0.066  17.856
 1174W        W 2038  13.320  27.411  16.901
 1175W        W 2039  11.239  26.880  14.646
 1176W        W 2040  14.335  28.660  15.728
 1177W        W 2041  14.086  26.187  15.043
 1178W        W 2042  12.225  25.685  17.496
 1179W        W 2043  14.171  28.420  16.253
 1180W        W 2044  14.014  26.922  15.854
 1181W        W 2045  12.401  26.607  16.088
 1182W        W 2046  13.473  28.047  17.441
 1183W        W 2047  12.084  28.847  16.142
 1184W        W 2048  11.627  28.961  17.806
 1185W        W 2049  11.652  28.444  14.782
 1186W        W 2050  14.028  28.259  15.775
 1187W        W 2051  11.782  26.864  17.449
 1188W        W 2052  14.556  26.839  14.945
 1189W        W 2053  12.339  27.853  15.373
 1190W        W 2054  13.192  27.187  17.430
 1191W        W 2055  13.207  26.883  17.018
 1192W        W 2056  11.831  27.259  17.081
 1193W        W 2057  13.929  28.961  17.003
 1194W        W 2058  13.694  25.921  17.803
 1195W        W 2059  11.385  25.896  17.608
 1196W        W 2060  11.811  27.015  16.610
 1197W        W 2061  12.203  26.565  14.723
 1198W        W 2062  11.081  28.397  17.477
 1199W        W 2063  12.532  27.293  16.638
 1200W        W 2064  12.253  26.037  14.747
 1201W        W 2065  11.655  27.108  15.837
 1202W        W 2066  11.081   0.056  17.032
 1203W        W 2067  14.047  27.276  15.062
 1204W        W 2068  14.131  26.178  17.886
 1205W        W 2069  13.508  28.190  15.718
 1206W        W 2070  11.190  27.181  17.991
 1207W        W 2071  14.420  25.776  15.067
 1208W        W 2072  13.705  28.101  15.250
 1209W        W 2073  12.796  27.092  15.413
 1210W        W 2074  13.732  26.039  14.608
 1211W        W 2075  13.881  26.681  17.106
 1212W        W 2076  11.383  27.051  16.297
 1213W        W 2077  11.874  27.951  15.991
 1214W        W 2078  13.614  26.613  15.760
 1215W        W 2079  12.508  26.213  16.447
 1216W        W 2080  14.458  28.092  16.995
 1217W        W 2081  14.601  26.286  16.756
 1218W        W 2082  11.032  28.737  16.143
 1219W        W 2083  11.346  28.011  15.522
 1220W        W 2084  11.478  25.967  18.135
 1221W        W 2085  12.419  28.486  18.154
 1222W        W 2086  14.507  27.538  16.065
 1223W        W 2087  13.721  27.684  14.917
 1224W        W 2088  13.109   0.168  17.038
 1225W        W 2089  13.703  27.887  18.023
 1226W        W 2090  12.624  25.515  15.318
 1227W        W 2091  13.219  26.583  16.100
 1228W        W 2092  11.201  28.026  16.680
 1229W        W 2093  12.323  25.938  15.307
 1230W        W 2094  11.891  27.638  17.987
 1231W        W 2095  13.167  26.334  15.656
 1232W        W 2096  13.349  27.925  16.955
 1233W        W 2097  11.568  28.569  17.421
 1234W        W 2098  11.920  28.380  18.307
 1235W        W 2099  11.933  26.229  15.121
 1236W        W 2100  13.483  26.530  15.255
 1237W        W 2101  13.319  28.535  17.564
 1238W        W 2102  12.156  27.211  16.245
 1239W        W 2103  11.557  28.879  17.003
 1240W        W 2104  14.326  28.839  14.680
 1241W        W 2105  11.373  27.603  17.788
 1242W        W 2106  13.400  27.847  16.458
 1243W        W 2107  11.640  27.613  15.690
 1244W        W 2108  11.994  28.567  17.124
 1245W        W 2109  12.654  25.797  16.148
 1246W        W 2110  10.937  27.881  15.238
 1247W        W 2111  12.695  26.745  14.764
 1248W        W 2112  11.221  27.381  15.928
 1249W        W 2113  12.561  26.132  17.372
 1250W        W 2114  14.243  25.913  14.605
 1251W        W 2115  14.322  27.614  17.865
 1252W        W 2116  13.127  28.898  18.032
 1253W        W 2117  14.456  27.910  17.477
 1254W        W 2118  14.033  28.620  18.071
 1255W        W 2119  11.762   0.027  16.534
 1256W        W 2120  14.386  27.853  15.650
 1257W        W 2121  13.154  27.076  16.037
 1258W        W 2122  12.799  25.456  15.801
 1259W        W 2123  12.064  28.436  15.798
 1260W        W 2124  12.386  26.410  16.927
 1261W        W 2125  12.315  25.674  16.492
 1262W        W 2126  11.147  28.611  14.927
 1263W        W 2127  12.913  27.844  15.779
 1264W        W 2128  12.035  28.578  17.649
 1265W        W 2129  11.229  27.486  15.416
 1266W        W 2130  11.159  26.218  16.343
 1267W        W 2131  12.727  28.033  16.305
 1268W        W 2132  11.018  25.953  15.342
 1269W        W 2133  13.648  27.114  17.214
 1270W        W 2134  13.555  26.561  14.742
 1271W        W 2135  14.091  28.029  16.609
 1272W        W 2136  12.881  28.563  16.272
 1273W        W 2137  12.164  28.753  15.392
 1274W        W 2138  13.418  25.711  14.331
 1275W        W 2139  11.269  28.843  16.572
 1276W        W 2140  13.246  26.658  18.175
 1277W        W 2141  11.502  26.463  18.269
 1278W        W 2142  11.180  26.958  15.601
 1279W        W 2143  12.408  26.824  15.200
 1280W        W 2144  13.478  27.050  17.890
 1281W        W 2145  12.022  27.543  16.627
 1282W        W 2146  13.459  25.748  16.372
 1283W        W 2147  12.512  28.858  16.448
 1284W        W 2148  13.702  28.497  17.210
 1285W        W 2149  13.382  28.588  16.363
 1286W        W 2150  13.409  27.717  15.944
 1287W        W 2151  12.721  25.876  14.929
 1288W        W 2152  14.731  25.777  16.029
 1289W        W 2153  12.200  27.084  14.763
 1290W        W 2154  14.387  26.569  15.791
 1291W        W 2155  13.030  27.811  14.909
 1292W        W 2156  13.946  27.862  17.563
 1293W        W 2157  13.502  28.596  14.757
 1294W        W 2158  12.214  26.120  17.777
 1295W        W 2159  14.176  28.321  17.398
 1296W        W 2160  13.343  26.265  17.609
 1297W        W 2161  11.075  26.889  17.557
 1298W        W 2162  12.855  27.303  17.050
 1299W        W 2163  11.358  27.893  16.031
 1300W        W 2164  11.389  27.285  16.792
 1301W        W 2165  13.661  27.614  17.210
 1302W        W 2166  13.616  28.856  17.867
 1303W        W 2167  13.427  26.734  17.477
 1304W        W 2168  13.764  28.662  15.992
 1305W        W 2169  12.757  28.543  17.291
 1306W        W 2170  12.097  28.629  16.632
 1307W        W 2171  13.876  28.042  17.077
 1308W        W 2172  12.805  28.101  18.120
 1309W        W 2173  11.660  27.939  16.464
 1310W        W 2174  14.139  27.899  16.115
 1311W        W 2175  13.449  28.796  16.844
 1312W        W 2176  11.603  28.456  16.719
 1313W        W 2177  12.456  26.470  18.077
 1314W        W 2178  12.912  28.619  15.440
 1315W        W 2179  12.313  27.977  18.119
 1316W        W 2180  12.445  28.343  15.465
 1317W        W 2181  11.733  26.743  14.552
 1318W        W 2182  11.086   0.143  21.668
 1319W        W 2183  11.429  28.090  21.209
 1320W        W 2184  14.113  27.651  18.884
 1321W        W 2185  14.325  28.794  20.958
 1322W        W 2186  12.145  28.821  18.487
 1323W        W 2187  12.229  27.020  19.353
 1324W        W 2188  11.817  26.888  19.690
 1325W        W 2189  12.767  27.534  18.845
 1326W        W 2190  12.622  28.725  21.353
 1327W        W 2191  11.085  26.300  21.187
 1328W        W 2192  11.714  25.584  21.099
 1329W        W 2193  13.597  26.178  20.238
 1330W        W 2194  13.162  26.738  18.689
 1331W        W 2195  13.609  26.490  21.575
 1332W        W 2196  11.342  25.881  20.881
 1333W        W 2197  11.192  28.589  21.723
 1334W        W 2198  12.785  28.032  18.646
 1335W        W 2199  11.082  26.746  20.269
 1336W        W 2200  12.121  26.867  21.411
 1337W        W 2201  14.458  26.631  20.025
 1338W        W 2202  14.274  27.664  20.862
 1339W        W 2203  12.701  27.090  19.829
 1340W        W 2204  13.222  28.352  20.213
 1341W        W 2205  11.610  27.618  20.264
 1342W        W 2206  10.869  27.191  20.083
 1343W        W 2207  12.071  27.282  21.089
 1344W        W 2208  14.296  27.060  21.496
 1345W        W 2209  11.831  28.379  19.881
 1346W        W 2210  13.060  28.170  20.987
 1347W        W 2211  12.729  26.673  20.141
 1348W        W 2212  12.543  27.553  19.950
 1349W        W 2213  13.353  28.349  21.799
 1350W        W 2214  12.765  27.551  21.755
 1351W        W 2215  12.572  27.370  21.282
 1352W        W 2216  10.909  26.612  21.562
 1353W        W 2217  13.769  28.254  21.492
 1354W        W 2218  11.457  25.894  19.263
 1355W        W 2219  11.831  28.075  20.308
 1356W        W 2220  14.539  27.993  19.847
 1357W        W 2221  14.090  26.329  20.261
 1358W        W 2222  14.215  26.473  18.304
 1359W        W 2223  14.661  27.112  20.737
 1360W        W 2224  12.474  28.697  20.461
 1361W        W 2225  14.144  28.146  18.767
 1362W        W 2226  11.508   0.188  18.837
 1363W        W 2227  11.801  28.996  19.235
 1364W        W 2228  11.765  25.981  20.564
 1365W        W 2229  14.280  26.902  20.993
 1366W        W 2230  13.610  27.200  19.401
 1367W        W 2231  13.525  27.028  18.400
 1368W        W 2232  12.779  28.248  20.466
 1369W        W 2233  12.693  26.385  19.702
 1370W        W 2234  13.305  28.502  20.701
 1371W        W 2235  14.014  27.171  19.050
 1372W        W 2236  12.668  26.058  19.320
 1373W        W 2237  11.690  28.661  18.812
 1374W        W 2238  11.101  26.174  19.470
 1375W        W 2239  13.568  26.981  19.882
 1376W        W 2240  11.275  28.330  19.816
 1377W        W 2241  12.602  28.665  18.648
 1378W        W 2242  13.970  26.901  18.140
 1379W        W 2243  11.133  28.533  20.587
 1380W        W 2244  11.893  28.298  21.003
 1381W        W 2245  12.109  27.522  19.419
 1382W        W 2246  12.314  26.116  20.654
 1383W        W 2247  14.492  25.799  20.077
 1384W        W 2248  11.522  27.495  18.362
 1385W        W 2249  11.475  26.708  18.726
 1386W        W 2250  11.491  28.243  19.343
 1387W        W 2251  12.473  27.869  19.537
 1388W        W 2252  13.886  28.740  21.299
 1389W        W 2253  12.740  26.477  18.935
 1390W        W 2254  14.133  28.951  19.677
 1391W        W 2255  13.876  26.843  21.302
 1392W        W 2256  14.663  28.269  19.430
 1393W        W 2257  13.222  27.696  20.989
 1394W        W 2258  10.876  27.404  19.160
 1395W        W 2259  11.987  27.782  20.702
 1396W        W 2260  13.185  26.942  19.201
 1397W        W 2261  13.147  27.470  19.220
 1398W        W 2262  11.529  26.804  20.571
 1399W        W 2263  11.374  26.718  21.285
 1400W        W 2264  11.339  25.676  19.718
 1401W        W 2265  13.187  26.024  20.499
 1402W        W 2266  12.808  26.164  21.474
 1403W        W 2267  13.423  26.096  18.618
 1404W        W 2268  14.364  28.585  21.488
 1405W        W 2269  13.189  25.749  21.358
 1406W        W 2270  14.223  28.096  21.672
 1407W        W 2271  13.797  26.320  21.135
 1408W        W 2272  13.856  26.198  19.535
 1409W        W 2273  13.858  27.258  21.689
 1410W        W 2274  11.547  28.766  19.661
 1411W        W 2275  12.305  26.777  18.883
 1412W        W 2276  11.877  25.896  21.524
 1413W        W 2277  13.954  26.612  19.192
 1414W        W 2278  14.390  26.841  19.063
 1415W        W 2279  11.943  28.883  21.711
 1416W        W 2280  11.849  25.787  18.959
 1417W        W 2281  14.313  26.192  19.810
 1418W        W 2282  14.419  28.337  18.351
 1419W        W 2283  11.223  27.559  19.937
 1420W        W 2284  13.332  26.166  18.111
 1421W        W 2285  14.523  28.447  20.153
 1422W        W 2286  14.339  25.893  20.603
 1423W        W 2287  12.961  26.930  21.233
 1424W        W 2288  12.844  27.912  19.186
 1425W        W 2289  13.374  27.455  21.815
 1426W        W 2290  13.154  25.627  20.163
 1427W        W 2291  11.562  26.645  20.071
 1428W        W 2292  11.260  27.657  20.847
 1429W        W 2293  13.144  28.733  19.848
 1430W        W 2294  14.317  26.804  20.486
 1431W        W 2295  13.080  28.896  21.198
 1432W        W 2296  14.160  27.777  18.347
 1433W        W 2297  12.638  27.383  19.362
 1434W        W 2298  14.453  25.974  21.337
 1435W        W 2299  12.732  27.818  20.805
 1436W        W 2300  13.217  26.550  20.264
 1437W        W 2301  13.603  26.934  18.899
 1438W        W 2302  14.077  26.856  18.645
 1439W        W 2303  13.875  28.474  19.078
 1440W        W 2304  13.598  28.009  20.032
 1441W        W 2305  13.613  27.463  18.962
 1442W        W 2306  13.164  27.227  19.661
 1443W        W 2307  13.865  27.413  19.852
 1444W        W 2308  11.419  26.317  20.421
 1445W        W 2309  14.032  27.336  21.176
 1446W        W 2310  14.443  28.903  20.403
 1447W        W 2311  12.307  28.338  19.708
 1448W        W 2312  13.524  28.930  20.912
 1449W        W 2313  13.456  26.390  20.714
 1450W        W 2314  12.620   0.077  20.978
 1451W        W 2315  14.315  26.130  19.290
 1452W        W 2316  14.175  27.298  20.528
 1453W        W 2317  11.077  26.522  20.726
 1454W        W 2318  13.955  26.604  19.818
 1455W        W 2319  14.327  26.561  21.377
 1456W        W 2320  13.221  28.162  19.734
 1457W        W 2321  12.332  28.830  19.505
 1458W        W 2322  11.535  26.087  18.656
 1459W        W 2323  12.697  25.846  20.387
 1460W        W 2324  11.654  28.825  18.310
 1461W        W 2325  12.309  27.299  18.931
 1462W        W 2326  12.822  27.839  21.325
 1463W        W 2327  12.341  26.480  19.293
 1464W        W 2328  14.080  25.748  19.718
 1465W        W 2329  13.686   0.034  19.931
 1466W        W 2330  12.974  28.774  20.380
 1467W        W 2331  12.449  27.825  20.378
 1468W        W 2332  14.225  28.461  20.581
 1469W        W 2333  11.900  26.200  19.260
 1470W        W 2334  12.288  28.282  20.213
 1471W        W 2335  11.977  26.260  18.243
 1472W        W 2336  12.854  26.877  20.608
 1473W        W 2337  13.562  25.687  20.474
 1474W        W 2338  11.002  27.618  20.396
 1475W        W 2339  12.539  27.228  18.477
 1476W        W 2340  11.891  25.739  18.333
 1477W        W 2341  12.715  26.824  19.389
 1478W        W 2342  13.473  25.903  20.944
 1479W        W 2343  12.299  27.798  21.115
 1480W        W 2344  13.086  27.402  21.390
 1481W        W 2345  13.586  27.531  21.335
 1482W        W 2346  12.854  25.785  21.840
 1483W        W 2347  12.072  26.705  20.178
 1484W        W 2348  11.595  26.413  19.612
 1485W        W 2349  11.311  28.790  19.176
 1486W        W 2350  12.983  28.372  21.445
 1487W        W 2351  11.895  27.588  18.875
 1488W        W 2352  13.395  27.507  20.029
 1489W        W 2353  13.696  27.197  20.329
 1490W        W 2354  12.805  27.438  20.386
 1491W        W 2355  13.252  27.995  18.367
 1492W        W 2356  12.940  26.167  20.078
 1493W        W 2357  14.693  26.445  19.083
 1494W        W 2358  11.068  28.810  21.269
 1495W        W 2359  11.481  28.138  20.698
 1496W        W 2360  10.845  28.707  18.919
 1497W        W 2361  12.803  26.339  20.552
 1498W        W 2362  12.296  28.228  18.640
 1499W        W 2363  14.100  28.665  18.640
 1500W        W 2364  13.199  27.262  18.736
 1501W        W 2365  11.848  26.706  19.195
 1502W        W 2366  12.939  26.316  18.430
 1503W        W 2367  13.311  27.934  21.489
 1504W        W 2368  13.862  26.103  19.013
 1505W        W 2369  11.086  25.883  18.490
 1506W        W 2370  12.326  28.182  20.723
 1507W        W 2371  12.120  27.855  19.934
 1508W        W 2372  11.915  27.882  18.447
 1509W        W 2373  11.236  28.355  18.887
 1510W        W 2374  11.643  27.170  21.368
 1511W        W 2375  12.368  25.840  21.682
 1512W        W 2376  12.937  26.002  20.959
 1513W        W 2377  12.193  25.798  19.397
 1514W        W 2378  13.408  26.050  19.343
 1515W        W 2379  11.254  25.833  20.394
 1516W        W 2380  11.372  26.825  19.407
 1517W        W 2381  13.991  25.805  20.221
 1518W        W 2382  11.449  26.374  19.103
 1519W        W 2383  13.868  26.073  20.660
 1520W        W 2384  14.340  27.265  18.263
 1521W        W 2385  11.856  26.225  20.118
 1522W        W 2386  12.741  26.488  21.049
 1523W        W 2387  11.091  26.384  18.569
 1524W        W 2388  11.712  27.656  21.133
 1525W        W 2389  13.121  27.071  20.176
 1526W        W 2390  13.066  28.991  18.565
 1527W        W 2391  11.038  27.652  18.156
 1528W        W 2392  11.924  28.026  21.445
 1529W        W 2393  11.317  27.109  20.943
 1530W        W 2394  12.400  27.418  20.723
 1531W        W 2395  14.002  25.846  21.092
 1532W        W 2396  14.561  27.404  21.190
 1533W        W 2397  14.444  27.264  18.760
 1534W        W 2398  13.228  27.785  18.826
 1535W        W 2399  13.963   0.050  18.320
 1536W        W 2400  12.990  27.080  21.804
 1537W        W 2401  11.452  28.080  21.731
 1538W        W 2402  14.559  26.249  21.758
 1539W        W 2403  14.114  27.025  20.066
 1540W        W 2404  12.455  28.924  21.830
 1541W        W 2405  12.246  25.642  18.675
 1542W        W 2406  13.865  28.239  18.350
 1543W        W 2407  11.792  26.411  21.359
 1544W        W 2408  12.558  28.245  21.176
 1545W        W 2409  14.295  26.280  20.944
 1546W        W 2410  13.661   0.024  18.738
 1547W        W 2411  13.834  27.683  20.333
 1548W        W 2412  11.945  26.044  21.032
 1549W        W 2413  12.463  27.131  21.741
 1550W        W 2414  11.889  28.163  18.968
 1551W        W 2415  14.002  27.567  19.372
 1552W        W 2416  11.532  26.362  20.924
 1553W        W 2417  12.779  28.314  19.529
 1554W        W 2418  14.573  27.029  19.724
 1555W        W 2419  12.702  25.640  21.363
 1556W        W 2420  13.715  28.380  20.392
 1557W        W 2421  14.055  28.685  20.124
 1558W        W 2422  12.995  28.511  18.356
 1559W        W 2423  10.988  28.109  21.492
 1560W        W 2424  11.918  26.467  20.605
 1561W        W 2425  11.770  25.942  19.687
 1562W        W 2426  13.721  26.688  20.280
 1563W        W 2427  12.386  27.705  18.542
 1564W        W 2428  14.330  27.682  20.207
 1565W        W 2429  11.660  28.489  21.485
 1566W        W 2430  14.041   0.013  19.113
 1567W        W 2431  12.183  26.234  19.710
 1568W        W 2432  11.707  27.418  19.757
 1569W        W 2433  12.162   0.053  20.696
 1570W        W 2434  14.236   0.079  21.426
 1571W        W 2435  13.299  27.446  20.542
 1572W        W 2436  11.223  27.097  18.501
 1573W        W 2437  14.323  28.623  19.282
 1574W        W 2438  14.245  26.395  18.816
 1575W        W 2439  12.205  25.604  21.232
 1576W        W 2440  14.192  28.388  19.726
 1577W        W 2441  14.080  27.028  19.542
 1578W        W 2442  12.337  26.731  19.758
 1579W        W 2443  12.475  26.951  20.986
 1580W        W 2444  13.580  28.054  21.052
 1581W        W 2445  12.211  26.498  21.042
 1582W        W 2446  12.206  28.757  20.011
 1583W        W 2447  11.510  28.985  21.449
 1584W        W 2448  11.399  28.390  18.412
 1585W        W 2449  14.185  28.093  19.288
 1586W        W 2450  11.797  26.820  21.010
 1587W        W 2451  14.588  26.729  18.611
 1588W        W 2452  12.339  27.805  19.040
 1589W        W 2453  13.374  27.209  21.013
 1590W        W 2454  13.369  26.901  20.606
 1591W        W 2455  11.698  27.348  20.700
 1592W        W 2456  13.943  28.899  20.575
 1593W        W 2457  13.642  25.947  21.453
 1594W        W 2458  11.385  25.911  21.381
 1595W        W 2459  11.759  27.110  20.183
 1596W        W 2460  12.171  26.818  18.395
 1597W        W 2461  10.964  28.354  21.036
 1598W        W 2462  12.450  27.080  20.287
 1599W        W 2463  12.390  26.349  18.563
 1600W        W 2464  11.734  27.206  19.268
 1601W        W 2465  11.149   0.006  20.792
 1602W        W 2466  13.909  27.329  18.542
 1603W        W 2467  14.056  26.205  21.610
 1604W        W 2468  13.723  28.216  19.525
 1605W        W 2469  11.115  27.116  21.496
 1606W        W 2470  14.345  25.898  18.835
 1607W        W 2471  13.727  27.946  19.082
 1608W        W 2472  12.762  27.023  18.913
 1609W        W 2473  13.818  26.110  18.275
 1610W        W 2474  13.939  26.578  20.728
 1611W        W 2475  11.328  27.054  19.877
 1612W        W 2476  11.977  28.022  19.463
 1613W        W 2477  13.536  26.674  19.473
 1614W        W 2478  12.413  26.277  20.170
 1615W        W 2479  14.537  28.082  20.749
 1616W        W 2480  14.540  26.339  20.481
 1617W        W 2481  11.013  28.722  19.618
 1618W        W 2482  11.496  27.904  18.742
 1619W        W 2483  11.425  25.919  21.892
 1620W        W 2484  12.599  28.441  21.774
 1621W        W 2485  14.386  27.497  19.742
 1622W        W 2486  13.694  27.801  18.570
 1623W        W 2487  13.168   0.196  20.640
 1624W        W 2488  13.784  27.775  21.735
 1625W        W 2489  12.561  25.612  19.075
 1626W        W 2490  13.366  26.313  19.797
 1627W        W 2491  11.286  28.030  20.233
 1628W        W 2492  12.291  26.071  18.968
 1629W        W 2493  12.164  27.546  21.545
 1630W        W 2494  13.068  26.439  19.346
 1631W        W 2495  13.438  27.972  20.565
 1632W        W 2496  11.442  28.577  21.006
 1633W        W 2497  12.112  28.439  21.911
 1634W        W 2498  11.918  26.427  18.762
 1635W        W 2499  13.470  26.452  19.005
 1636W        W 2500  13.415  28.510  21.222
 1637W        W 2501  12.177  27.214  19.851
 1638W        W 2502  11.638  28.906  20.656
 1639W        W 2503  14.448  28.856  18.289
 1640W        W 2504  11.202  27.637  21.374
 1641W        W 2505  13.072  27.853  20.222
 1642W        W 2506  11.601  27.725  19.285
 1643W        W 2507  12.308  28.643  20.950
 1644W        W 2508  12.527  25.861  19.844
 1645W        W 2509  11.058  28.010  18.509
 1646W        W 2510  12.685  26.749  18.475
 1647W        W 2511  11.276  27.351  19.458
 1648W        W 2512  12.449  26.044  21.142
 1649W        W 2513  14.317  25.953  18.330
 1650W        W 2514  14.267  27.567  21.604
 1651W        W 2515  12.974  28.817  21.741
 1652W        W 2516  14.521  27.917  21.281
 1653W        W 2517  13.967  28.618  21.805
 1654W        W 2518  11.748  28.952  20.154
 1655W        W 2519  14.579  27.772  19.333
 1656W        W 2520  13.087  26.736  19.770
 1657W        W 2521  13.035  25.871  19.678
 1658W        W 2522  11.924  28.523  19.385
 1659W        W 2523  12.402  26.633  20.572
 1660W        W 2524  12.173  25.821  20.243
 1661W        W 2525  11.214  28.846  18.602
 1662W        W 2526  12.969  27.707  19.676
 1663W        W 2527  12.170  28.497  21.416
 1664W        W 2528  11.412  27.412  18.910
 1665W        W 2529  11.324  26.124  19.957
 1666W        W 2530  12.681  28.045  19.967
 1667W        W 2531  11.010  25.978  18.990
 1668W        W 2532  13.814  27.057  20.812
 1669W        W 2533  13.672  26.549  18.506
 1670W        W 2534  14.111  28.142  20.192
 1671W        W 2535  12.694  28.543  20.008
 1672W        W 2536  12.188  28.723  18.991
 1673W        W 2537  13.454  25.689  18.237
 1674W        W 2538  11.211  28.825  20.087
 1675W        W 2539  13.106  26.607  21.632
 1676W        W 2540  11.364  26.357  21.650
 1677W        W 2541  11.134  26.996  18.998
 1678W        W 2542  11.860  27.050  18.789
 1679W        W 2543  13.429  27.017  21.522
 1680W        W 2544  12.101  27.465  20.300
 1681W        W 2545  13.565  25.842  19.847
 1682W        W 2546  12.677   0.051  20.009
 1683W        W 2547  13.794  28.496  20.871
 1684W        W 2548  13.613  28.523  19.915
 1685W        W 2549  13.520  27.711  19.556
 1686W        W 2550  12.691  25.928  18.673
 1687W        W 2551  14.600  25.729  19.558
 1688W        W 2552  12.031  27.349  18.404
 1689W        W 2553  14.401  26.597  19.506
 1690W        W 2554  12.869  27.615  18.314
 1691W        W 2555  13.995  27.841  21.258
 1692W        W 2556  13.579  28.676  18.359
 1693W        W 2557  12.255  26.309  21.538
 1694W        W 2558  12.061  27.008  20.615
 1695W        W 2559  14.186  28.288  21.109
 1696W        W 2560  13.266  26.267  21.244
 1697W        W 2561  10.910  26.817  21.093
 1698W        W 2562  12.888  27.315  20.882
 1699W        W 2563  11.160  27.867  19.527
 1700W        W 2564  11.302  27.216  20.380
 1701W        W 2565  13.725  27.582  20.831
 1702W        W 2566  13.501  28.813  21.643
 1703W        W 2567  13.431  26.717  21.100
 1704W        W 2568  13.695  28.782  19.466
 1705W        W 2569  12.812  28.604  20.859
 1706W        W 2570  11.984  28.548  20.540
 1707W        W 2571  13.963  28.032  20.698
 1708W        W 2572  12.916  28.035  21.827
 1709W        W 2573  11.599  27.919  19.815
 1710W        W 2574  14.036  27.886  19.765
 1711W        W 2575  13.482  28.835  20.353
 1712W        W 2576  11.536  28.491  20.286
 1713W        W 2577  12.606  26.679  21.531
 1714W        W 2578  12.697  28.674  19.165
 1715W        W 2579  12.418  27.983  21.636
 1716W        W 2580  12.362  28.283  19.197
 1717W        W 2581  11.674  26.964  18.296
 1718W        W 2582  11.085   0.066  25.261
 1719W        W 2583  11.514  28.096  24.932
 1720W        W 2584  14.170  27.738  22.625
 1721W        W 2585  14.333  28.821  24.611
 1722W        W 2586  11.942  28.819  22.239
 1723W        W 2587  12.289  26.979  22.980
 1724W        W 2588  11.842  26.771  23.420
 1725W        W 2589  12.908  27.410  22.674
 1726W        W 2590  12.476  28.760  24.925
 1727W        W 2591  11.263  26.347  24.886
 1728W        W 2592  11.800  25.469  24.762
 1729W        W 2593  13.595  26.045  23.609
 1730W        W 2594  13.169  26.746  22.196
 1731W        W 2595  13.691  26.374  25.328
 1732W        W 2596  11.194  26.067  24.472
 1733W        W 2597  11.281  28.541  25.228
 1734W        W 2598  12.496  28.106  22.159
 1735W        W 2599  11.063  26.697  23.940
 1736W        W 2600  11.969  26.782  25.174
 1737W        W 2601  14.311  26.666  23.623
 1738W        W 2602  14.286  27.616  24.481
 1739W        W 2603  12.686  27.002  23.580
 1740W        W 2604  13.186  28.314  23.841
 1741W        W 2605  11.579  27.643  24.209
 1742W        W 2606  10.944  27.195  23.859
 1743W        W 2607  12.122  27.174  24.834
 1744W        W 2608  14.307  27.031  25.150
 1745W        W 2609  11.866  28.408  23.585
 1746W        W 2610  13.037  28.138  24.691
 1747W        W 2611  12.413  26.717  23.922
 1748W        W 2612  12.488  27.607  23.584
 1749W        W 2613  13.323  28.390  25.381
 1750W        W 2614  12.611  27.507  25.370
 1751W        W 2615  12.634  27.330  24.886
 1752W        W 2616  11.047  26.745  25.542
 1753W        W 2617  13.751  28.265  25.109
 1754W        W 2618  11.468  25.839  22.956
 1755W        W 2619  12.054  28.250  24.144
 1756W        W 2620  14.571  27.918  23.586
 1757W        W 2621  13.943  26.406  23.880
 1758W        W 2622  14.177  26.372  22.093
 1759W        W 2623  14.554  27.150  24.326
 1760W        W 2624  12.518  28.949  24.105
 1761W        W 2625  14.157  28.235  22.393
 1762W        W 2626  11.436  28.984  22.514
 1763W        W 2627  11.773  28.855  22.961
 1764W        W 2628  11.646  25.838  24.380
 1765W        W 2629  14.217  26.898  24.627
 1766W        W 2630  13.601  27.179  23.243
 1767W        W 2631  13.637  27.031  22.102
 1768W        W 2632  12.885  28.096  24.192
 1769W        W 2633  12.769  26.366  23.386
 1770W        W 2634  13.276  28.416  24.343
 1771W        W 2635  14.037  27.336  22.999
 1772W        W 2636  12.698  26.029  22.978
 1773W        W 2637  11.538  28.489  22.623
 1774W        W 2638  11.152  26.219  23.141
 1775W        W 2639  13.669  26.743  23.587
 1776W        W 2640  11.329  28.366  23.631
 1777W        W 2641  12.457  28.613  22.267
 1778W        W 2642  14.003  26.761  21.809
 1779W        W 2643  11.142  28.509  24.285
 1780W        W 2644  11.982  28.271  24.691
 1781W        W 2645  12.154  27.583  23.103
 1782W        W 2646  12.039  26.069  24.105
 1783W        W 2647  14.544  25.764  23.818
 1784W        W 2648  11.663  27.611  21.651
 1785W        W 2649  11.422  26.317  22.216
 1786W        W 2650  11.557  28.376  23.151
 1787W        W 2651  12.403  28.022  23.236
 1788W        W 2652  13.882  28.740  24.867
 1789W        W 2653  12.845  26.433  22.488
 1790W        W 2654  14.162  28.915  23.444
 1791W        W 2655  13.880  26.784  25.005
 1792W        W 2656  14.593  28.279  23.179
 1793W        W 2657  13.227  27.664  24.691
 1794W        W 2658  10.698  27.346  23.013
 1795W        W 2659  12.033  27.813  24.395
 1796W        W 2660  13.188  26.948  22.709
 1797W        W 2661  13.119  27.271  23.111
 1798W        W 2662  11.441  26.751  24.328
 1799W        W 2663  11.448  26.724  25.196
 1800W        W 2664  11.394  25.817  23.472
 1801W        W 2665  13.066  26.086  23.767
 1802W        W 2666  12.839  26.210  25.204
 1803W        W 2667  13.258  26.174  22.251
 1804W        W 2668  14.413  28.601  25.095
 1805W        W 2669  13.266  25.671  25.052
 1806W        W 2670  14.215  28.120  25.258
 1807W        W 2671  13.774  26.323  24.782
 1808W        W 2672  13.538  26.189  23.056
 1809W        W 2673  13.904  27.303  25.402
 1810W        W 2674  11.559  28.799  23.438
 1811W        W 2675  12.308  26.566  22.425
 1812W        W 2676  11.919  25.864  25.094
 1813W        W 2677  13.898  26.508  22.868
 1814W        W 2678  14.262  26.877  22.783
 1815W        W 2679  12.032  28.922  25.205
 1816W        W 2680  12.007  25.691  22.542
 1817W        W 2681  14.381  26.155  23.520
 1818W        W 2682  14.421  28.445  22.003
 1819W        W 2683  11.277  27.593  23.762
 1820W        W 2684  13.260  26.132  21.740
 1821W        W 2685  14.502  28.424  23.760
 1822W        W 2686  14.363  25.793  24.299
 1823W        W 2687  12.958  26.929  25.075
 1824W        W 2688  12.885  28.132  22.540
 1825W        W 2689  13.419  27.487  25.523
 1826W        W 2690  13.147  25.583  23.620
 1827W        W 2691  11.580  26.672  23.847
 1828W        W 2692  11.264  27.789  24.615
 1829W        W 2693  13.243  28.636  23.079
 1830W        W 2694  14.230  26.773  24.124
 1831W        W 2695  13.020  28.882  24.853
 1832W        W 2696  14.172  27.787  22.094
 1833W        W 2697  12.614  27.345  23.146
 1834W        W 2698  14.542  25.716  24.826
 1835W        W 2699  12.748  27.725  24.534
 1836W        W 2700  12.925  26.585  23.829
 1837W        W 2701  13.723  26.996  22.750
 1838W        W 2702  13.964  26.727  22.388
 1839W        W 2703  13.819  28.546  22.663
 1840W        W 2704  13.686  28.022  23.536
 1841W        W 2705  13.459  27.446  22.751
 1842W        W 2706  12.971  27.418  23.582
 1843W        W 2707  13.863  27.537  23.487
 1844W        W 2708  14.045  27.335  24.848
 1845W        W 2709  14.416  28.880  23.990
 1846W        W 2710  12.393  28.442  23.527
 1847W        W 2711  13.456  28.894  24.512
 1848W        W 2712  13.353  26.308  24.474
 1849W        W 2713  12.660   0.101  24.561
 1850W        W 2714  14.330  26.020  23.012
 1851W        W 2715  14.038  27.254  24.219
 1852W        W 2716  10.997  26.533  24.447
 1853W        W 2717  13.935  26.350  23.357
 1854W        W 2718  14.377  26.541  24.974
 1855W        W 2719  13.219  28.154  23.352
 1856W        W 2720  12.518  28.707  23.101
 1857W        W 2721  11.518  25.851  22.428
 1858W        W 2722  12.784  25.740  24.022
 1859W        W 2723  11.494  28.968  21.980
 1860W        W 2724  12.391  27.367  22.638
 1861W        W 2725  12.782  27.856  25.028
 1862W        W 2726  12.523  26.496  22.906
 1863W        W 2727  14.021  25.806  23.361
 1864W        W 2728  13.689   0.004  23.601
 1865W        W 2729  12.962  28.729  24.016
 1866W        W 2730  12.469  27.800  24.086
 1867W        W 2731  14.251  28.461  24.238
 1868W        W 2732  11.962  26.003  22.938
 1869W        W 2733  12.537  28.419  24.016
 1870W        W 2734  11.836  26.283  21.871
 1871W        W 2735  12.768  26.730  24.309
 1872W        W 2736  13.427  25.826  24.049
 1873W        W 2737  11.071  27.524  24.236
 1874W        W 2738  12.698  27.247  22.209
 1875W        W 2739  11.903  25.797  22.035
 1876W        W 2740  12.818  26.856  23.114
 1877W        W 2741  13.537  25.854  24.644
 1878W        W 2742  12.305  27.747  24.840
 1879W        W 2743  13.078  27.443  25.153
 1880W        W 2744  13.590  27.493  25.013
 1881W        W 2745  12.849  25.818  25.552
 1882W        W 2746  12.058  26.407  23.710
 1883W        W 2747  11.669  26.263  23.288
 1884W        W 2748  11.257  28.773  22.985
 1885W        W 2749  12.884  28.416  25.100
 1886W        W 2750  12.197  27.850  22.497
 1887W        W 2751  13.453  27.330  23.729
 1888W        W 2752  13.643  26.973  24.038
 1889W        W 2753  12.931  27.582  24.069
 1890W        W 2754  13.359  27.905  22.079
 1891W        W 2755  13.119  25.981  23.266
 1892W        W 2756  14.303  26.357  22.614
 1893W        W 2757  11.087  28.796  24.824
 1894W        W 2758  11.594  28.120  24.396
 1895W        W 2759  10.914  28.950  22.655
 1896W        W 2760  12.901  26.226  24.237
 1897W        W 2761  12.017  28.337  22.400
 1898W        W 2762  14.112  28.766  22.310
 1899W        W 2763  13.220  27.285  22.281
 1900W        W 2764  12.019  26.517  22.989
 1901W        W 2765  12.827  26.296  21.971
 1902W        W 2766  13.333  27.933  25.127
 1903W        W 2767  13.874  25.836  22.852
 1904W        W 2768  11.037  25.716  22.188
 1905W        W 2769  12.451  28.139  24.474
 1906W        W 2770  12.192  28.009  23.715
 1907W        W 2771  11.980  27.949  21.960
 1908W        W 2772  10.934  28.427  22.690
 1909W        W 2773  11.673  27.211  25.097
 1910W        W 2774  12.389  25.894  25.303
 1911W        W 2775  13.008  25.948  24.675
 1912W        W 2776  12.330  25.685  23.124
 1913W        W 2777  13.160  25.989  22.731
 1914W        W 2778  11.255  25.889  24.006
 1915W        W 2779  11.282  26.621  23.437
 1916W        W 2780  14.049  25.894  23.871
 1917W        W 2781  11.577  26.310  22.761
 1918W        W 2782  13.806  26.107  24.278
 1919W        W 2783  14.291  27.183  21.997
 1920W        W 2784  11.629  26.154  23.787
 1921W        W 2785  12.924  26.472  24.745
 1922W        W 2786  10.914  26.221  22.129
 1923W        W 2787  11.776  27.635  24.801
 1924W        W 2788  13.034  27.071  23.970
 1925W        W 2789  12.844  28.952  22.254
 1926W        W 2790  10.917  27.806  21.905
 1927W        W 2791  11.982  28.015  25.151
 1928W        W 2792  11.429  27.281  24.592
 1929W        W 2793  12.356  27.421  24.440
 1930W        W 2794  14.052  25.897  24.686
 1931W        W 2795  14.568  27.375  24.834
 1932W        W 2796  14.559  27.510  22.311
 1933W        W 2797  13.250  27.926  22.874
 1934W        W 2798  13.828   0.087  21.970
 1935W        W 2799  13.070  27.079  25.565
 1936W        W 2800  11.525  28.008  25.439
 1937W        W 2801  14.582  26.087  25.220
 1938W        W 2802  14.041  27.106  23.705
 1939W        W 2803  12.521  28.898  25.441
 1940W        W 2804  12.382  25.663  22.166
 1941W        W 2805  13.807  28.184  22.029
 1942W        W 2806  11.748  26.333  25.032
 1943W        W 2807  12.421  28.244  24.970
 1944W        W 2808  14.220  26.369  24.495
 1945W        W 2809  13.641   0.057  22.456
 1946W        W 2810  13.737  27.699  23.979
 1947W        W 2811  12.052  26.031  24.627
 1948W        W 2812  12.381  27.067  25.282
 1949W        W 2813  11.832  28.083  22.807
 1950W        W 2814  13.783  27.782  22.997
 1951W        W 2815  11.644  26.331  24.538
 1952W        W 2816  12.821  28.269  23.052
 1953W        W 2817  14.513  26.996  23.263
 1954W        W 2818  12.761  25.666  25.051
 1955W        W 2819  13.655  28.234  24.006
 1956W        W 2820  13.971  28.628  23.844
 1957W        W 2821  12.963  28.458  22.142
 1958W        W 2822  11.051  28.079  25.248
 1959W        W 2823  11.946  26.581  24.203
 1960W        W 2824  11.924  25.824  23.442
 1961W        W 2825  13.425  26.440  23.973
 1962W        W 2826  12.351  27.600  22.048
 1963W        W 2827  14.227  27.594  23.864
 1964W        W 2828  11.777  28.490  25.136
 1965W        W 2829  14.054   0.045  22.756
 1966W        W 2830  12.294  26.171  23.304
 1967W        W 2831  11.740  27.535  23.518
 1968W        W 2832  12.048   0.077  24.293
 1969W        W 2833  14.183   0.063  25.139
 1970W        W 2834  13.356  27.351  24.262
 1971W        W 2835  11.205  26.734  21.963
 1972W        W 2836  14.295  28.672  23.001
 1973W        W 2837  13.839  26.184  22.450
 1974W        W 2838  12.292  25.618  24.835
 1975W        W 2839  14.055  28.413  23.387
 1976W        W 2840  14.008  26.865  23.229
 1977W        W 2841  12.354  26.676  23.385
 1978W        W 2842  12.520  26.804  24.846
 1979W        W 2843  13.570  28.069  24.669
 1980W        W 2844  12.108  26.535  24.719
 1981W        W 2845  12.090  28.852  23.418
 1982W        W 2846  11.543  28.961  25.012
 1983W        W 2847  11.608  28.467  22.049
 1984W        W 2848  14.138  28.187  22.900
 1985W        W 2849  11.702  26.844  24.740
 1986W        W 2850  14.484  26.737  22.325
 1987W        W 2851  12.602  27.802  22.818
 1988W        W 2852  13.253  27.169  24.749
 1989W        W 2853  13.274  26.814  24.362
 1990W        W 2854  11.880  27.237  24.365
 1991W        W 2855  13.950  28.947  24.263
 1992W        W 2856  13.697  25.848  25.234
 1993W        W 2857  11.438  25.841  24.876
 1994W        W 2858  11.971  27.010  23.902
 1995W        W 2859  12.192  26.680  21.888
 1996W        W 2860  11.046  28.274  24.745
 1997W        W 2861  12.509  27.248  23.987
 1998W        W 2862  12.326  26.182  22.068
 1999W        W 2863  11.805  27.191  23.132
 2000W        W 2864  11.090   0.029  24.372
 2001W        W 2865  14.084  27.249  22.464
 2002W        W 2866  14.097  26.135  25.125
 2003W        W 2867  13.643  28.271  23.071
 2004W        W 2868  11.193  27.174  25.269
 2005W        W 2869  14.293  25.854  22.528
 2006W        W 2870  13.704  28.006  22.532
 2007W        W 2871  12.677  26.915  22.611
 2008W        W 2872  13.728  26.017  21.962
 2009W        W 2873  13.780  26.609  24.357
 2010W        W 2874  11.439  27.103  23.553
 2011W        W 2875  11.881  27.984  23.307
 2012W        W 2876  13.477  26.712  23.093
 2013W        W 2877  12.530  26.204  23.844
 2014W        W 2878  14.530  28.054  24.357
 2015W        W 2879  14.447  26.271  24.031
 2016W        W 2880  11.040  28.786  23.447
 2017W        W 2881  11.278  28.062  22.853
 2018W        W 2882  11.521  25.951  25.404
 2019W        W 2883  12.699  28.444  25.604
 2020W        W 2884  14.370  27.466  23.383
 2021W        W 2885  13.716  27.546  22.226
 2022W        W 2886  13.088   0.180  24.245
 2023W        W 2887  13.809  27.810  25.372
 2024W        W 2888  12.526  25.560  22.658
 2025W        W 2889  13.280  26.428  23.460
 2026W        W 2890  11.222  28.041  24.048
 2027W        W 2891  12.362  26.073  22.600
 2028W        W 2892  12.087  27.510  25.256
 2029W        W 2893  13.064  26.433  22.963
 2030W        W 2894  13.345  27.890  24.251
 2031W        W 2895  11.498  28.536  24.682
 2032W        W 2896  12.222  28.467  25.396
 2033W        W 2897  11.912  26.188  22.388
 2034W        W 2898  13.451  26.514  22.600
 2035W        W 2899  13.373  28.508  24.861
 2036W        W 2900  12.203  27.187  23.474
 2037W        W 2901  11.573  28.891  24.316
 2038W        W 2902  14.350  28.962  21.908
 2039W        W 2903  11.338  27.634  25.096
 2040W        W 2904  13.254  27.820  23.755
 2041W        W 2905  11.603  27.657  23.005
 2042W        W 2906  12.290  28.626  24.429
 2043W        W 2907  12.673  25.851  23.495
 2044W        W 2908  10.948  27.981  22.415
 2045W        W 2909  12.663  26.758  22.078
 2046W        W 2910  11.191  27.451  23.261
 2047W        W 2911  12.528  26.100  24.803
 2048W        W 2912  14.229  25.873  22.022
 2049W        W 2913  14.313  27.584  25.243
 2050W        W 2914  13.030  28.830  25.380
 2051W        W 2915  14.502  27.907  24.869
 2052W        W 2916  13.995  28.621  25.382
 2053W        W 2917  11.741   0.061  23.837
 2054W        W 2918  14.525  27.797  23.014
 2055W        W 2919  13.193  26.933  23.493
 2056W        W 2920  12.848  25.559  23.099
 2057W        W 2921  12.075  28.437  23.099
 2058W        W 2922  12.406  26.360  24.340
 2059W        W 2923  12.284  25.699  23.816
 2060W        W 2924  11.133  28.645  22.250
 2061W        W 2925  12.884  27.781  23.241
 2062W        W 2926  11.926  28.806  24.718
 2063W        W 2927  11.097  27.585  22.756
 2064W        W 2928  12.752  28.062  23.669
 2065W        W 2929  11.121  26.114  22.625
 2066W        W 2930  13.709  27.061  24.574
 2067W        W 2931  13.621  26.505  22.084
 2068W        W 2932  14.118  28.098  23.834
 2069W        W 2933  12.916  28.563  23.483
 2070W        W 2934  12.206  28.771  22.686
 2071W        W 2935  13.350  25.655  21.887
 2072W        W 2936  11.255  28.838  23.899
 2073W        W 2937  13.214  26.585  25.370
 2074W        W 2938  11.449  26.418  25.607
 2075W        W 2939  10.831  26.859  22.309
 2076W        W 2940  11.804  26.672  22.225
 2077W        W 2941  13.472  27.036  25.238
 2078W        W 2942  12.047  27.534  23.942
 2079W        W 2943  13.531  25.675  23.235
 2080W        W 2944  12.573  28.916  23.603
 2081W        W 2945  13.775  28.488  24.435
 2082W        W 2946  13.544  28.522  23.528
 2083W        W 2947  13.391  27.654  23.298
 2084W        W 2948  12.788  25.936  22.349
 2085W        W 2949  14.613  25.689  23.312
 2086W        W 2950  11.955  27.174  21.824
 2087W        W 2951  14.385  26.512  23.124
 2088W        W 2952  12.873  27.720  22.240
 2089W        W 2953  13.985  27.841  24.880
 2090W        W 2954  13.589  28.642  22.160
 2091W        W 2955  12.337  26.410  25.187
 2092W        W 2956  12.291  26.915  24.388
 2093W        W 2957  14.169  28.307  24.741
 2094W        W 2958  13.323  26.195  24.989
 2095W        W 2959  11.164  26.875  24.807
 2096W        W 2960  12.848  27.220  24.430
 2097W        W 2961  11.364  27.931  23.367
 2098W        W 2962  11.444  27.175  24.055
 2099W        W 2963  13.733  27.589  24.506
 2100W        W 2964  13.539  28.856  25.234
 2101W        W 2965  13.397  26.685  24.855
 2102W        W 2966  13.773  28.783  23.126
 2103W        W 2967  12.794  28.563  24.496
 2104W        W 2968  12.111  28.712  23.917
 2105W        W 2969  13.987  28.013  24.343
 2106W        W 2970  12.962  28.020  25.476
 2107W        W 2971  11.681  27.977  23.817
 2108W        W 2972  14.144  27.923  23.331
 2109W        W 2973  13.490  28.740  24.008
 2110W        W 2974  11.615  28.481  24.029
 2111W        W 2975  12.694  26.697  25.445
 2112W        W 2976  12.828  28.626  22.668
 2113W        W 2977  12.443  27.991  25.423
 2114W        W 2978  12.415  28.288  22.727
 2115W        W 2979  11.680  26.762  21.713
 2116W        W 2980  11.079   0.146  28.886
 2117W        W 2981  11.470  27.960  28.501
 2118W        W 2982  14.178  27.696  26.238
 2119W        W 2983  14.381  28.789  28.229
 2120W        W 2984  12.066  28.859  25.719
 2121W        W 2985  12.254  26.995  26.607
 2122W        W 2986  11.753  26.946  26.874
 2123W        W 2987  12.773  27.590  26.243
 2124W        W 2988  12.481  28.780  28.312
 2125W        W 2989  11.200  26.353  28.479
 2126W        W 2990  11.740  25.600  28.279
 2127W        W 2991  13.599  26.007  27.231
 2128W        W 2992  13.226  26.704  25.924
 2129W        W 2993  13.805  26.286  28.812
 2130W        W 2994  11.160  26.029  28.068
 2131W        W 2995  11.270  28.683  28.997
 2132W        W 2996  12.740  28.026  25.943
 2133W        W 2997  11.143  26.770  27.535
 2134W        W 2998  11.913  26.778  28.715
 2135W        W 2999  14.313  26.501  27.344
 2136W        W 3000  14.235  27.609  28.082
 2137W        W 3001  12.654  27.053  27.234
 2138W        W 3002  13.188  28.323  27.520
 2139W        W 3003  11.526  27.695  27.722
 2140W        W 3004  10.859  27.175  27.388
 2141W        W 3005  11.922  27.066  28.303
 2142W        W 3006  14.322  26.992  28.723
 2143W        W 3007  11.807  28.382  27.095
 2144W        W 3008  12.994  28.108  28.248
 2145W        W 3009  12.390  26.617  27.469
 2146W        W 3010  12.515  27.586  27.164
 2147W        W 3011  13.272  28.404   0.040
 2148W        W 3012  12.378  27.656  28.927
 2149W        W 3013  12.621  27.372  28.562
 2150W        W 3014  10.896  26.653   0.024
 2151W        W 3015  13.737  28.264  28.734
 2152W        W 3016  11.410  25.858  26.632
 2153W        W 3017  11.954  28.155  27.681
 2154W        W 3018  14.503  28.016  27.106
 2155W        W 3019  13.798  26.384  27.550
 2156W        W 3020  14.203  26.411  25.539
 2157W        W 3021  14.527  27.078  27.857
 2158W        W 3022  12.476  28.841  27.635
 2159W        W 3023  14.201  28.196  26.096
 2160W        W 3024  11.618  28.982  26.029
 2161W        W 3025  11.759  28.812  26.506
 2162W        W 3026  11.831  25.908  27.819
 2163W        W 3027  14.342  26.800  28.244
 2164W        W 3028  13.555  27.233  26.836
 2165W        W 3029  13.582  27.097  25.827
 2166W        W 3030  12.838  28.023  27.750
 2167W        W 3031  12.623  26.377  27.009
 2168W        W 3032  13.265  28.489  28.004
 2169W        W 3033  14.031  27.305  26.648
 2170W        W 3034  13.179  25.987  26.467
 2171W        W 3035  11.502  28.476  26.147
 2172W        W 3036  11.041  26.178  26.737
 2173W        W 3037  13.620  26.923  27.264
 2174W        W 3038  11.288  28.328  27.126
 2175W        W 3039  12.480  28.707  26.003
 2176W        W 3040  13.879  26.808  25.527
 2177W        W 3041  11.115  28.504  27.859
 2178W        W 3042  11.892  28.185  28.249
 2179W        W 3043  12.119  27.523  26.655
 2180W        W 3044  12.334  26.051  27.850
 2181W        W 3045  14.515  25.703  27.374
 2182W        W 3046  11.616  27.474  25.541
 2183W        W 3047  11.351  26.712  26.017
 2184W        W 3048  11.542  28.339  26.652
 2185W        W 3049  12.387  27.989  26.771
 2186W        W 3050  13.965  28.708  28.534
 2187W        W 3051  12.930  26.430  26.262
 2188W        W 3052  14.150  28.927  27.002
 2189W        W 3053  13.884  26.832  28.471
 2190W        W 3054  14.682  28.285  26.717
 2191W        W 3055  13.091  27.594  28.377
 2192W        W 3056  10.815  27.293  26.424
 2193W        W 3057  11.991  27.745  27.969
 2194W        W 3058  13.208  26.893  26.473
 2195W        W 3059  13.136  27.403  26.565
 2196W        W 3060  11.606  26.793  27.829
 2197W        W 3061  11.418  26.650  28.907
 2198W        W 3062  11.378  25.721  27.113
 2199W        W 3063  13.208  26.106  27.560
 2200W        W 3064  12.917  26.192  28.692
 2201W        W 3065  13.297  26.160  25.977
 2202W        W 3066  14.438  28.582  28.725
 2203W        W 3067  13.272  25.700  28.556
 2204W        W 3068  14.223  28.105  28.868
 2205W        W 3069  13.890  26.344  28.280
 2206W        W 3070  13.553  26.173  26.755
 2207W        W 3071  13.931  27.297   0.028
 2208W        W 3072  11.480  28.771  26.933
 2209W        W 3073  12.448  26.540  26.446
 2210W        W 3074  11.861  25.864  28.743
 2211W        W 3075  13.965  26.420  26.488
 2212W        W 3076  14.223  26.867  26.471
 2213W        W 3077  12.083   0.009   0.028
 2214W        W 3078  11.945  25.688  26.106
 2215W        W 3079  14.388  26.044  27.016
 2216W        W 3080  14.425  28.360  25.659
 2217W        W 3081  11.210  27.581  27.245
 2218W        W 3082  13.289  26.075  25.474
 2219W        W 3083  14.492  28.444  27.427
 2220W        W 3084  14.523  25.668  27.886
 2221W        W 3085  12.727  26.772  28.825
 2222W        W 3086  13.004  28.109  26.376
 2223W        W 3087  13.442  27.433   0.149
 2224W        W 3088  13.296  25.618  27.369
 2225W        W 3089  11.577  26.623  27.289
 2226W        W 3090  11.241  27.651  28.159
 2227W        W 3091  13.224  28.637  26.790
 2228W        W 3092  14.198  26.514  27.852
 2229W        W 3093  13.002  28.824  28.330
 2230W        W 3094  14.224  27.830  25.712
 2231W        W 3095  12.621  27.349  26.704
 2232W        W 3096  14.583  25.747  28.387
 2233W        W 3097  12.665  27.700  28.109
 2234W        W 3098  12.927  26.615  27.352
 2235W        W 3099  13.737  26.848  26.265
 2236W        W 3100  14.155  26.687  25.984
 2237W        W 3101  13.872  28.481  26.370
 2238W        W 3102  13.584  28.011  27.313
 2239W        W 3103  13.599  27.338  26.310
 2240W        W 3104  13.008  27.393  27.076
 2241W        W 3105  13.973  27.336  27.198
 2242W        W 3106  11.362  26.342  27.692
 2243W        W 3107  13.998  27.338  28.508
 2244W        W 3108  14.416  28.881  27.704
 2245W        W 3109  12.352  28.451  27.067
 2246W        W 3110  13.523  28.877  28.308
 2247W        W 3111  13.460  26.275  27.988
 2248W        W 3112  12.711   0.122  27.998
 2249W        W 3113  14.282  26.004  26.501
 2250W        W 3114  14.024  27.144  28.034
 2251W        W 3115  11.138  26.656  28.050
 2252W        W 3116  13.937  26.354  27.031
 2253W        W 3117  14.242  26.490  28.631
 2254W        W 3118  13.177  28.185  27.026
 2255W        W 3119  12.440  28.747  26.618
 2256W        W 3120  11.595  26.030  25.927
 2257W        W 3121  12.828  25.699  27.541
 2258W        W 3122  11.578  28.870  25.517
 2259W        W 3123  12.323  27.328  26.216
 2260W        W 3124  12.699  27.885  28.607
 2261W        W 3125  12.690  26.074  26.588
 2262W        W 3126  13.939  25.826  26.872
 2263W        W 3127  13.689   0.050  27.223
 2264W        W 3128  12.983  28.780  27.676
 2265W        W 3129  12.392  27.779  27.638
 2266W        W 3130  14.205  28.440  27.871
 2267W        W 3131  11.839  26.063  26.429
 2268W        W 3132  12.442  28.325  27.571
 2269W        W 3133  11.932  26.295  25.497
 2270W        W 3134  12.706  26.912  27.737
 2271W        W 3135  13.658  25.854  27.713
 2272W        W 3136  11.004  27.594  27.713
 2273W        W 3137  12.603  27.146  25.789
 2274W        W 3138  11.983  25.804  25.606
 2275W        W 3139  12.722  26.828  26.778
 2276W        W 3140  13.684  25.860  28.238
 2277W        W 3141  12.230  27.725  28.427
 2278W        W 3142  12.999  27.509  28.890
 2279W        W 3143  13.529  27.542  28.632
 2280W        W 3144  12.950  25.776   0.013
 2281W        W 3145  12.182  26.169  27.289
 2282W        W 3146  11.578  26.310  26.851
 2283W        W 3147  11.194  28.712  26.491
 2284W        W 3148  12.836  28.367  28.700
 2285W        W 3149  11.896  27.577  26.065
 2286W        W 3150  13.473  27.436  27.318
 2287W        W 3151  13.607  27.158  27.732
 2288W        W 3152  12.788  27.449  27.614
 2289W        W 3153  13.427  27.977  25.694
 2290W        W 3154  13.050  26.027  27.066
 2291W        W 3155  14.484  26.452  26.331
 2292W        W 3156  11.231  28.855  28.484
 2293W        W 3157  11.441  28.115  27.994
 2294W        W 3158  10.840  28.857  26.107
 2295W        W 3159  12.958  26.444  27.857
 2296W        W 3160  12.271  28.218  25.862
 2297W        W 3161  14.078  28.693  25.932
 2298W        W 3162  13.131  27.214  26.068
 2299W        W 3163  11.919  26.584  26.516
 2300W        W 3164  12.904  26.323  25.713
 2301W        W 3165  13.208  27.973  28.743
 2302W        W 3166  13.711  26.016  26.281
 2303W        W 3167  11.146  25.818  25.764
 2304W        W 3168  12.366  28.100  28.035
 2305W        W 3169  12.162  28.005  27.234
 2306W        W 3170  11.976  27.859  25.642
 2307W        W 3171  10.949  28.359  26.173
 2308W        W 3172  11.529  27.136  28.663
 2309W        W 3173  12.394  25.974  28.827
 2310W        W 3174  13.032  26.038  28.196
 2311W        W 3175  12.270  25.717  26.583
 2312W        W 3176  13.347  25.667  26.082
 2313W        W 3177  11.353  25.827  27.631
 2314W        W 3178  11.166  26.626  26.954
 2315W        W 3179  14.081  25.978  27.416
 2316W        W 3180  11.390  26.312  26.349
 2317W        W 3181  14.104  26.000  27.943
 2318W        W 3182  14.314  27.059  25.653
 2319W        W 3183  11.673  26.124  27.344
 2320W        W 3184  12.874  26.600  28.349
 2321W        W 3185  10.998  26.326  25.854
 2322W        W 3186  11.720  27.534  28.355
 2323W        W 3187  13.137  27.084  27.493
 2324W        W 3188  12.922  28.931  25.875
 2325W        W 3189  11.039  27.625  25.520
 2326W        W 3190  11.958  28.026  28.745
 2327W        W 3191  11.397  27.159  28.155
 2328W        W 3192  12.303  27.333  28.083
 2329W        W 3193  14.103  25.554  28.221
 2330W        W 3194  14.535  27.310  28.367
 2331W        W 3195  14.524  27.436  25.918
 2332W        W 3196  13.283  27.716  26.130
 2333W        W 3197  13.891   0.074  25.585
 2334W        W 3198  13.099  27.038   0.106
 2335W        W 3199  11.544  27.946   0.060
 2336W        W 3200  14.590  26.123  28.764
 2337W        W 3201  14.060  26.923  27.551
 2338W        W 3202  12.481  28.731  28.827
 2339W        W 3203  12.423  25.706  25.872
 2340W        W 3204  13.887  28.226  25.679
 2341W        W 3205  11.721  26.321  28.616
 2342W        W 3206  12.350  28.304  28.498
 2343W        W 3207  14.449  26.261  28.228
 2344W        W 3208  13.675   0.049  26.067
 2345W        W 3209  13.833  27.657  27.610
 2346W        W 3210  12.038  26.034  28.285
 2347W        W 3211  12.177  27.209  28.748
 2348W        W 3212  11.844  28.071  26.287
 2349W        W 3213  13.778  27.749  26.573
 2350W        W 3214  11.609  26.266  28.123
 2351W        W 3215  12.764  28.357  26.766
 2352W        W 3216  14.537  27.030  26.849
 2353W        W 3217  12.754  25.679  28.547
 2354W        W 3218  13.686  28.354  27.693
 2355W        W 3219  14.001  28.691  27.451
 2356W        W 3220  13.130  28.392  25.887
 2357W        W 3221  11.131  28.186  28.852
 2358W        W 3222  11.948  26.406  27.719
 2359W        W 3223  11.858  25.872  26.925
 2360W        W 3224  13.370  26.641  27.621
 2361W        W 3225  12.414  27.643  25.818
 2362W        W 3226  14.317  27.666  27.433
 2363W        W 3227  11.577  28.418  28.663
 2364W        W 3228  14.047   0.037  26.461
 2365W        W 3229  12.209  26.204  26.757
 2366W        W 3230  11.682  27.468  27.006
 2367W        W 3231  12.176   0.088  28.005
 2368W        W 3232  14.219   0.050  28.804
 2369W        W 3233  13.223  27.450  27.894
 2370W        W 3234  11.248  27.172  25.782
 2371W        W 3235  14.323  28.626  26.594
 2372W        W 3236  14.147  26.171  26.018
 2373W        W 3237  12.242  25.610  28.494
 2374W        W 3238  14.126  28.402  27.030
 2375W        W 3239  14.063  26.872  26.996
 2376W        W 3240  12.182  26.667  26.997
 2377W        W 3241  12.424  26.900  28.378
 2378W        W 3242  13.494  27.989  28.322
 2379W        W 3243  12.029  26.552  28.250
 2380W        W 3244  12.022  28.829  26.954
 2381W        W 3245  11.671  28.908  28.746
 2382W        W 3246  11.784  28.404  25.682
 2383W        W 3247  14.181  28.099  26.611
 2384W        W 3248  11.550  26.719  28.353
 2385W        W 3249  14.606  26.919  26.067
 2386W        W 3250  12.308  27.842  26.276
 2387W        W 3251  13.070  27.079  28.555
 2388W        W 3252  13.179  26.907  27.997
 2389W        W 3253  11.817  27.285  27.860
 2390W        W 3254  13.925  28.863  27.957
 2391W        W 3255  13.743  25.754  28.777
 2392W        W 3256  11.389  25.880  28.532
 2393W        W 3257  11.812  27.066  27.399
 2394W        W 3258  12.199  26.716  25.626
 2395W        W 3259  11.122  28.345  28.359
 2396W        W 3260  12.314  27.252  27.568
 2397W        W 3261  12.398  26.214  25.710
 2398W        W 3262  11.814  27.157  26.388
 2399W        W 3263  11.235   0.002  27.982
 2400W        W 3264  14.076  27.204  26.095
 2401W        W 3265  14.140  25.975  28.542
 2402W        W 3266  13.677  28.208  26.817
 2403W        W 3267  11.113  27.123   0.002
 2404W        W 3268  14.368  25.697  26.070
 2405W        W 3269  13.716  28.026  26.140
 2406W        W 3270  12.714  27.005  26.298
 2407W        W 3271  13.719  25.955  25.753
 2408W        W 3272  13.727  26.727  27.980
 2409W        W 3273  11.324  27.077  27.140
 2410W        W 3274  11.862  27.948  26.817
 2411W        W 3275  13.618  26.711  26.767
 2412W        W 3276  12.678  26.178  27.482
 2413W        W 3277  14.516  28.041  27.998
 2414W        W 3278  14.534  26.153  27.664
 2415W        W 3279  10.960  28.698  26.968
 2416W        W 3280  11.324  28.012  26.320
 2417W        W 3281  11.568  25.648   0.132
 2418W        W 3282  12.795  28.464   0.216
 2419W        W 3283  14.407  27.526  26.935
 2420W        W 3284  13.787  27.588  25.871
 2421W        W 3285  13.222   0.137  27.951
 2422W        W 3286  13.809  27.799  28.971
 2423W        W 3287  12.661  25.528  26.296
 2424W        W 3288  13.392  26.456  27.158
 2425W        W 3289  11.174  28.051  27.544
 2426W        W 3290  12.326  26.082  26.217
 2427W        W 3291  11.807  27.541  28.873
 2428W        W 3292  13.085  26.444  26.749
 2429W        W 3293  13.397  27.938  27.815
 2430W        W 3294  11.546  28.585  28.172
 2431W        W 3295  12.018  28.506  28.929
 2432W        W 3296  11.963  26.391  26.009
 2433W        W 3297  13.439  26.454  26.353
 2434W        W 3298  13.311  28.450  28.520
 2435W        W 3299  12.174  27.212  27.066
 2436W        W 3300  11.739  28.868  27.804
 2437W        W 3301  14.403  28.875  25.575
 2438W        W 3302  11.268  27.571  28.759
 2439W        W 3303  13.112  27.799  27.379
 2440W        W 3304  11.625  27.626  26.504
 2441W        W 3305  12.153  28.561  27.957
 2442W        W 3306  12.522  25.862  27.044
 2443W        W 3307  10.937  27.887  25.986
 2444W        W 3308  12.587  26.643  25.952
 2445W        W 3309  11.224  27.378  26.735
 2446W        W 3310  12.541  26.122  28.336
 2447W        W 3311  14.203  25.889  25.575
 2448W        W 3312  14.392  27.487  28.842
 2449W        W 3313  12.997  28.822  28.895
 2450W        W 3314  14.490  27.857  28.490
 2451W        W 3315  14.041  28.576   0.034
 2452W        W 3316  11.698   0.021  27.324
 2453W        W 3317  14.606  27.805  26.541
 2454W        W 3318  13.176  26.909  26.999
 2455W        W 3319  12.885  25.616  26.769
 2456W        W 3320  12.064  28.393  26.639
 2457W        W 3321  12.475  26.522  27.999
 2458W        W 3322  12.305  25.691  27.485
 2459W        W 3323  11.187  28.596  25.750
 2460W        W 3324  12.874  27.809  26.791
 2461W        W 3325  11.991  28.673  28.432
 2462W        W 3326  11.231  27.496  26.198
 2463W        W 3327  11.168  26.196  27.239
 2464W        W 3328  12.697  28.066  27.215
 2465W        W 3329  11.004  25.974  26.248
 2466W        W 3330  13.524  27.153  28.279
 2467W        W 3331  13.705  26.461  25.884
 2468W        W 3332  14.085  28.123  27.471
 2469W        W 3333  12.832  28.573  27.229
 2470W        W 3334  12.011  28.547  26.146
 2471W        W 3335  13.363  25.581  25.570
 2472W        W 3336  11.227  28.804  27.408
 2473W        W 3337  13.276  26.573  28.906
 2474W        W 3338  11.453  26.137   0.012
 2475W        W 3339  11.154  26.895  26.488
 2476W        W 3340  12.151  26.861  26.116
 2477W        W 3341  13.531  27.038  28.799
 2478W        W 3342  11.949  27.580  27.441
 2479W        W 3343  13.415  25.676  26.866
 2480W        W 3344  12.497  28.963  27.119
 2481W        W 3345  13.738  28.420  28.196
 2482W        W 3346  13.549  28.533  27.212
 2483W        W 3347  13.387  27.732  26.906
 2484W        W 3348  12.831  25.954  26.069
 2485W        W 3349  14.612  25.665  26.718
 2486W        W 3350  12.093  27.237  25.710
 2487W        W 3351  14.401  26.521  26.830
 2488W        W 3352  12.951  27.575  25.744
 2489W        W 3353  13.964  27.847  28.480
 2490W        W 3354  13.585  28.662  25.728
 2491W        W 3355  12.318  26.465  28.692
 2492W        W 3356  12.134  26.877  27.859
 2493W        W 3357  14.208  28.283  28.365
 2494W        W 3358  13.410  26.191  28.510
 2495W        W 3359  11.097  26.844  28.548
 2496W        W 3360  12.807  27.215  28.123
 2497W        W 3361  11.341  27.885  26.849
 2498W        W 3362  11.360  27.224  27.627
 2499W        W 3363  13.705  27.577  28.101
 2500W        W 3364  13.566  28.790  28.846
 2501W        W 3365  13.396  26.677  28.402
 2502W        W 3366  13.736  28.747  26.784
 2503W        W 3367  12.724  28.476  27.990
 2504W        W 3368  12.043  28.642  27.452
 2505W        W 3369  13.945  28.012  27.977
 2506W        W 3370  12.840  27.947   0.119
 2507W        W 3371  11.619  27.948  27.287
 2508W        W 3372  13.996  27.841  27.041
 2509W        W 3373  13.495  28.818  27.647
 2510W        W 3374  11.548  28.435  27.567
 2511W        W 3375  12.250  26.828   0.112
 2512W        W 3376  12.891  28.654  26.344
 2513W        W 3377  12.411  28.186  28.985
 2514W        W 3378  12.489  28.311  26.333
 2515W        W 3379  11.686  26.910  25.614
 2516W        W 3380  14.681   3.602   3.375
 2517W        W 3381  15.003   2.563   2.870
 2518W        W 3382  17.722   2.238   0.773
 2519W        W 3383  18.001   3.316   2.664
 2520W        W 3384  15.925   3.309   0.238
 2521W        W 3385  15.793   1.446   1.117
 2522W        W 3386  15.339   1.232   1.337
 2523W        W 3387  16.444   1.987   0.761
 2524W        W 3388  16.138   3.288   3.120
 2525W        W 3389  14.650   0.757   2.916
 2526W        W 3390  15.344   0.149   2.820
 2527W        W 3391  17.249   0.525   1.793
 2528W        W 3392  16.795   1.105   0.435
 2529W        W 3393  17.389   0.971   3.418
 2530W        W 3394  14.956   0.444   2.602
 2531W        W 3395  14.853   3.151   3.519
 2532W        W 3396  16.208   2.521   0.198
 2533W        W 3397  14.812   1.179   1.993
 2534W        W 3398  15.689   1.383   3.263
 2535W        W 3399  18.092   0.983   1.793
 2536W        W 3400  17.838   2.099   2.536
 2537W        W 3401  16.254   1.488   1.639
 2538W        W 3402  16.846   2.861   2.032
 2539W        W 3403  15.250   2.111   2.159
 2540W        W 3404  14.544   1.636   1.941
 2541W        W 3405  15.661   1.801   2.900
 2542W        W 3406  17.956   1.579   3.223
 2543W        W 3407  15.520   2.816   1.685
 2544W        W 3408  16.648   2.688   2.680
 2545W        W 3409  16.068   1.153   2.011
 2546W        W 3410  16.056   1.979   1.718
 2547W        W 3411  16.875   2.950   3.488
 2548W        W 3412  16.283   2.080   3.509
 2549W        W 3413  16.232   1.953   3.004
 2550W        W 3414  14.634   1.159   3.460
 2551W        W 3415  17.327   2.754   3.280
 2552W        W 3416  15.010   0.336   1.088
 2553W        W 3417  15.530   2.584   2.201
 2554W        W 3418  17.986   2.442   1.571
 2555W        W 3419  17.692   0.786   2.048
 2556W        W 3420  17.868   0.894   0.114
 2557W        W 3421  18.317   1.571   2.458
 2558W        W 3422  16.072   3.307   2.213
 2559W        W 3423  17.811   2.731   0.595
 2560W        W 3424  15.303   3.678   0.602
 2561W        W 3425  15.458   3.522   1.072
 2562W        W 3426  15.444   0.395   2.347
 2563W        W 3427  17.847   1.432   2.726
 2564W        W 3428  17.226   1.753   1.322
 2565W        W 3429  17.181   1.452   0.359
 2566W        W 3430  16.414   2.618   2.203
 2567W        W 3431  16.393   0.963   1.627
 2568W        W 3432  16.814   3.127   2.499
 2569W        W 3433  17.715   1.813   1.088
 2570W        W 3434  16.758   0.454   0.974
 2571W        W 3435  15.215   3.147   0.744
 2572W        W 3436  14.616   0.589   1.355
 2573W        W 3437  17.183   1.400   1.699
 2574W        W 3438  14.919   2.895   1.680
 2575W        W 3439  16.185   2.947   0.490
 2576W        W 3440  17.558   1.280   0.031
 2577W        W 3441  14.707   2.940   2.179
 2578W        W 3442  15.489   2.670   2.722
 2579W        W 3443  15.697   1.982   1.332
 2580W        W 3444  15.972   0.408   2.476
 2581W        W 3445  18.167   0.249   1.855
 2582W        W 3446  15.136   1.927   0.127
 2583W        W 3447  15.065   1.056   0.430
 2584W        W 3448  15.038   2.918   1.182
 2585W        W 3449  15.890   2.493   1.389
 2586W        W 3450  17.552   3.273   2.946
 2587W        W 3451  16.454   0.850   0.741
 2588W        W 3452  17.770   3.498   1.517
 2589W        W 3453  17.475   1.397   3.137
 2590W        W 3454  18.221   2.868   1.349
 2591W        W 3455  16.793   2.220   2.760
 2592W        W 3456  14.653   1.696   1.136
 2593W        W 3457  15.591   2.197   2.531
 2594W        W 3458  16.771   1.356   0.898
 2595W        W 3459  16.737   1.818   1.146
 2596W        W 3460  15.123   1.281   2.421
 2597W        W 3461  15.102   1.268   3.196
 2598W        W 3462  14.930   0.171   1.577
 2599W        W 3463  16.860   0.639   2.129
 2600W        W 3464  16.442   0.678   3.323
 2601W        W 3465  17.036   0.493   0.503
 2602W        W 3466  18.023   3.172   3.176
 2603W        W 3467  16.814   0.290   3.171
 2604W        W 3468  17.838   2.677   3.333
 2605W        W 3469  17.430   0.892   2.910
 2606W        W 3470  17.132   0.647   1.290
 2607W        W 3471  17.539   1.803   3.479
 2608W        W 3472  15.260   3.270   1.540
 2609W        W 3473  15.986   1.076   0.770
 2610W        W 3474  15.547   0.418   3.289
 2611W        W 3475  17.529   0.975   1.008
 2612W        W 3476  17.931   1.354   0.957
 2613W        W 3477  15.687   3.459   3.392
 2614W        W 3478  15.739   0.065   0.674
 2615W        W 3479  17.850   0.553   1.598
 2616W        W 3480  18.172   2.873   0.254
 2617W        W 3481  14.858   2.046   1.801
 2618W        W 3482  16.941   0.582   0.022
 2619W        W 3483  18.042   2.936   1.843
 2620W        W 3484  17.893   0.306   2.483
 2621W        W 3485  16.565   1.515   3.104
 2622W        W 3486  16.330   2.489   0.706
 2623W        W 3487  17.026   1.994   3.654
 2624W        W 3488  16.806   0.177   1.872
 2625W        W 3489  15.275   1.018   1.803
 2626W        W 3490  15.088   2.110   2.654
 2627W        W 3491  16.755   3.258   1.573
 2628W        W 3492  18.024   1.190   2.259
 2629W        W 3493  16.628   3.412   2.881
 2630W        W 3494  17.822   2.147   0.281
 2631W        W 3495  16.186   1.792   1.211
 2632W        W 3496  18.224   0.394   2.884
 2633W        W 3497  16.305   2.291   2.591
 2634W        W 3498  16.629   1.110   2.072
 2635W        W 3499  17.319   1.454   0.898
 2636W        W 3500  17.630   1.252   0.541
 2637W        W 3501  17.561   3.015   0.960
 2638W        W 3502  17.276   2.451   1.763
 2639W        W 3503  17.005   1.812   0.689
 2640W        W 3504  16.562   1.949   1.617
 2641W        W 3505  17.576   1.772   1.738
 2642W        W 3506  15.094   0.788   2.242
 2643W        W 3507  17.632   1.860   2.959
 2644W        W 3508  18.062   3.383   2.101
 2645W        W 3509  15.968   3.006   1.504
 2646W        W 3510  17.129   3.482   2.734
 2647W        W 3511  17.074   0.923   2.537
 2648W        W 3512  16.232   3.644   2.624
 2649W        W 3513  17.850   0.555   1.029
 2650W        W 3514  17.768   1.661   2.267
 2651W        W 3515  14.692   1.028   2.493
 2652W        W 3516  17.474   0.932   1.574
 2653W        W 3517  17.874   1.077   3.135
 2654W        W 3518  16.818   2.707   1.531
 2655W        W 3519  15.978   3.312   1.053
 2656W        W 3520  15.125   0.548   0.572
 2657W        W 3521  16.287   0.161   2.141
 2658W        W 3522  15.389   3.271   0.244
 2659W        W 3523  15.681   1.797   0.717
 2660W        W 3524  16.387   2.433   3.082
 2661W        W 3525  16.171   0.734   1.201
 2662W        W 3526  17.496   0.278   1.361
 2663W        W 3527  17.203   3.549   1.711
 2664W        W 3528  16.584   3.317   2.079
 2665W        W 3529  15.980   2.299   2.158
 2666W        W 3530  17.807   2.974   2.325
 2667W        W 3531  15.492   0.439   0.940
 2668W        W 3532  15.946   2.821   2.000
 2669W        W 3533  15.496   0.921   0.102
 2670W        W 3534  16.361   1.317   2.480
 2671W        W 3535  17.188   0.248   2.236
 2672W        W 3536  14.713   2.052   2.301
 2673W        W 3537  16.167   1.667   0.185
 2674W        W 3538  15.582   0.425   0.300
 2675W        W 3539  16.293   1.268   1.154
 2676W        W 3540  17.050   0.416   2.716
 2677W        W 3541  15.891   2.332   2.918
 2678W        W 3542  16.700   2.012   3.230
 2679W        W 3543  17.196   2.109   3.140
 2680W        W 3544  16.546   0.318   3.659
 2681W        W 3545  15.800   0.704   2.055
 2682W        W 3546  15.234   0.703   1.390
 2683W        W 3547  14.937   3.504   0.983
 2684W        W 3548  16.520   2.939   3.106
 2685W        W 3549  15.423   2.225   0.447
 2686W        W 3550  17.076   1.923   1.797
 2687W        W 3551  17.274   1.589   2.150
 2688W        W 3552  16.438   2.072   2.128
 2689W        W 3553  16.988   2.392   0.115
 2690W        W 3554  16.671   0.507   1.500
 2691W        W 3555  18.252   0.886   0.918
 2692W        W 3556  14.822   3.376   2.937
 2693W        W 3557  15.017   2.548   2.350
 2694W        W 3558  14.484   3.532   0.753
 2695W        W 3559  16.575   0.843   2.520
 2696W        W 3560  15.810   2.567   0.521
 2697W        W 3561  17.896   3.242   0.608
 2698W        W 3562  16.619   1.607   0.436
 2699W        W 3563  15.654   0.897   1.106
 2700W        W 3564  16.483   0.782   0.156
 2701W        W 3565  16.869   2.517   3.206
 2702W        W 3566  17.373   0.459   0.877
 2703W        W 3567  14.768   0.227   0.398
 2704W        W 3568  15.966   2.679   2.505
 2705W        W 3569  15.625   2.289   1.778
 2706W        W 3570  15.751   2.310   0.059
 2707W        W 3571  14.692   3.054   0.787
 2708W        W 3572  15.306   1.742   3.277
 2709W        W 3573  16.025   0.400   3.526
 2710W        W 3574  16.514   0.403   2.768
 2711W        W 3575  15.915   0.247   1.189
 2712W        W 3576  16.871   0.027   0.681
 2713W        W 3577  14.958   0.291   2.106
 2714W        W 3578  14.839   1.064   1.430
 2715W        W 3579  17.663   0.265   2.017
 2716W        W 3580  15.154   0.908   0.936
 2717W        W 3581  17.474   0.598   2.475
 2718W        W 3582  17.938   1.594   0.257
 2719W        W 3583  15.363   0.508   1.856
 2720W        W 3584  16.367   1.045   2.950
 2721W        W 3585  14.662   0.733   0.392
 2722W        W 3586  15.400   2.245   3.056
 2723W        W 3587  16.694   1.609   1.981
 2724W        W 3588  16.480   3.387   0.374
 2725W        W 3589  14.694   2.262   0.040
 2726W        W 3590  15.581   2.721   3.220
 2727W        W 3591  15.030   1.638   2.836
 2728W        W 3592  15.996   1.889   2.527
 2729W        W 3593  17.531   0.201   2.850
 2730W        W 3594  18.177   1.876   2.871
 2731W        W 3595  18.058   1.844   0.689
 2732W        W 3596  16.853   2.315   0.641
 2733W        W 3597  17.538   3.492   0.153
 2734W        W 3598  16.608   1.634   3.624
 2735W        W 3599  15.130   2.563   3.395
 2736W        W 3600  18.257   0.500   3.426
 2737W        W 3601  17.672   1.293   1.893
 2738W        W 3602  16.168   3.489   3.586
 2739W        W 3603  16.081   0.234   0.326
 2740W        W 3604  17.487   2.588   0.243
 2741W        W 3605  15.461   0.914   3.201
 2742W        W 3606  16.028   2.815   2.997
 2743W        W 3607  17.915   0.807   2.681
 2744W        W 3608  17.338   3.658   0.605
 2745W        W 3609  17.434   2.113   2.139
 2746W        W 3610  15.583   0.603   2.800
 2747W        W 3611  16.118   1.611   3.403
 2748W        W 3612  15.431   2.667   0.862
 2749W        W 3613  17.267   2.138   0.978
 2750W        W 3614  15.136   0.905   2.786
 2751W        W 3615  16.369   2.776   1.278
 2752W        W 3616  18.087   1.412   1.505
 2753W        W 3617  16.318   0.169   3.181
 2754W        W 3618  17.346   2.821   2.108
 2755W        W 3619  17.601   3.222   1.917
 2756W        W 3620  16.661   2.740   0.355
 2757W        W 3621  14.688   2.764   3.219
 2758W        W 3622  15.544   0.966   2.433
 2759W        W 3623  15.416   0.225   1.415
 2760W        W 3624  17.226   1.028   2.055
 2761W        W 3625  16.037   2.093   0.443
 2762W        W 3626  17.930   2.078   1.979
 2763W        W 3627  15.148   3.001   3.098
 2764W        W 3628  17.713   3.650   0.996
 2765W        W 3629  15.744   0.612   1.529
 2766W        W 3630  15.331   1.869   1.693
 2767W        W 3631  15.720   3.618   2.438
 2768W        W 3632  17.773   3.618   3.245
 2769W        W 3633  16.925   1.949   2.308
 2770W        W 3634  14.843   1.571   0.384
 2771W        W 3635  17.990   3.248   1.118
 2772W        W 3636  17.710   0.750   0.578
 2773W        W 3637  15.849   0.151   2.938
 2774W        W 3638  17.700   2.966   1.463
 2775W        W 3639  17.593   1.385   1.361
 2776W        W 3640  15.912   1.101   1.502
 2777W        W 3641  16.085   1.488   2.895
 2778W        W 3642  17.177   2.568   2.816
 2779W        W 3643  15.844   1.045   2.889
 2780W        W 3644  15.756   3.474   1.488
 2781W        W 3645  15.189   3.487   3.284
 2782W        W 3646  15.313   2.764   0.363
 2783W        W 3647  17.843   2.610   1.102
 2784W        W 3648  15.444   1.333   2.814
 2785W        W 3649  18.133   1.175   0.515
 2786W        W 3650  15.938   2.225   0.936
 2787W        W 3651  16.942   1.753   2.827
 2788W        W 3652  16.878   1.407   2.440
 2789W        W 3653  15.398   1.716   2.467
 2790W        W 3654  17.554   3.442   2.407
 2791W        W 3655  17.294   0.472   3.211
 2792W        W 3656  15.055   0.472   3.111
 2793W        W 3657  15.505   1.383   2.071
 2794W        W 3658  15.795   1.306   0.335
 2795W        W 3659  14.644   2.927   2.722
 2796W        W 3660  16.174   1.640   2.120
 2797W        W 3661  15.976   0.788   0.269
 2798W        W 3662  15.313   1.674   1.090
 2799W        W 3663  14.748   3.375   2.435
 2800W        W 3664  17.566   1.760   0.583
 2801W        W 3665  17.798   0.571   3.165
 2802W        W 3666  17.326   2.630   1.270
 2803W        W 3667  14.782   1.646   3.326
 2804W        W 3668  17.871   0.265   0.548
 2805W        W 3669  17.325   2.596   0.737
 2806W        W 3670  16.147   1.569   0.717
 2807W        W 3671  17.482   0.510   0.172
 2808W        W 3672  17.550   1.121   2.438
 2809W        W 3673  14.924   1.563   1.569
 2810W        W 3674  15.328   2.476   1.352
 2811W        W 3675  17.125   1.168   1.257
 2812W        W 3676  16.329   0.677   2.073
 2813W        W 3677  18.086   2.553   2.451
 2814W        W 3678  18.191   0.650   2.204
 2815W        W 3679  14.699   3.274   1.416
 2816W        W 3680  14.953   2.449   0.959
 2817W        W 3681  15.099   0.369   3.618
 2818W        W 3682  16.369   3.015   3.582
 2819W        W 3683  18.028   1.918   1.505
 2820W        W 3684  17.310   2.158   0.436
 2821W        W 3685  16.726   3.664   2.427
 2822W        W 3686  17.504   2.314   3.496
 2823W        W 3687  16.261   0.043   0.783
 2824W        W 3688  16.915   0.934   1.668
 2825W        W 3689  14.648   2.491   1.949
 2826W        W 3690  15.985   0.540   0.743
 2827W        W 3691  15.800   2.029   3.329
 2828W        W 3692  16.679   0.925   1.197
 2829W        W 3693  17.038   2.462   2.335
 2830W        W 3694  15.128   3.026   2.587
 2831W        W 3695  15.872   3.011   3.560
 2832W        W 3696  15.559   0.837   0.601
 2833W        W 3697  17.049   0.894   0.826
 2834W        W 3698  17.001   3.029   2.977
 2835W        W 3699  15.741   1.562   1.640
 2836W        W 3700  15.249   3.439   2.302
 2837W        W 3701  18.056   3.401   0.149
 2838W        W 3702  14.905   2.119   3.165
 2839W        W 3703  16.789   2.348   1.897
 2840W        W 3704  15.401   2.163   0.954
 2841W        W 3705  15.633   3.077   2.419
 2842W        W 3706  16.191   0.392   1.649
 2843W        W 3707  14.598   2.344   0.569
 2844W        W 3708  16.298   1.203   0.379
 2845W        W 3709  15.016   2.028   1.297
 2846W        W 3710  16.082   0.600   2.961
 2847W        W 3711  17.991   0.386   0.070
 2848W        W 3712  17.963   2.095   3.311
 2849W        W 3713  16.646   3.403   3.390
 2850W        W 3714  18.147   2.421   2.942
 2851W        W 3715  17.608   3.140   3.469
 2852W        W 3716  15.299   3.689   1.865
 2853W        W 3717  18.151   2.189   1.091
 2854W        W 3718  16.719   1.399   1.464
 2855W        W 3719  16.443   0.079   1.273
 2856W        W 3720  15.557   3.029   1.193
 2857W        W 3721  16.066   0.903   2.467
 2858W        W 3722  15.804   0.192   1.961
 2859W        W 3723  14.889   3.442   0.450
 2860W        W 3724  16.406   2.262   1.218
 2861W        W 3725  15.623   3.174   2.944
 2862W        W 3726  14.958   1.938   0.770
 2863W        W 3727  14.889   0.672   1.779
 2864W        W 3728  16.301   2.432   1.720
 2865W        W 3729  14.593   0.441   0.819
 2866W        W 3730  17.359   1.550   2.646
 2867W        W 3731  17.268   0.940   0.333
 2868W        W 3732  17.758   2.548   2.014
 2869W        W 3733  16.402   2.934   1.781
 2870W        W 3734  15.702   3.080   0.641
 2871W        W 3735  16.963   0.085   0.161
 2872W        W 3736  14.896   3.359   1.911
 2873W        W 3737  16.879   1.171   3.461
 2874W        W 3738  15.057   0.861   3.505
 2875W        W 3739  14.931   1.368   0.859
 2876W        W 3740  15.447   1.314   0.736
 2877W        W 3741  17.049   1.630   3.303
 2878W        W 3742  15.703   1.865   2.084
 2879W        W 3743  16.989   0.109   1.316
 2880W        W 3744  16.215   3.417   1.729
 2881W        W 3745  17.328   3.003   2.575
 2882W        W 3746  17.212   3.017   1.649
 2883W        W 3747  16.964   2.227   1.393
 2884W        W 3748  16.533   0.394   0.506
 2885W        W 3749  18.047   0.160   1.255
 2886W        W 3750  15.665   1.812   0.190
 2887W        W 3751  17.938   0.971   1.312
 2888W        W 3752  16.546   2.120   0.261
 2889W        W 3753  17.625   2.366   2.977
 2890W        W 3754  17.395   3.088   0.481
 2891W        W 3755  15.944   0.890   3.374
 2892W        W 3756  15.838   1.397   2.458
 2893W        W 3757  17.792   2.832   2.829
 2894W        W 3758  16.840   0.785   3.007
 2895W        W 3759  14.670   1.283   2.937
 2896W        W 3760  16.500   1.798   2.577
 2897W        W 3761  14.805   2.446   1.463
 2898W        W 3762  15.042   1.650   2.081
 2899W        W 3763  17.303   2.090   2.634
 2900W        W 3764  17.179   3.395   3.289
 2901W        W 3765  17.016   1.256   2.939
 2902W        W 3766  17.338   3.375   1.253
 2903W        W 3767  16.297   3.088   2.633
 2904W        W 3768  15.625   3.260   1.937
 2905W        W 3769  17.554   2.526   2.478
 2906W        W 3770  16.530   2.525   3.593
 2907W        W 3771  15.155   2.485   1.844
 2908W        W 3772  17.561   2.183   1.413
 2909W        W 3773  17.128   3.292   2.143
 2910W        W 3774  15.219   2.972   2.082
 2911W        W 3775  16.365   1.170   3.463
 2912W        W 3776  16.446   3.173   0.892
 2913W        W 3777  16.011   2.513   3.425
 2914W        W 3778  15.964   2.782   0.965
 2915W        W 3779  15.317   1.429   0.184
 2916W        W 3780  14.688   3.697   7.006
 2917W        W 3781  15.087   2.604   6.512
 2918W        W 3782  17.764   2.105   4.342
 2919W        W 3783  17.976   3.330   6.376
 2920W        W 3784  15.638   3.357   3.913
 2921W        W 3785  15.759   1.416   4.651
 2922W        W 3786  15.423   1.513   5.038
 2923W        W 3787  16.240   2.042   4.473
 2924W        W 3788  16.082   3.330   6.654
 2925W        W 3789  14.634   0.836   6.617
 2926W        W 3790  15.330   0.134   6.452
 2927W        W 3791  17.143   0.562   5.362
 2928W        W 3792  16.829   1.318   4.002
 2929W        W 3793  17.397   0.782   7.058
 2930W        W 3794  14.726   0.557   6.168
 2931W        W 3795  14.905   3.271   7.220
 2932W        W 3796  16.119   2.671   3.905
 2933W        W 3797  14.852   1.253   5.671
 2934W        W 3798  15.845   1.447   6.842
 2935W        W 3799  18.038   1.037   5.371
 2936W        W 3800  17.864   2.073   6.134
 2937W        W 3801  16.350   1.359   5.242
 2938W        W 3802  16.848   2.803   5.609
 2939W        W 3803  15.353   2.122   5.785
 2940W        W 3804  14.542   1.661   5.513
 2941W        W 3805  15.808   1.815   6.471
 2942W        W 3806  17.913   1.543   6.776
 2943W        W 3807  15.591   2.873   5.339
 2944W        W 3808  16.638   2.691   6.353
 2945W        W 3809  15.983   1.309   5.621
 2946W        W 3810  16.158   2.074   5.196
 2947W        W 3811  16.316   2.091   7.239
 2948W        W 3812  16.311   1.958   6.649
 2949W        W 3813  14.399   1.141   6.988
 2950W        W 3814  17.396   2.745   6.851
 2951W        W 3815  14.991   0.263   4.754
 2952W        W 3816  15.649   2.591   5.791
 2953W        W 3817  17.963   2.451   5.156
 2954W        W 3818  17.560   0.934   5.650
 2955W        W 3819  17.901   0.840   3.612
 2956W        W 3820  18.313   1.576   6.036
 2957W        W 3821  16.486   3.128   5.788
 2958W        W 3822  17.881   2.583   4.142
 2959W        W 3823  15.103   3.536   4.326
 2960W        W 3824  15.455   3.555   4.736
 2961W        W 3825  15.446   0.448   5.943
 2962W        W 3826  17.841   1.528   6.262
 2963W        W 3827  17.257   1.731   4.900
 2964W        W 3828  17.257   1.431   3.722
 2965W        W 3829  16.468   2.615   5.871
 2966W        W 3830  16.286   0.864   5.157
 2967W        W 3831  16.913   3.012   6.099
 2968W        W 3832  17.826   1.793   4.743
 2969W        W 3833  16.273   0.622   4.702
 2970W        W 3834  15.339   3.111   4.484
 2971W        W 3835  14.680   0.654   4.896
 2972W        W 3836  17.208   1.306   5.233
 2973W        W 3837  15.054   2.919   5.423
 2974W        W 3838  16.125   3.185   4.011
 2975W        W 3839  17.739   1.323   3.605
 2976W        W 3840  14.891   2.983   5.903
 2977W        W 3841  15.570   2.614   6.325
 2978W        W 3842  15.738   1.913   4.815
 2979W        W 3843  15.955   0.480   6.027
 2980W        W 3844  18.186   0.247   5.511
 2981W        W 3845  15.362   2.140   3.600
 2982W        W 3846  15.088   0.983   3.996
 2983W        W 3847  15.240   2.858   4.943
 2984W        W 3848  15.981   2.376   4.796
 2985W        W 3849  17.542   3.220   6.650
 2986W        W 3850  16.432   0.964   4.330
 2987W        W 3851  17.818   3.431   5.259
 2988W        W 3852  17.427   1.385   6.654
 2989W        W 3853  18.219   2.880   4.932
 2990W        W 3854  16.823   2.219   6.445
 2991W        W 3855  14.783   1.656   4.694
 2992W        W 3856  15.750   2.177   6.098
 2993W        W 3857  16.668   1.398   4.500
 2994W        W 3858  16.772   1.890   4.637
 2995W        W 3859  15.101   1.305   6.137
 2996W        W 3860  15.029   1.233   6.658
 2997W        W 3861  14.939   0.225   5.258
 2998W        W 3862  16.647   0.606   5.550
 2999W        W 3863  16.470   0.676   6.869
 3000W        W 3864  16.921   0.488   4.013
 3001W        W 3865  18.002   3.189   6.896
 3002W        W 3866  16.814   0.257   6.863
 3003W        W 3867  17.883   2.689   7.025
 3004W        W 3868  17.415   0.763   6.507
 3005W        W 3869  17.139   0.733   4.841
 3006W        W 3870  17.555   1.764   7.055
 3007W        W 3871  15.340   3.306   5.216
 3008W        W 3872  15.940   1.096   4.273
 3009W        W 3873  15.441   0.422   6.885
 3010W        W 3874  17.558   0.969   4.566
 3011W        W 3875  17.935   1.347   4.480
 3012W        W 3876  15.714   3.532   6.998
 3013W        W 3877  15.576   0.106   4.269
 3014W        W 3878  17.977   0.570   5.180
 3015W        W 3879  18.032   2.930   3.748
 3016W        W 3880  14.972   2.038   5.417
 3017W        W 3881  16.938   0.666   3.511
 3018W        W 3882  18.101   2.989   5.429
 3019W        W 3883  17.951   0.254   5.987
 3020W        W 3884  16.616   1.580   6.818
 3021W        W 3885  16.399   2.538   4.381
 3022W        W 3886  17.141   1.991   7.229
 3023W        W 3887  16.787   0.128   5.441
 3024W        W 3888  15.240   1.089   5.348
 3025W        W 3889  14.958   2.119   6.132
 3026W        W 3890  16.854   3.172   4.939
 3027W        W 3891  17.932   1.247   5.840
 3028W        W 3892  16.663   3.399   6.451
 3029W        W 3893  17.885   2.152   3.828
 3030W        W 3894  16.317   1.706   4.861
 3031W        W 3895  18.126   0.265   6.489
 3032W        W 3896  16.360   2.270   6.239
 3033W        W 3897  16.462   1.063   5.652
 3034W        W 3898  17.459   1.560   4.447
 3035W        W 3899  17.573   1.193   4.088
 3036W        W 3900  17.571   3.014   4.476
 3037W        W 3901  17.424   2.481   5.300
 3038W        W 3902  17.110   1.740   4.107
 3039W        W 3903  16.660   1.939   5.264
 3040W        W 3904  17.661   1.865   5.233
 3041W        W 3905  15.118   0.852   5.853
 3042W        W 3906  17.597   1.877   6.561
 3043W        W 3907  18.089   3.409   5.725
 3044W        W 3908  16.038   2.787   5.090
 3045W        W 3909  17.179   3.445   6.292
 3046W        W 3910  16.933   0.815   6.229
 3047W        W 3911  16.238   3.613   6.223
 3048W        W 3912  17.876   0.549   4.663
 3049W        W 3913  17.663   1.732   5.797
 3050W        W 3914  14.653   1.051   6.108
 3051W        W 3915  17.549   0.897   5.136
 3052W        W 3916  17.836   1.085   6.552
 3053W        W 3917  16.870   2.661   5.118
 3054W        W 3918  16.205   3.235   4.892
 3055W        W 3919  15.176   0.443   4.117
 3056W        W 3920  16.344   0.239   5.740
 3057W        W 3921  15.129   3.490   3.808
 3058W        W 3922  15.753   1.811   4.258
 3059W        W 3923  16.395   2.453   6.726
 3060W        W 3924  15.780   0.854   4.721
 3061W        W 3925  17.519   0.385   5.033
 3062W        W 3926  17.304   3.520   5.358
 3063W        W 3927  16.839   3.288   5.441
 3064W        W 3928  16.095   2.263   5.729
 3065W        W 3929  17.938   2.979   5.996
 3066W        W 3930  15.436   0.467   4.600
 3067W        W 3931  16.066   2.841   5.612
 3068W        W 3932  15.547   0.799   3.722
 3069W        W 3933  16.368   1.406   5.996
 3070W        W 3934  17.245   0.158   5.721
 3071W        W 3935  14.536   2.060   5.853
 3072W        W 3936  16.130   1.752   3.899
 3073W        W 3937  15.588   0.288   3.790
 3074W        W 3938  16.204   1.181   4.757
 3075W        W 3939  17.107   0.347   6.413
 3076W        W 3940  15.925   2.310   6.557
 3077W        W 3941  16.736   2.101   6.937
 3078W        W 3942  17.220   2.230   6.765
 3079W        W 3943  16.456   0.335   7.270
 3080W        W 3944  15.653   0.895   5.653
 3081W        W 3945  15.188   0.719   4.984
 3082W        W 3946  14.983   3.364   4.836
 3083W        W 3947  16.480   2.980   6.755
 3084W        W 3948  15.255   1.815   4.031
 3085W        W 3949  17.170   1.817   5.404
 3086W        W 3950  17.270   1.396   5.734
 3087W        W 3951  16.577   2.104   5.790
 3088W        W 3952  17.057   2.511   3.704
 3089W        W 3953  16.675   0.539   5.054
 3090W        W 3954  18.217   0.916   4.411
 3091W        W 3955  14.874   3.545   6.520
 3092W        W 3956  15.182   2.572   5.985
 3093W        W 3957  14.631   3.627   4.486
 3094W        W 3958  16.447   0.674   6.017
 3095W        W 3959  15.708   2.893   4.138
 3096W        W 3960  17.678   3.256   4.038
 3097W        W 3961  16.588   1.769   4.141
 3098W        W 3962  15.325   1.138   4.671
 3099W        W 3963  16.606   0.870   3.834
 3100W        W 3964  16.880   2.614   6.805
 3101W        W 3965  17.356   0.594   4.276
 3102W        W 3966  14.741   0.135   3.931
 3103W        W 3967  16.034   2.637   6.121
 3104W        W 3968  15.799   2.400   5.334
 3105W        W 3969  15.584   2.606   3.723
 3106W        W 3970  14.823   2.993   4.523
 3107W        W 3971  15.421   1.784   6.825
 3108W        W 3972  15.927   0.326   7.102
 3109W        W 3973  16.610   0.433   6.431
 3110W        W 3974  15.872   0.290   4.808
 3111W        W 3975  16.757   0.484   4.544
 3112W        W 3976  14.970   0.342   5.777
 3113W        W 3977  14.816   1.151   4.855
 3114W        W 3978  17.662   0.431   5.570
 3115W        W 3979  15.024   0.765   4.490
 3116W        W 3980  17.375   0.587   6.008
 3117W        W 3981  18.087   1.694   3.697
 3118W        W 3982  15.318   0.563   5.459
 3119W        W 3983  16.464   1.010   6.412
 3120W        W 3984  14.702   0.642   3.911
 3121W        W 3985  15.365   2.147   6.447
 3122W        W 3986  16.771   1.488   5.557
 3123W        W 3987  16.602   3.394   3.911
 3124W        W 3988  14.736   1.966   3.727
 3125W        W 3989  15.500   2.832   6.785
 3126W        W 3990  15.001   1.711   6.448
 3127W        W 3991  16.148   1.852   6.078
 3128W        W 3992  17.612   0.271   6.382
 3129W        W 3993  18.204   1.862   6.465
 3130W        W 3994  18.140   1.727   4.205
 3131W        W 3995  16.873   2.216   4.132
 3132W        W 3996  17.500   3.591   3.679
 3133W        W 3997  16.688   1.726   7.312
 3134W        W 3998  15.065   2.757   7.125
 3135W        W 3999  18.248   0.651   7.073
 3136W        W 4000  17.677   1.388   5.412
 3137W        W 4001  16.221   3.452   7.159
 3138W        W 4002  16.045   0.172   4.004
 3139W        W 4003  17.521   2.748   3.799
 3140W        W 4004  15.492   0.943   6.720
 3141W        W 4005  15.995   2.817   6.603
 3142W        W 4006  17.880   0.701   6.227
 3143W        W 4007  17.209   3.620   4.120
 3144W        W 4008  17.426   2.206   5.746
 3145W        W 4009  15.618   0.568   6.411
 3146W        W 4010  16.215   1.593   7.162
 3147W        W 4011  15.575   2.668   4.588
 3148W        W 4012  17.254   2.048   4.491
 3149W        W 4013  15.123   0.804   6.381
 3150W        W 4014  16.482   2.803   4.811
 3151W        W 4015  18.066   1.468   5.075
 3152W        W 4016  16.312   0.177   6.788
 3153W        W 4017  17.318   2.732   5.774
 3154W        W 4018  17.639   3.119   5.610
 3155W        W 4019  16.611   2.854   4.002
 3156W        W 4020  14.660   2.715   6.769
 3157W        W 4021  15.539   1.006   6.143
 3158W        W 4022  15.421   0.247   5.074
 3159W        W 4023  17.026   0.932   5.731
 3160W        W 4024  15.859   2.180   3.820
 3161W        W 4025  17.925   2.136   5.586
 3162W        W 4026  15.070   3.114   6.754
 3163W        W 4027  17.578   3.556   4.489
 3164W        W 4028  15.769   0.621   5.202
 3165W        W 4029  15.492   1.969   5.301
 3166W        W 4030  15.719   3.618   6.147
 3167W        W 4031  17.741   3.613   6.980
 3168W        W 4032  17.017   1.871   5.893
 3169W        W 4033  14.909   1.474   3.820
 3170W        W 4034  17.904   3.255   4.785
 3171W        W 4035  17.828   0.742   4.127
 3172W        W 4036  15.819   0.143   6.625
 3173W        W 4037  17.709   2.906   5.122
 3174W        W 4038  17.604   1.356   4.902
 3175W        W 4039  15.807   1.136   5.154
 3176W        W 4040  16.224   1.489   6.477
 3177W        W 4041  17.193   2.625   6.389
 3178W        W 4042  15.929   1.070   6.495
 3179W        W 4043  15.868   3.314   5.318
 3180W        W 4044  15.205   3.582   6.932
 3181W        W 4045  15.363   3.068   3.564
 3182W        W 4046  17.837   2.628   4.680
 3183W        W 4047  15.483   1.396   6.485
 3184W        W 4048  18.099   1.210   3.982
 3185W        W 4049  15.898   2.393   4.285
 3186W        W 4050  17.055   1.773   6.601
 3187W        W 4051  16.880   1.331   6.068
 3188W        W 4052  15.423   1.748   6.124
 3189W        W 4053  17.627   3.479   6.001
 3190W        W 4054  17.332   0.319   6.872
 3191W        W 4055  14.927   0.393   6.644
 3192W        W 4056  15.451   1.370   5.749
 3193W        W 4057  15.864   1.244   3.752
 3194W        W 4058  14.733   3.048   6.383
 3195W        W 4059  16.282   1.739   5.585
 3196W        W 4060  16.087   0.786   3.875
 3197W        W 4061  15.304   1.655   4.536
 3198W        W 4062  14.716   3.451   6.029
 3199W        W 4063  17.647   1.706   3.986
 3200W        W 4064  17.829   0.601   6.763
 3201W        W 4065  17.318   2.713   4.847
 3202W        W 4066  14.699   1.676   6.885
 3203W        W 4067  17.816   0.234   4.269
 3204W        W 4068  17.423   2.519   4.372
 3205W        W 4069  16.183   1.539   4.381
 3206W        W 4070  17.451   0.565   3.730
 3207W        W 4071  17.496   1.118   6.137
 3208W        W 4072  14.932   1.540   5.204
 3209W        W 4073  15.450   2.360   4.960
 3210W        W 4074  17.129   1.245   4.716
 3211W        W 4075  16.118   0.685   5.594
 3212W        W 4076  18.172   2.506   6.018
 3213W        W 4077  18.089   0.703   5.749
 3214W        W 4078  14.703   3.334   5.266
 3215W        W 4079  15.067   2.519   4.587
 3216W        W 4080  15.039   0.372   7.219
 3217W        W 4081  15.898   3.040   7.063
 3218W        W 4082  18.168   1.972   5.138
 3219W        W 4083  17.386   2.175   3.982
 3220W        W 4084  16.775   3.521   5.952
 3221W        W 4085  17.580   2.276   7.110
 3222W        W 4086  16.254   0.128   4.490
 3223W        W 4087  16.796   1.015   5.268
 3224W        W 4088  14.806   2.484   5.628
 3225W        W 4089  15.915   0.541   4.330
 3226W        W 4090  15.901   1.974   6.957
 3227W        W 4091  16.673   0.972   4.784
 3228W        W 4092  16.942   2.431   5.987
 3229W        W 4093  15.251   3.024   6.273
 3230W        W 4094  15.402   3.163   7.179
 3231W        W 4095  15.499   0.839   4.256
 3232W        W 4096  16.951   0.927   4.348
 3233W        W 4097  17.031   3.072   6.616
 3234W        W 4098  15.902   1.635   5.220
 3235W        W 4099  15.218   3.511   6.100
 3236W        W 4100  17.987   3.432   3.676
 3237W        W 4101  14.821   2.182   6.649
 3238W        W 4102  16.966   2.302   5.493
 3239W        W 4103  15.446   2.168   4.473
 3240W        W 4104  15.772   3.081   6.185
 3241W        W 4105  16.216   0.347   5.212
 3242W        W 4106  14.602   2.317   4.102
 3243W        W 4107  16.328   1.292   3.956
 3244W        W 4108  15.129   1.965   4.913
 3245W        W 4109  16.127   0.586   6.495
 3246W        W 4110  17.926   0.351   3.789
 3247W        W 4111  17.992   2.047   6.895
 3248W        W 4112  16.714   3.389   6.976
 3249W        W 4113  18.197   2.399   6.525
 3250W        W 4114  17.592   3.124   7.191
 3251W        W 4115  15.514   3.583   5.667
 3252W        W 4116  18.152   2.213   4.690
 3253W        W 4117  16.784   1.499   5.008
 3254W        W 4118  16.546   0.036   4.949
 3255W        W 4119  15.692   3.108   4.872
 3256W        W 4120  16.052   0.985   6.012
 3257W        W 4121  15.837   0.233   5.588
 3258W        W 4122  14.715   3.258   4.067
 3259W        W 4123  16.516   2.283   4.876
 3260W        W 4124  15.538   3.317   6.579
 3261W        W 4125  14.949   2.037   4.398
 3262W        W 4126  14.829   0.710   5.415
 3263W        W 4127  16.453   2.464   5.377
 3264W        W 4128  14.648   0.411   4.383
 3265W        W 4129  17.332   1.611   6.198
 3266W        W 4130  17.156   0.946   3.883
 3267W        W 4131  17.806   2.626   5.630
 3268W        W 4132  16.465   2.984   5.290
 3269W        W 4133  15.824   3.327   4.416
 3270W        W 4134  17.059   0.182   3.613
 3271W        W 4135  15.037   3.393   5.630
 3272W        W 4136  16.721   1.172   7.180
 3273W        W 4137  15.057   0.799   6.932
 3274W        W 4138  14.922   1.307   4.352
 3275W        W 4139  15.486   1.350   4.150
 3276W        W 4140  17.085   1.510   7.049
 3277W        W 4141  15.774   1.803   5.716
 3278W        W 4142  17.041   0.214   4.942
 3279W        W 4143  16.356   3.483   5.424
 3280W        W 4144  17.456   3.022   6.184
 3281W        W 4145  17.234   2.983   5.314
 3282W        W 4146  17.057   2.195   4.988
 3283W        W 4147  16.417   0.492   4.150
 3284W        W 4148  18.199   0.183   4.896
 3285W        W 4149  15.647   1.706   3.704
 3286W        W 4150  17.985   1.005   4.866
 3287W        W 4151  16.357   2.215   3.992
 3288W        W 4152  17.682   2.374   6.603
 3289W        W 4153  17.193   3.198   3.799
 3290W        W 4154  15.936   0.796   6.937
 3291W        W 4155  15.840   1.439   6.109
 3292W        W 4156  17.862   2.839   6.512
 3293W        W 4157  16.963   0.739   6.743
 3294W        W 4158  14.553   1.346   6.512
 3295W        W 4159  16.636   1.769   6.268
 3296W        W 4160  14.929   2.421   5.072
 3297W        W 4161  15.038   1.710   5.792
 3298W        W 4162  17.307   2.142   6.244
 3299W        W 4163  17.236   3.456   6.974
 3300W        W 4164  16.927   1.239   6.584
 3301W        W 4165  17.386   3.262   4.904
 3302W        W 4166  16.297   3.074   6.254
 3303W        W 4167  16.016   3.350   5.813
 3304W        W 4168  17.649   2.542   6.119
 3305W        W 4169  16.561   2.539   7.208
 3306W        W 4170  15.289   2.469   5.433
 3307W        W 4171  17.573   2.228   4.859
 3308W        W 4172  17.202   3.269   5.791
 3309W        W 4173  15.420   3.074   5.785
 3310W        W 4174  16.290   1.166   6.883
 3311W        W 4175  16.441   3.157   4.416
 3312W        W 4176  16.002   2.508   7.043
 3313W        W 4177  16.037   2.865   4.547
 3314W        W 4178  15.353   1.278   3.643
 3315W        W 4179  14.566   3.723  10.722
 3316W        W 4180  14.954   2.600  10.139
 3317W        W 4181  17.758   2.165   7.987
 3318W        W 4182  17.912   3.292   9.878
 3319W        W 4183  15.777   3.364   7.480
 3320W        W 4184  15.858   1.411   8.443
 3321W        W 4185  15.463   1.297   8.817
 3322W        W 4186  16.296   2.055   8.197
 3323W        W 4187  16.094   3.352  10.389
 3324W        W 4188  14.655   0.833  10.276
 3325W        W 4189  15.235   0.362   9.858
 3326W        W 4190  17.233   0.464   9.012
 3327W        W 4191  16.908   1.392   7.628
 3328W        W 4192  17.392   0.810  10.659
 3329W        W 4193  14.750   0.546   9.857
 3330W        W 4194  14.735   3.256  10.835
 3331W        W 4195  16.294   2.276   7.731
 3332W        W 4196  14.640   1.293   9.315
 3333W        W 4197  15.766   1.421  10.521
 3334W        W 4198  18.078   0.917   9.008
 3335W        W 4199  17.760   1.987   9.800
 3336W        W 4200  16.340   1.347   8.983
 3337W        W 4201  16.796   2.801   9.249
 3338W        W 4202  15.312   2.150   9.428
 3339W        W 4203  14.501   1.783   9.274
 3340W        W 4204  15.730   1.790  10.162
 3341W        W 4205  17.905   1.534  10.460
 3342W        W 4206  15.445   2.964   8.926
 3343W        W 4207  16.647   2.683  10.075
 3344W        W 4208  15.985   1.206   9.329
 3345W        W 4209  16.121   2.042   9.056
 3346W        W 4210  17.140   3.025  10.732
 3347W        W 4211  16.288   2.099  10.847
 3348W        W 4212  16.270   1.968  10.317
 3349W        W 4213  14.571   1.132  10.713
 3350W        W 4214  17.413   2.675  10.463
 3351W        W 4215  14.966   0.226   8.352
 3352W        W 4216  15.594   2.626   9.515
 3353W        W 4217  17.936   2.393   8.843
 3354W        W 4218  17.688   0.715   9.266
 3355W        W 4219  17.847   0.906   7.304
 3356W        W 4220  18.286   1.503   9.690
 3357W        W 4221  16.228   3.225   9.494
 3358W        W 4222  17.923   2.665   8.001
 3359W        W 4223  14.910   3.647   8.001
 3360W        W 4224  15.371   3.612   8.282
 3361W        W 4225  15.609   0.569   9.541
 3362W        W 4226  17.828   1.422   9.947
 3363W        W 4227  17.186   1.674   8.513
 3364W        W 4228  17.346   1.621   7.522
 3365W        W 4229  16.411   2.736   9.599
 3366W        W 4230  16.376   0.820   8.835
 3367W        W 4231  16.890   2.950   9.740
 3368W        W 4232  17.698   1.882   8.462
 3369W        W 4233  16.264   0.240   8.241
 3370W        W 4234  15.144   3.194   8.093
 3371W        W 4235  14.671   0.622   8.573
 3372W        W 4236  17.212   1.312   8.899
 3373W        W 4237  14.929   2.988   9.038
 3374W        W 4238  16.129   3.338   7.861
 3375W        W 4239  17.519   1.266   7.157
 3376W        W 4240  14.778   3.010   9.535
 3377W        W 4241  15.451   2.646  10.010
 3378W        W 4242  15.927   2.161   8.570
 3379W        W 4243  16.101   0.381   9.620
 3380W        W 4244  18.135   0.259   9.128
 3381W        W 4245  15.522   2.328   6.903
 3382W        W 4246  14.987   0.820   7.468
 3383W        W 4247  15.085   2.931   8.544
 3384W        W 4248  16.114   2.594   8.761
 3385W        W 4249  17.534   3.205  10.242
 3386W        W 4250  16.700   0.926   7.661
 3387W        W 4251  17.834   3.528   8.893
 3388W        W 4252  17.377   1.291  10.223
 3389W        W 4253  18.096   2.727   8.498
 3390W        W 4254  16.775   2.173  10.145
 3391W        W 4255  14.321   1.942   8.341
 3392W        W 4256  15.657   2.203   9.830
 3393W        W 4257  16.730   1.299   8.108
 3394W        W 4258  16.686   1.771   8.357
 3395W        W 4259  15.062   1.291   9.723
 3396W        W 4260  15.047   1.194  10.490
 3397W        W 4261  14.893   0.234   8.874
 3398W        W 4262  16.813   0.570   9.312
 3399W        W 4263  16.520   0.674  10.573
 3400W        W 4264  16.883   0.435   7.723
 3401W        W 4265  18.048   3.232  10.385
 3402W        W 4266  16.824   0.228  10.555
 3403W        W 4267  17.897   2.570  10.606
 3404W        W 4268  17.445   0.740  10.148
 3405W        W 4269  17.107   0.606   8.509
 3406W        W 4270  17.578   1.772  10.781
 3407W        W 4271  15.183   3.404   8.782
 3408W        W 4272  16.302   1.009   7.995
 3409W        W 4273  15.527   0.445  10.542
 3410W        W 4274  17.496   0.890   8.247
 3411W        W 4275  17.867   1.288   8.127
 3412W        W 4276  15.584   3.394  10.599
 3413W        W 4277  15.447   0.096   7.917
 3414W        W 4278  17.832   0.503   8.804
 3415W        W 4279  18.024   2.885   7.507
 3416W        W 4280  14.872   2.121   9.118
 3417W        W 4281  16.885   0.653   7.246
 3418W        W 4282  18.054   2.897   9.028
 3419W        W 4283  17.984   0.280   9.728
 3420W        W 4284  16.625   1.628  10.448
 3421W        W 4285  16.370   2.561   8.314
 3422W        W 4286  17.146   1.944  10.972
 3423W        W 4287  16.777  28.985   9.120
 3424W        W 4288  15.104   1.145   9.174
 3425W        W 4289  15.139   2.164   9.920
 3426W        W 4290  16.670   3.419   8.736
 3427W        W 4291  17.951   1.121   9.515
 3428W        W 4292  16.679   3.433  10.218
 3429W        W 4293  17.742   1.964   7.499
 3430W        W 4294  16.236   1.720   8.621
 3431W        W 4295  18.179   0.280  10.218
 3432W        W 4296  16.333   2.326   9.922
 3433W        W 4297  16.475   0.976   9.313
 3434W        W 4298  17.275   1.275   7.986
 3435W        W 4299  17.673   1.257   7.658
 3436W        W 4300  17.576   2.960   8.249
 3437W        W 4301  17.209   2.606   8.975
 3438W        W 4302  17.054   1.736   7.993
 3439W        W 4303  16.594   1.825   9.018
 3440W        W 4304  17.618   1.689   8.940
 3441W        W 4305  15.101   0.788   9.547
 3442W        W 4306  17.530   1.795  10.258
 3443W        W 4307  18.039   3.332   9.339
 3444W        W 4308  15.932   3.070   8.763
 3445W        W 4309  17.172   3.406   9.912
 3446W        W 4310  17.033   0.769   9.795
 3447W        W 4311  16.240   3.587   9.887
 3448W        W 4312  17.813   0.481   8.257
 3449W        W 4313  17.790   1.605   9.449
 3450W        W 4314  14.606   1.034   9.764
 3451W        W 4315  17.457   0.870   8.778
 3452W        W 4316  17.820   1.050  10.337
 3453W        W 4317  16.728   2.611   8.762
 3454W        W 4318  15.901   3.459   8.303
 3455W        W 4319  15.054   0.373   7.734
 3456W        W 4320  16.375   0.306   9.196
 3457W        W 4321  15.271   3.469   7.617
 3458W        W 4322  15.833   1.851   8.144
 3459W        W 4323  16.408   2.437  10.447
 3460W        W 4324  16.083   0.734   8.396
 3461W        W 4325  17.471   0.246   8.569
 3462W        W 4326  17.339   3.585   9.077
 3463W        W 4327  16.679   3.315   9.230
 3464W        W 4328  16.034   2.340   9.494
 3465W        W 4329  17.893   2.884   9.561
 3466W        W 4330  15.386   0.505   8.239
 3467W        W 4331  16.005   2.808   9.244
 3468W        W 4332  15.483   0.805   7.234
 3469W        W 4333  16.364   1.271   9.733
 3470W        W 4334  17.136   0.187   9.478
 3471W        W 4335  14.722   2.088   9.629
 3472W        W 4336  16.102   1.794   7.650
 3473W        W 4337  15.518   0.308   7.435
 3474W        W 4338  16.334   1.210   8.487
 3475W        W 4339  17.140   0.300  10.038
 3476W        W 4340  15.929   2.345  10.253
 3477W        W 4341  16.756   2.089  10.661
 3478W        W 4342  17.211   2.148  10.439
 3479W        W 4343  16.504   0.349  10.974
 3480W        W 4344  15.575   0.943   9.187
 3481W        W 4345  15.169   0.744   8.681
 3482W        W 4346  14.793   3.363   8.432
 3483W        W 4347  16.578   2.981  10.484
 3484W        W 4348  15.488   2.415   7.764
 3485W        W 4349  17.115   1.804   9.036
 3486W        W 4350  17.298   1.441   9.365
 3487W        W 4351  16.485   2.074   9.483
 3488W        W 4352  17.125   2.500   7.249
 3489W        W 4353  16.700   0.423   8.798
 3490W        W 4354  18.111   0.837   8.050
 3491W        W 4355  14.809   3.376  10.329
 3492W        W 4356  15.076   2.598   9.643
 3493W        W 4357  14.438   3.378   8.053
 3494W        W 4358  16.507   0.697   9.739
 3495W        W 4359  15.831   2.807   7.737
 3496W        W 4360  17.943   3.191   7.949
 3497W        W 4361  16.585   1.800   7.819
 3498W        W 4362  15.601   0.946   8.431
 3499W        W 4363  16.332   0.860   7.322
 3500W        W 4364  16.910   2.573  10.492
 3501W        W 4365  17.337   0.430   8.055
 3502W        W 4366  14.671   0.106   7.528
 3503W        W 4367  15.967   2.709   9.883
 3504W        W 4368  15.720   2.383   9.063
 3505W        W 4369  15.576   2.678   7.294
 3506W        W 4370  14.727   2.914   8.153
 3507W        W 4371  15.316   1.694  10.507
 3508W        W 4372  15.958   0.408  10.861
 3509W        W 4373  16.624   0.375  10.115
 3510W        W 4374  15.771   0.204   8.419
 3511W        W 4375  16.771   0.343   8.216
 3512W        W 4376  14.934   0.313   9.419
 3513W        W 4377  14.761   1.109   8.786
 3514W        W 4378  17.644   0.198   9.293
 3515W        W 4379  14.893   0.682   8.104
 3516W        W 4380  17.488   0.508   9.689
 3517W        W 4381  17.958   1.496   7.292
 3518W        W 4382  15.295   0.527   9.127
 3519W        W 4383  16.391   0.994  10.176
 3520W        W 4384  14.512   0.590   7.630
 3521W        W 4385  15.440   2.200  10.327
 3522W        W 4386  16.794   1.396   9.250
 3523W        W 4387  16.604   3.725   7.723
 3524W        W 4388  14.581   2.329   7.109
 3525W        W 4389  15.605   2.669  10.492
 3526W        W 4390  15.009   1.685  10.082
 3527W        W 4391  16.086   1.904   9.815
 3528W        W 4392  17.650   0.246  10.113
 3529W        W 4393  18.160   1.840  10.102
 3530W        W 4394  18.048   1.668   7.795
 3531W        W 4395  16.799   2.207   8.100
 3532W        W 4396  17.477   3.593   7.460
 3533W        W 4397  16.728   1.620  10.958
 3534W        W 4398  15.128   2.536  10.624
 3535W        W 4399  18.270   0.645  10.750
 3536W        W 4400  17.674   1.211   9.096
 3537W        W 4401  16.018   3.495  10.893
 3538W        W 4402  16.055   0.158   7.569
 3539W        W 4403  17.653   2.498   7.557
 3540W        W 4404  15.503   0.955  10.473
 3541W        W 4405  16.088   2.838  10.386
 3542W        W 4406  17.903   0.761   9.905
 3543W        W 4407  17.487   3.442   7.995
 3544W        W 4408  17.352   2.155   9.382
 3545W        W 4409  15.626   0.645  10.057
 3546W        W 4410  16.197   1.609  10.744
 3547W        W 4411  15.441   2.764   8.134
 3548W        W 4412  17.293   2.111   8.250
 3549W        W 4413  15.142   0.883  10.061
 3550W        W 4414  16.321   3.197   8.442
 3551W        W 4415  18.041   1.387   8.749
 3552W        W 4416  16.285   0.225  10.491
 3553W        W 4417  17.227   2.664   9.478
 3554W        W 4418  17.586   3.111   9.178
 3555W        W 4419  14.714   2.853  10.514
 3556W        W 4420  15.527   1.050   9.710
 3557W        W 4421  15.352   0.246   8.695
 3558W        W 4422  17.214   0.930   9.291
 3559W        W 4423  15.839   2.203   7.433
 3560W        W 4424  17.843   2.073   9.228
 3561W        W 4425  15.201   3.007  10.399
 3562W        W 4426  17.774   3.661   8.369
 3563W        W 4427  15.706   0.599   8.798
 3564W        W 4428  15.298   2.234   8.778
 3565W        W 4429  15.880   3.647   9.511
 3566W        W 4430  17.723   3.590  10.545
 3567W        W 4431  16.957   1.834   9.551
 3568W        W 4432  14.874   1.235   7.148
 3569W        W 4433  17.963   3.211   8.489
 3570W        W 4434  17.679   0.745   7.780
 3571W        W 4435  15.800   0.159  10.214
 3572W        W 4436  17.624   2.827   8.749
 3573W        W 4437  17.571   1.337   8.536
 3574W        W 4438  15.933   1.067   8.823
 3575W        W 4439  16.185   1.486  10.189
 3576W        W 4440  17.173   2.593  10.016
 3577W        W 4441  15.868   1.092  10.132
 3578W        W 4442  15.747   3.550   8.777
 3579W        W 4443  15.115   3.574  10.677
 3580W        W 4444  15.289   2.943   7.647
 3581W        W 4445  17.656   2.442   8.414
 3582W        W 4446  15.415   1.349  10.123
 3583W        W 4447  18.177   1.147   7.630
 3584W        W 4448  15.912   2.409   8.094
 3585W        W 4449  17.020   1.711  10.133
 3586W        W 4450  16.952   1.322   9.767
 3587W        W 4451  15.408   1.736   9.760
 3588W        W 4452  17.559   3.497   9.550
 3589W        W 4453  17.348   0.304  10.552
 3590W        W 4454  15.007   0.446  10.343
 3591W        W 4455  15.500   1.436   9.347
 3592W        W 4456  15.912   1.171   7.285
 3593W        W 4457  14.636   3.010  10.022
 3594W        W 4458  16.240   1.643   9.390
 3595W        W 4459  15.905   0.663   7.501
 3596W        W 4460  15.563   1.802   8.629
 3597W        W 4461  14.825   3.513   9.825
 3598W        W 4462  17.567   1.696   7.991
 3599W        W 4463  17.826   0.565  10.483
 3600W        W 4464  17.167   2.579   8.465
 3601W        W 4465  14.780   1.633  10.586
 3602W        W 4466  17.792   0.230   7.716
 3603W        W 4467  17.386   2.554   7.987
 3604W        W 4468  16.258   1.540   8.107
 3605W        W 4469  17.346   0.478   7.487
 3606W        W 4470  17.473   1.080   9.732
 3607W        W 4471  14.862   1.613   8.932
 3608W        W 4472  15.624   2.620   8.591
 3609W        W 4473  17.084   1.127   8.448
 3610W        W 4474  16.033   0.699   9.205
 3611W        W 4475  18.135   2.478   9.766
 3612W        W 4476  18.188   0.662   9.463
 3613W        W 4477  14.649   3.403   8.922
 3614W        W 4478  15.034   2.480   8.303
 3615W        W 4479  15.130   0.378  10.867
 3616W        W 4480  16.283   3.008  10.902
 3617W        W 4481  18.098   1.908   8.792
 3618W        W 4482  17.291   2.115   7.716
 3619W        W 4483  16.691   3.416   9.718
 3620W        W 4484  17.543   2.278  10.809
 3621W        W 4485  15.928  28.918   8.004
 3622W        W 4486  16.882   0.912   8.889
 3623W        W 4487  14.692   2.575   9.288
 3624W        W 4488  15.856   0.447   7.971
 3625W        W 4489  15.833   1.987  10.626
 3626W        W 4490  16.641   0.816   8.388
 3627W        W 4491  16.829   2.402   9.670
 3628W        W 4492  15.148   3.070   9.898
 3629W        W 4493  15.787   3.001  10.834
 3630W        W 4494  15.444   0.709   7.758
 3631W        W 4495  17.021   0.829   8.034
 3632W        W 4496  17.032   3.030  10.232
 3633W        W 4497  15.877   1.579   8.984
 3634W        W 4498  15.362   3.507   9.670
 3635W        W 4499  17.970   3.399   7.442
 3636W        W 4500  14.930   2.101  10.408
 3637W        W 4501  16.879   2.255   9.167
 3638W        W 4502  15.478   2.219   8.287
 3639W        W 4503  15.742   3.139   9.696
 3640W        W 4504  16.159   0.356   8.738
 3641W        W 4505  14.592   2.150   7.597
 3642W        W 4506  16.393   1.348   7.588
 3643W        W 4507  14.827   2.054   8.596
 3644W        W 4508  16.135   0.550  10.107
 3645W        W 4509  17.822   0.399   7.236
 3646W        W 4510  17.994   2.030  10.596
 3647W        W 4511  16.514   3.453  10.705
 3648W        W 4512  18.199   2.359  10.245
 3649W        W 4513  17.681   3.048  10.700
 3650W        W 4514  15.413   3.662   9.183
 3651W        W 4515  18.109   2.225   8.375
 3652W        W 4516  16.756   1.422   8.713
 3653W        W 4517  16.500  28.948   8.644
 3654W        W 4518  15.526   3.159   8.462
 3655W        W 4519  16.018   0.873   9.706
 3656W        W 4520  15.789   0.243   9.183
 3657W        W 4521  14.797   3.208   7.712
 3658W        W 4522  16.446   2.190   8.678
 3659W        W 4523  15.672   3.090  10.194
 3660W        W 4524  14.728   2.107   8.085
 3661W        W 4525  14.797   0.698   9.094
 3662W        W 4526  16.409   2.467   9.153
 3663W        W 4527  14.548   0.276   8.035
 3664W        W 4528  17.390   1.624   9.806
 3665W        W 4529  17.228   0.985   7.536
 3666W        W 4530  17.666   2.572   9.227
 3667W        W 4531  16.407   2.982   8.951
 3668W        W 4532  15.622   3.221   7.950
 3669W        W 4533  16.962   0.126   7.328
 3670W        W 4534  14.967   3.431   9.316
 3671W        W 4535  16.968   1.129  10.813
 3672W        W 4536  15.033   0.890  10.940
 3673W        W 4537  14.330   1.392   8.240
 3674W        W 4538  15.911   1.321   7.789
 3675W        W 4539  17.134   1.576  10.607
 3676W        W 4540  15.767   1.887   9.407
 3677W        W 4541  17.002   0.068   8.592
 3678W        W 4542  16.203   3.465   9.035
 3679W        W 4543  17.450   2.996   9.788
 3680W        W 4544  17.076   3.115   8.919
 3681W        W 4545  16.956   2.130   8.655
 3682W        W 4546  16.365   0.522   7.779
 3683W        W 4547  18.111   0.136   8.495
 3684W        W 4548  15.717   1.655   7.315
 3685W        W 4549  17.917   0.940   8.523
 3686W        W 4550  16.781   2.190   7.538
 3687W        W 4551  17.674   2.287  10.229
 3688W        W 4552  17.545   2.990   7.704
 3689W        W 4553  16.009   0.808  10.539
 3690W        W 4554  15.851   1.454   9.760
 3691W        W 4555  17.826   2.786  10.126
 3692W        W 4556  16.978   0.694  10.345
 3693W        W 4557  14.658   1.329  10.187
 3694W        W 4558  16.563   1.739   9.901
 3695W        W 4559  14.869   2.531   8.795
 3696W        W 4560  15.012   1.701   9.420
 3697W        W 4561  17.256   2.111   9.902
 3698W        W 4562  17.163   3.503  10.438
 3699W        W 4563  16.866   1.202  10.290
 3700W        W 4564  17.456   3.319   8.620
 3701W        W 4565  16.341   3.088   9.994
 3702W        W 4566  15.747   3.261   9.207
 3703W        W 4567  17.614   2.479   9.748
 3704W        W 4568  16.552   2.552  10.920
 3705W        W 4569  15.220   2.573   9.157
 3706W        W 4570  17.456   2.175   8.833
 3707W        W 4571  17.146   3.226   9.416
 3708W        W 4572  15.300   3.043   9.411
 3709W        W 4573  16.457   1.175  10.675
 3710W        W 4574  16.658   3.638   8.264
 3711W        W 4575  16.015   2.525  10.790
 3712W        W 4576  15.933   2.906   8.259
 3713W        W 4577  15.392   1.306   7.058
 3714W        W 4578  14.477   3.557  14.176
 3715W        W 4579  14.987   2.510  13.728
 3716W        W 4580  17.819   2.151  11.666
 3717W        W 4581  17.930   3.251  13.685
 3718W        W 4582  15.606   3.327  11.196
 3719W        W 4583  15.758   1.386  12.018
 3720W        W 4584  15.308   1.139  12.222
 3721W        W 4585  16.287   2.010  11.737
 3722W        W 4586  16.241   3.386  14.034
 3723W        W 4587  14.710   0.841  13.947
 3724W        W 4588  15.308   0.082  13.836
 3725W        W 4589  17.159   0.488  12.660
 3726W        W 4590  16.847   1.251  11.326
 3727W        W 4591  17.384   0.830  14.350
 3728W        W 4592  14.786   0.528  13.541
 3729W        W 4593  14.815   3.169  14.216
 3730W        W 4594  16.276   2.331  11.310
 3731W        W 4595  14.788   1.157  12.967
 3732W        W 4596  15.796   1.365  14.128
 3733W        W 4597  18.001   0.987  12.672
 3734W        W 4598  17.774   1.845  13.418
 3735W        W 4599  16.304   1.566  12.641
 3736W        W 4600  16.953   2.736  12.990
 3737W        W 4601  15.225   2.164  13.188
 3738W        W 4602  14.587   1.584  12.763
 3739W        W 4603  15.770   1.788  13.812
 3740W        W 4604  17.905   1.515  14.142
 3741W        W 4605  15.538   2.935  12.623
 3742W        W 4606  16.779   2.673  13.621
 3743W        W 4607  15.998   1.209  12.869
 3744W        W 4608  16.141   2.053  12.624
 3745W        W 4609  16.938   2.935  14.438
 3746W        W 4610  16.139   2.256  14.327
 3747W        W 4611  16.293   1.981  13.896
 3748W        W 4612  14.620   1.134  14.373
 3749W        W 4613  17.394   2.696  14.239
 3750W        W 4614  15.002   0.195  12.018
 3751W        W 4615  15.611   2.598  13.132
 3752W        W 4616  17.996   2.431  12.517
 3753W        W 4617  17.571   0.764  12.888
 3754W        W 4618  17.839   0.865  10.932
 3755W        W 4619  18.210   1.544  13.369
 3756W        W 4620  16.347   3.219  13.119
 3757W        W 4621  18.111   2.643  11.668
 3758W        W 4622  14.959   3.523  11.674
 3759W        W 4623  15.368   3.470  12.033
 3760W        W 4624  15.277   0.369  13.394
 3761W        W 4625  17.803   1.354  13.648
 3762W        W 4626  17.092   1.634  12.099
 3763W        W 4627  17.254   1.471  11.117
 3764W        W 4628  16.483   2.703  13.187
 3765W        W 4629  16.445   1.052  12.661
 3766W        W 4630  16.785   3.112  13.365
 3767W        W 4631  17.541   1.778  11.927
 3768W        W 4632  16.488   0.416  12.061
 3769W        W 4633  15.331   3.154  11.627
 3770W        W 4634  14.663   0.556  12.217
 3771W        W 4635  17.142   1.517  12.599
 3772W        W 4636  15.045   2.906  12.771
 3773W        W 4637  16.083   3.216  11.344
 3774W        W 4638  17.562   1.271  10.748
 3775W        W 4639  14.761   3.088  13.313
 3776W        W 4640  15.488   2.573  13.651
 3777W        W 4641  15.671   2.066  12.390
 3778W        W 4642  15.921   0.457  13.332
 3779W        W 4643  18.141   0.264  12.828
 3780W        W 4644  15.364   2.101  10.831
 3781W        W 4645  14.925   1.042  11.448
 3782W        W 4646  15.163   2.963  12.130
 3783W        W 4647  15.994   2.540  12.163
 3784W        W 4648  17.586   3.191  14.074
 3785W        W 4649  16.447   1.012  11.576
 3786W        W 4650  17.835   3.342  12.640
 3787W        W 4651  17.338   1.225  13.926
 3788W        W 4652  18.210   2.836  12.242
 3789W        W 4653  16.819   2.151  13.786
 3790W        W 4654  14.464   1.764  11.914
 3791W        W 4655  15.707   2.173  13.417
 3792W        W 4656  16.763   1.344  11.827
 3793W        W 4657  16.596   1.769  12.065
 3794W        W 4658  15.137   1.266  13.344
 3795W        W 4659  15.079   1.225  14.041
 3796W        W 4660  14.988   0.222  12.530
 3797W        W 4661  16.712   0.442  12.957
 3798W        W 4662  16.481   0.689  14.237
 3799W        W 4663  16.985   0.480  11.360
 3800W        W 4664  18.125   3.133  14.157
 3801W        W 4665  16.834   0.223  14.211
 3802W        W 4666  18.192   2.372  14.580
 3803W        W 4667  17.418   0.707  13.850
 3804W        W 4668  17.024   0.594  12.106
 3805W        W 4669  17.520   1.815  14.500
 3806W        W 4670  15.196   3.323  12.498
 3807W        W 4671  16.032   0.968  11.877
 3808W        W 4672  15.474   0.423  14.221
 3809W        W 4673  17.485   0.915  11.854
 3810W        W 4674  17.823   1.326  11.751
 3811W        W 4675  15.802   0.011  11.668
 3812W        W 4676  17.855   0.512  12.476
 3813W        W 4677  18.129   2.875  10.932
 3814W        W 4678  14.788   2.061  12.609
 3815W        W 4679  16.970   0.609  10.862
 3816W        W 4680  18.116   2.875  12.769
 3817W        W 4681  17.944   0.265  13.373
 3818W        W 4682  16.613   1.650  14.104
 3819W        W 4683  16.395   2.514  11.801
 3820W        W 4684  16.920   1.881  14.629
 3821W        W 4685  16.750  28.954  12.793
 3822W        W 4686  15.289   0.965  12.747
 3823W        W 4687  14.840   2.079  13.514
 3824W        W 4688  16.836   3.295  12.415
 3825W        W 4689  17.817   1.194  13.140
 3826W        W 4690  16.692   3.401  13.798
 3827W        W 4691  17.882   2.003  11.121
 3828W        W 4692  16.083   1.785  12.174
 3829W        W 4693  18.105   0.254  13.868
 3830W        W 4694  16.456   2.257  13.444
 3831W        W 4695  16.627   0.960  13.132
 3832W        W 4696  17.278   1.345  11.658
 3833W        W 4697  17.675   1.218  11.272
 3834W        W 4698  17.801   3.016  11.878
 3835W        W 4699  17.444   2.501  12.729
 3836W        W 4700  17.121   1.823  11.513
 3837W        W 4701  16.720   1.865  12.580
 3838W        W 4702  17.611   1.704  12.466
 3839W        W 4703  15.062   0.775  13.175
 3840W        W 4704  17.501   1.724  13.954
 3841W        W 4705  18.059   3.254  13.123
 3842W        W 4706  16.042   2.991  12.504
 3843W        W 4707  17.147   3.429  13.552
 3844W        W 4708  16.921   0.840  13.574
 3845W        W 4709  16.196   3.483  13.522
 3846W        W 4710  17.827   0.503  11.931
 3847W        W 4711  17.505   1.661  12.981
 3848W        W 4712  14.688   1.032  13.463
 3849W        W 4713  17.445   0.819  12.373
 3850W        W 4714  17.802   1.028  14.053
 3851W        W 4715  16.829   2.584  12.488
 3852W        W 4716  16.158   3.358  12.157
 3853W        W 4717  15.111   0.531  11.370
 3854W        W 4718  16.294   0.143  13.076
 3855W        W 4719  15.117   3.520  11.182
 3856W        W 4720  15.834   1.780  11.666
 3857W        W 4721  16.417   2.475  13.921
 3858W        W 4722  16.169   0.718  12.341
 3859W        W 4723  17.429   0.288  12.252
 3860W        W 4724  17.298   3.462  12.691
 3861W        W 4725  16.807   3.392  12.920
 3862W        W 4726  16.118   2.309  13.065
 3863W        W 4727  17.904   2.837  13.385
 3864W        W 4728  15.423   0.345  11.759
 3865W        W 4729  16.040   2.824  12.981
 3866W        W 4730  15.565   0.756  10.970
 3867W        W 4731  16.343   1.396  13.247
 3868W        W 4732  17.148   0.212  13.129
 3869W        W 4733  14.611   2.013  13.081
 3870W        W 4734  16.179   1.807  11.260
 3871W        W 4735  15.567   0.286  11.229
 3872W        W 4736  16.193   1.258  12.262
 3873W        W 4737  17.100   0.365  13.642
 3874W        W 4738  15.911   2.313  13.863
 3875W        W 4739  16.644   2.138  14.271
 3876W        W 4740  17.154   2.057  14.172
 3877W        W 4741  16.512   0.314  14.609
 3878W        W 4742  15.734   0.765  12.932
 3879W        W 4743  15.205   0.646  12.344
 3880W        W 4744  14.822   3.401  12.153
 3881W        W 4745  16.594   2.962  14.050
 3882W        W 4746  15.505   2.146  11.898
 3883W        W 4747  17.214   2.020  12.703
 3884W        W 4748  17.204   1.252  13.052
 3885W        W 4749  16.453   1.865  13.043
 3886W        W 4750  17.066   2.443  10.957
 3887W        W 4751  16.683   0.636  12.488
 3888W        W 4752  18.143   0.869  11.717
 3889W        W 4753  14.394   3.334  13.671
 3890W        W 4754  15.110   2.665  13.238
 3891W        W 4755  14.446   3.485  11.683
 3892W        W 4756  16.427   0.552  13.366
 3893W        W 4757  15.923   2.720  11.267
 3894W        W 4758  17.853   3.018  11.343
 3895W        W 4759  16.622   1.692  11.488
 3896W        W 4760  15.686   0.638  12.106
 3897W        W 4761  16.590   0.855  11.097
 3898W        W 4762  16.914   2.543  14.103
 3899W        W 4763  17.352   0.443  11.730
 3900W        W 4764  14.750   0.179  11.181
 3901W        W 4765  16.026   2.615  13.474
 3902W        W 4766  15.812   2.504  12.646
 3903W        W 4767  15.509   2.586  10.989
 3904W        W 4768  14.734   3.017  11.826
 3905W        W 4769  15.352   1.663  14.105
 3906W        W 4770  15.962   0.393  14.491
 3907W        W 4771  16.623   0.415  13.799
 3908W        W 4772  15.999   0.171  12.154
 3909W        W 4773  16.859   0.173  11.776
 3910W        W 4774  14.863   0.283  13.059
 3911W        W 4775  14.805   1.054  12.344
 3912W        W 4776  17.634   0.239  12.933
 3913W        W 4777  15.031   0.711  11.862
 3914W        W 4778  17.501   0.516  13.351
 3915W        W 4779  17.992   1.516  10.969
 3916W        W 4780  15.332   0.446  12.853
 3917W        W 4781  16.434   1.006  13.669
 3918W        W 4782  14.622   0.679  11.232
 3919W        W 4783  15.321   2.078  13.762
 3920W        W 4784  16.733   1.426  12.903
 3921W        W 4785  16.427   3.581  11.228
 3922W        W 4786  14.766   1.907  11.027
 3923W        W 4787  15.647   2.630  14.159
 3924W        W 4788  15.013   1.633  13.703
 3925W        W 4789  16.108   1.868  13.431
 3926W        W 4790  17.589   0.212  13.774
 3927W        W 4791  18.146   1.829  13.804
 3928W        W 4792  18.132   1.663  11.459
 3929W        W 4793  16.786   2.144  11.747
 3930W        W 4794  17.400   3.460  10.907
 3931W        W 4795  16.579   1.453  14.577
 3932W        W 4796  15.218   2.368  14.186
 3933W        W 4797  18.235   0.626  14.399
 3934W        W 4798  17.565   1.237  12.676
 3935W        W 4799  16.131   3.560  14.532
 3936W        W 4800  16.105   0.217  11.310
 3937W        W 4801  17.901   2.497  11.200
 3938W        W 4802  15.500   0.931  14.078
 3939W        W 4803  16.094   2.844  14.037
 3940W        W 4804  17.882   0.698  13.645
 3941W        W 4805  17.666   3.534  11.342
 3942W        W 4806  17.441   2.152  13.145
 3943W        W 4807  15.612   0.570  13.731
 3944W        W 4808  16.138   1.703  14.316
 3945W        W 4809  15.521   2.681  11.761
 3946W        W 4810  17.324   2.236  11.831
 3947W        W 4811  15.162   0.849  13.689
 3948W        W 4812  16.432   2.867  12.196
 3949W        W 4813  18.022   1.421  12.351
 3950W        W 4814  16.315   0.196  14.150
 3951W        W 4815  17.394   2.651  13.245
 3952W        W 4816  17.650   2.967  12.940
 3953W        W 4817  16.421   2.823  11.376
 3954W        W 4818  14.740   2.588  14.202
 3955W        W 4819  15.555   0.952  13.367
 3956W        W 4820  15.452   0.199  12.271
 3957W        W 4821  17.104   0.745  13.108
 3958W        W 4822  15.820   2.171  11.126
 3959W        W 4823  17.775   2.054  12.781
 3960W        W 4824  15.187   2.860  14.046
 3961W        W 4825  17.691   3.603  11.886
 3962W        W 4826  15.819   0.408  12.576
 3963W        W 4827  15.280   1.880  12.697
 3964W        W 4828  15.743   3.621  13.294
 3965W        W 4829  18.022   3.618  14.041
 3966W        W 4830  17.006   1.797  13.167
 3967W        W 4831  14.875   1.382  11.042
 3968W        W 4832  18.062   3.346  12.155
 3969W        W 4833  17.722   0.725  11.436
 3970W        W 4834  15.845   0.166  13.946
 3971W        W 4835  17.717   2.863  12.434
 3972W        W 4836  17.527   1.315  12.166
 3973W        W 4837  15.754   1.016  12.458
 3974W        W 4838  16.203   1.478  13.770
 3975W        W 4839  17.284   2.551  13.741
 3976W        W 4840  15.906   1.032  13.755
 3977W        W 4841  15.707   3.401  12.436
 3978W        W 4842  14.908   3.382  13.754
 3979W        W 4843  15.253   3.090  10.897
 3980W        W 4844  17.778   2.528  12.045
 3981W        W 4845  15.471   1.328  13.728
 3982W        W 4846  18.188   1.135  11.261
 3983W        W 4847  15.911   2.358  11.662
 3984W        W 4848  17.015   1.665  13.798
 3985W        W 4849  16.855   1.329  13.427
 3986W        W 4850  15.441   1.725  13.383
 3987W        W 4851  17.617   3.447  13.303
 3988W        W 4852  17.332   0.325  14.257
 3989W        W 4853  14.973   0.406  14.057
 3990W        W 4854  15.499   1.402  12.969
 3991W        W 4855  15.939   1.145  10.924
 3992W        W 4856  14.664   2.904  13.794
 3993W        W 4857  15.953   1.702  12.985
 3994W        W 4858  16.098   0.752  11.259
 3995W        W 4859  15.358   1.658  12.218
 3996W        W 4860  14.704   3.618  13.341
 3997W        W 4861  17.612   1.704  11.424
 3998W        W 4862  17.794   0.541  14.160
 3999W        W 4863  17.291   2.614  12.226
 4000W        W 4864  14.823   1.602  14.274
 4001W        W 4865  17.828   0.216  11.426
 4002W        W 4866  17.581   2.631  11.580
 4003W        W 4867  16.251   1.467  11.780
 4004W        W 4868  17.430   0.481  11.081
 4005W        W 4869  17.433   1.017  13.446
 4006W        W 4870  15.084   1.414  12.626
 4007W        W 4871  15.461   2.546  12.261
 4008W        W 4872  17.075   1.101  12.145
 4009W        W 4873  16.229   0.639  12.882
 4010W        W 4874  18.231   2.428  13.430
 4011W        W 4875  18.045   0.697  13.110
 4012W        W 4876  14.500   3.375  12.577
 4013W        W 4877  15.040   2.492  11.902
 4014W        W 4878  15.024   0.391  14.597
 4015W        W 4879  16.309   3.088  14.462
 4016W        W 4880  18.162   1.932  12.458
 4017W        W 4881  17.437   2.208  11.310
 4018W        W 4882  16.687   3.648  13.355
 4019W        W 4883  17.645   2.323  14.519
 4020W        W 4884  16.318   0.055  11.749
 4021W        W 4885  16.997   1.007  12.652
 4022W        W 4886  14.796   2.464  12.904
 4023W        W 4887  16.027   0.482  11.742
 4024W        W 4888  15.650   2.084  14.242
 4025W        W 4889  16.574   0.935  12.080
 4026W        W 4890  16.977   2.314  13.313
 4027W        W 4891  15.212   3.024  13.567
 4028W        W 4892  15.825   3.216  14.270
 4029W        W 4893  15.638   0.752  11.511
 4030W        W 4894  16.966   0.884  11.680
 4031W        W 4895  17.079   3.009  13.906
 4032W        W 4896  15.769   1.549  12.526
 4033W        W 4897  15.206   3.513  13.336
 4034W        W 4898  17.977   3.367  10.955
 4035W        W 4899  14.856   2.052  14.029
 4036W        W 4900  16.669   2.298  12.896
 4037W        W 4901  15.158   2.119  12.264
 4038W        W 4902  15.870   3.107  13.379
 4039W        W 4903  16.351   0.257  12.559
 4040W        W 4904  14.630   2.117  11.550
 4041W        W 4905  16.356   1.328  11.175
 4042W        W 4906  14.829   1.684  12.279
 4043W        W 4907  16.137   0.575  13.805
 4044W        W 4908  17.912   0.348  10.947
 4045W        W 4909  17.997   1.988  14.308
 4046W        W 4910  16.682   3.429  14.319
 4047W        W 4911  18.113   2.328  13.923
 4048W        W 4912  17.890   2.788  14.473
 4049W        W 4913  15.431   3.577  12.873
 4050W        W 4914  18.215   2.267  12.047
 4051W        W 4915  16.704   1.372  12.364
 4052W        W 4916  16.439  28.873  12.230
 4053W        W 4917  15.684   3.009  12.120
 4054W        W 4918  16.093   0.939  13.288
 4055W        W 4919  15.780   0.105  12.991
 4056W        W 4920  14.711   3.209  11.340
 4057W        W 4921  16.461   2.232  12.236
 4058W        W 4922  15.649   3.022  13.830
 4059W        W 4923  14.992   1.866  11.832
 4060W        W 4924  14.836   0.681  12.711
 4061W        W 4925  16.314   2.547  12.619
 4062W        W 4926  14.663   0.372  11.661
 4063W        W 4927  17.360   1.532  13.460
 4064W        W 4928  17.245   0.936  11.222
 4065W        W 4929  17.863   2.480  13.035
 4066W        W 4930  16.558   2.975  12.723
 4067W        W 4931  15.816   3.368  11.758
 4068W        W 4932  17.016   0.112  11.009
 4069W        W 4933  14.900   3.393  12.916
 4070W        W 4934  16.939   1.092  14.468
 4071W        W 4935  15.072   0.833  14.359
 4072W        W 4936  14.751   1.326  11.892
 4073W        W 4937  15.918   1.248  11.444
 4074W        W 4938  17.107   1.542  14.279
 4075W        W 4939  15.669   2.105  12.918
 4076W        W 4940  16.877   0.157  12.333
 4077W        W 4941  16.334   3.450  12.636
 4078W        W 4942  17.472   3.029  13.583
 4079W        W 4943  17.219   2.964  12.613
 4080W        W 4944  17.001   2.139  12.235
 4081W        W 4945  16.500   0.495  11.516
 4082W        W 4946  18.121   0.128  12.149
 4083W        W 4947  15.751   1.641  11.013
 4084W        W 4948  17.911   0.959  12.165
 4085W        W 4949  16.712   2.101  11.191
 4086W        W 4950  17.611   2.238  14.017
 4087W        W 4951  17.480   2.739  11.050
 4088W        W 4952  15.976   0.833  14.230
 4089W        W 4953  15.846   1.397  13.384
 4090W        W 4954  17.801   2.747  13.904
 4091W        W 4955  16.964   0.710  14.067
 4092W        W 4956  14.621   1.335  13.869
 4093W        W 4957  16.595   1.757  13.533
 4094W        W 4958  14.946   2.545  12.408
 4095W        W 4959  15.010   1.686  13.083
 4096W        W 4960  17.305   2.049  13.620
 4097W        W 4961  17.155   3.496  14.053
 4098W        W 4962  16.820   1.200  13.958
 4099W        W 4963  17.476   3.268  12.238
 4100W        W 4964  16.344   2.998  13.607
 4101W        W 4965  15.886   3.311  12.902
 4102W        W 4966  17.730   2.362  13.532
 4103W        W 4967  16.503   2.614  14.423
 4104W        W 4968  15.302   2.427  12.746
 4105W        W 4969  17.543   2.174  12.317
 4106W        W 4970  17.226   3.163  13.117
 4107W        W 4971  15.422   3.100  13.098
 4108W        W 4972  16.337   1.201  14.183
 4109W        W 4973  16.430   3.204  11.747
 4110W        W 4974  15.978   2.710  14.538
 4111W        W 4975  16.026   2.879  11.757
 4112W        W 4976  15.398   1.274  10.871
 4113W        W 4977  14.635   3.704  18.031
 4114W        W 4978  15.105   2.641  17.538
 4115W        W 4979  17.903   2.166  15.348
 4116W        W 4980  18.023   3.287  17.309
 4117W        W 4981  15.863   3.170  14.779
 4118W        W 4982  15.848   1.430  15.711
 4119W        W 4983  15.402   1.300  15.984
 4120W        W 4984  16.295   2.026  15.196
 4121W        W 4985  16.112   3.279  17.680
 4122W        W 4986  14.699   0.854  17.569
 4123W        W 4987  15.299   0.123  17.388
 4124W        W 4988  17.309   0.536  16.330
 4125W        W 4989  16.838   1.170  14.990
 4126W        W 4990  17.414   0.851  18.003
 4127W        W 4991  14.830   0.525  17.159
 4128W        W 4992  14.804   3.237  18.142
 4129W        W 4993  16.285   2.416  14.847
 4130W        W 4994  14.816   1.203  16.588
 4131W        W 4995  15.794   1.382  17.773
 4132W        W 4996  18.051   1.042  16.369
 4133W        W 4997  17.860   2.049  17.195
 4134W        W 4998  16.290   1.532  16.267
 4135W        W 4999  16.921   2.807  16.629
 4136W        W 5000  15.178   2.108  16.881
 4137W        W 5001  14.485   1.607  16.530
 4138W        W 5002  15.734   1.764  17.427
 4139W        W 5003  17.925   1.511  17.840
 4140W        W 5004  15.573   2.894  16.308
 4141W        W 5005  16.695   2.640  17.309
 4142W        W 5006  16.094   1.176  16.611
 4143W        W 5007  16.096   2.013  16.277
 4144W        W 5008  16.886   2.933  18.067
 4145W        W 5009  16.315   2.063  18.108
 4146W        W 5010  16.213   1.869  17.634
 4147W        W 5011  14.586   1.179  17.973
 4148W        W 5012  17.342   2.710  17.885
 4149W        W 5013  15.043   0.253  15.638
 4150W        W 5014  15.669   2.587  16.808
 4151W        W 5015  18.163   2.426  16.219
 4152W        W 5016  17.622   0.857  16.606
 4153W        W 5017  17.817   0.873  14.620
 4154W        W 5018  18.311   1.519  17.093
 4155W        W 5019  16.277   3.243  16.788
 4156W        W 5020  18.141   2.631  15.424
 4157W        W 5021  15.124   3.452  14.554
 4158W        W 5022  15.799   3.466  15.592
 4159W        W 5023  15.424   0.404  16.914
 4160W        W 5024  17.868   1.403  17.336
 4161W        W 5025  17.170   1.685  15.670
 4162W        W 5026  17.187   1.478  14.780
 4163W        W 5027  16.468   2.726  16.847
 4164W        W 5028  16.442   1.033  16.237
 4165W        W 5029  16.827   3.067  17.073
 4166W        W 5030  17.589   2.000  15.805
 4167W        W 5031  16.485   0.446  15.636
 4168W        W 5032  15.299   3.326  15.637
 4169W        W 5033  14.725   0.613  15.806
 4170W        W 5034  17.191   1.428  16.230
 4171W        W 5035  15.006   2.868  16.408
 4172W        W 5036  16.269   2.912  14.954
 4173W        W 5037  17.551   1.300  14.442
 4174W        W 5038  14.838   2.948  16.879
 4175W        W 5039  15.590   2.630  17.309
 4176W        W 5040  15.777   2.120  15.878
 4177W        W 5041  15.932   0.545  16.960
 4178W        W 5042  18.176   0.249  16.264
 4179W        W 5043  15.189   1.951  14.492
 4180W        W 5044  15.156   0.838  14.877
 4181W        W 5045  15.129   2.911  15.909
 4182W        W 5046  15.958   2.608  15.887
 4183W        W 5047  17.560   3.187  17.564
 4184W        W 5048  16.501   0.879  15.317
 4185W        W 5049  17.907   3.285  16.043
 4186W        W 5050  17.489   1.262  17.665
 4187W        W 5051  18.202   2.824  15.912
 4188W        W 5052  16.859   2.169  17.393
 4189W        W 5053  14.567   1.626  15.634
 4190W        W 5054  15.683   2.156  17.067
 4191W        W 5055  16.745   1.348  15.469
 4192W        W 5056  16.675   1.871  15.544
 4193W        W 5057  15.155   1.287  16.967
 4194W        W 5058  15.055   1.241  17.755
 4195W        W 5059  14.939   0.183  16.155
 4196W        W 5060  16.872   0.578  16.634
 4197W        W 5061  16.563   0.644  17.888
 4198W        W 5062  16.931   0.479  15.058
 4199W        W 5063  18.049   3.100  17.797
 4200W        W 5064  16.948   0.186  17.750
 4201W        W 5065  17.869   2.628  17.933
 4202W        W 5066  17.522   0.737  17.517
 4203W        W 5067  17.162   0.648  15.842
 4204W        W 5068  17.515   1.802  18.164
 4205W        W 5069  15.233   3.297  16.282
 4206W        W 5070  16.024   1.066  15.365
 4207W        W 5071  15.553   0.434  17.889
 4208W        W 5072  17.503   0.950  15.588
 4209W        W 5073  17.841   1.293  15.422
 4210W        W 5074  15.626   3.413  17.893
 4211W        W 5075  15.474   0.089  15.209
 4212W        W 5076  17.832   0.619  16.173
 4213W        W 5077  18.337   2.799  14.876
 4214W        W 5078  14.768   2.023  16.370
 4215W        W 5079  16.974   0.592  14.560
 4216W        W 5080  18.126   2.984  16.430
 4217W        W 5081  18.019   0.246  17.059
 4218W        W 5082  16.634   1.445  17.731
 4219W        W 5083  16.455   2.550  15.317
 4220W        W 5084  17.001   1.945  18.261
 4221W        W 5085  16.860  28.933  16.329
 4222W        W 5086  15.245   1.019  16.369
 4223W        W 5087  14.872   2.257  17.278
 4224W        W 5088  16.834   3.263  16.091
 4225W        W 5089  17.951   1.193  16.862
 4226W        W 5090  16.664   3.324  17.506
 4227W        W 5091  17.901   2.018  14.846
 4228W        W 5092  16.211   1.799  15.819
 4229W        W 5093  18.197   0.229  17.533
 4230W        W 5094  16.497   2.228  17.049
 4231W        W 5095  16.602   1.005  16.734
 4232W        W 5096  17.267   1.324  15.294
 4233W        W 5097  17.658   1.368  14.950
 4234W        W 5098  17.776   2.966  15.648
 4235W        W 5099  17.173   2.398  16.417
 4236W        W 5100  17.096   1.810  15.162
 4237W        W 5101  16.592   2.022  16.146
 4238W        W 5102  17.498   1.833  16.291
 4239W        W 5103  15.088   0.799  16.799
 4240W        W 5104  17.563   1.780  17.625
 4241W        W 5105  18.103   3.343  16.791
 4242W        W 5106  16.048   3.065  16.133
 4243W        W 5107  17.166   3.409  17.310
 4244W        W 5108  16.914   0.829  17.122
 4245W        W 5109  16.271   3.539  17.233
 4246W        W 5110  17.825   0.550  15.607
 4247W        W 5111  17.749   1.665  16.878
 4248W        W 5112  14.716   1.026  17.082
 4249W        W 5113  17.478   0.998  16.118
 4250W        W 5114  17.933   1.020  17.747
 4251W        W 5115  16.800   2.558  16.110
 4252W        W 5116  16.272   3.298  15.721
 4253W        W 5117  15.076   0.375  15.110
 4254W        W 5118  16.485   0.218  16.541
 4255W        W 5119  15.339   3.350  14.100
 4256W        W 5120  15.850   1.860  15.418
 4257W        W 5121  16.384   2.367  17.639
 4258W        W 5122  16.159   0.810  15.816
 4259W        W 5123  17.554   0.261  15.942
 4260W        W 5124  17.276   3.474  16.326
 4261W        W 5125  16.753   3.313  16.610
 4262W        W 5126  16.095   2.262  16.725
 4263W        W 5127  17.836   2.946  16.961
 4264W        W 5128  15.514   0.455  15.571
 4265W        W 5129  16.048   2.815  16.577
 4266W        W 5130  15.595   0.771  14.584
 4267W        W 5131  16.381   1.452  16.926
 4268W        W 5132  17.260   0.271  16.788
 4269W        W 5133  14.652   2.021  16.880
 4270W        W 5134  16.059   1.639  14.903
 4271W        W 5135  15.509   0.263  14.716
 4272W        W 5136  16.336   1.285  15.803
 4273W        W 5137  17.185   0.407  17.287
 4274W        W 5138  15.891   2.255  17.526
 4275W        W 5139  16.709   1.944  17.825
 4276W        W 5140  17.199   2.108  17.791
 4277W        W 5141  16.539   0.294  18.262
 4278W        W 5142  15.724   0.824  16.531
 4279W        W 5143  15.228   0.696  15.942
 4280W        W 5144  14.857   3.364  15.917
 4281W        W 5145  16.498   2.881  17.731
 4282W        W 5146  15.564   2.220  15.157
 4283W        W 5147  16.988   1.902  16.445
 4284W        W 5148  17.264   1.569  16.714
 4285W        W 5149  16.469   1.875  16.648
 4286W        W 5150  17.052   2.386  14.577
 4287W        W 5151  16.745   0.465  16.130
 4288W        W 5152  18.179   0.877  15.413
 4289W        W 5153  14.786   3.317  17.639
 4290W        W 5154  15.175   2.596  17.016
 4291W        W 5155  14.205   3.529  15.098
 4292W        W 5156  16.460   0.541  16.959
 4293W        W 5157  15.833   2.653  15.029
 4294W        W 5158  17.961   3.022  15.147
 4295W        W 5159  16.631   1.653  15.044
 4296W        W 5160  15.647   0.937  15.692
 4297W        W 5161  16.553   0.808  14.756
 4298W        W 5162  16.862   2.500  17.785
 4299W        W 5163  17.365   0.487  15.373
 4300W        W 5164  14.703   0.097  14.881
 4301W        W 5165  16.089   2.550  17.154
 4302W        W 5166  15.800   2.425  16.334
 4303W        W 5167  15.526   2.442  14.627
 4304W        W 5168  14.587   3.018  15.581
 4305W        W 5169  15.336   1.685  17.752
 4306W        W 5170  16.057   0.386  18.082
 4307W        W 5171  16.676   0.451  17.404
 4308W        W 5172  15.900   0.167  15.754
 4309W        W 5173  16.798   0.096  15.412
 4310W        W 5174  14.962   0.319  16.690
 4311W        W 5175  14.858   1.083  15.995
 4312W        W 5176  17.755   0.295  16.585
 4313W        W 5177  15.100   0.766  15.440
 4314W        W 5178  17.613   0.549  17.025
 4315W        W 5179  18.009   1.562  14.632
 4316W        W 5180  15.340   0.519  16.408
 4317W        W 5181  16.548   0.974  17.488
 4318W        W 5182  14.661   0.620  14.892
 4319W        W 5183  15.349   2.149  17.473
 4320W        W 5184  16.754   1.441  16.516
 4321W        W 5185  16.515   3.366  14.850
 4322W        W 5186  14.660   2.033  14.517
 4323W        W 5187  15.543   2.509  17.798
 4324W        W 5188  15.048   1.734  17.297
 4325W        W 5189  16.119   1.879  17.110
 4326W        W 5190  17.667   0.222  17.445
 4327W        W 5191  18.185   1.827  17.519
 4328W        W 5192  18.100   1.645  15.140
 4329W        W 5193  16.753   2.189  15.016
 4330W        W 5194  17.578   3.673  14.312
 4331W        W 5195  16.679   1.529  18.241
 4332W        W 5196  15.125   2.620  18.071
 4333W        W 5197  18.327   0.663  18.106
 4334W        W 5198  17.676   1.376  16.436
 4335W        W 5199  16.061   3.458  18.176
 4336W        W 5200  15.950   0.205  15.003
 4337W        W 5201  17.888   2.529  14.956
 4338W        W 5202  15.454   0.930  17.746
 4339W        W 5203  15.991   2.774  17.621
 4340W        W 5204  17.998   0.690  17.334
 4341W        W 5205  17.412   3.908  15.462
 4342W        W 5206  17.413   2.077  16.743
 4343W        W 5207  15.610   0.552  17.385
 4344W        W 5208  16.192   1.567  18.047
 4345W        W 5209  15.565   2.634  15.489
 4346W        W 5210  17.239   2.187  15.485
 4347W        W 5211  15.164   0.885  17.325
 4348W        W 5212  16.430   2.817  15.840
 4349W        W 5213  18.105   1.457  16.068
 4350W        W 5214  16.418   0.183  17.749
 4351W        W 5215  17.435   2.761  16.669
 4352W        W 5216  17.674   3.212  16.518
 4353W        W 5217  16.737   2.700  14.879
 4354W        W 5218  14.705   2.818  17.838
 4355W        W 5219  15.559   0.947  16.995
 4356W        W 5220  15.423   0.207  16.004
 4357W        W 5221  17.143   1.063  16.701
 4358W        W 5222  15.893   2.103  14.756
 4359W        W 5223  17.915   2.067  16.607
 4360W        W 5224  15.211   3.074  17.819
 4361W        W 5225  17.796   3.529  15.584
 4362W        W 5226  15.751   0.597  16.065
 4363W        W 5227  15.278   2.032  16.159
 4364W        W 5228  15.904   3.688  16.918
 4365W        W 5229  17.790   3.550  17.844
 4366W        W 5230  16.926   1.904  16.950
 4367W        W 5231  14.928   1.300  14.740
 4368W        W 5232  18.220   3.227  15.581
 4369W        W 5233  17.731   0.833  15.136
 4370W        W 5234  15.914   0.173  17.631
 4371W        W 5235  17.716   2.817  16.171
 4372W        W 5236  17.604   1.457  15.876
 4373W        W 5237  15.901   1.136  16.136
 4374W        W 5238  16.209   1.387  17.439
 4375W        W 5239  17.231   2.517  17.426
 4376W        W 5240  15.845   1.011  17.413
 4377W        W 5241  15.691   3.454  16.101
 4378W        W 5242  15.144   3.571  17.962
 4379W        W 5243  15.438   2.975  14.496
 4380W        W 5244  17.814   2.469  15.798
 4381W        W 5245  15.439   1.333  17.385
 4382W        W 5246  18.124   1.150  14.949
 4383W        W 5247  15.987   2.358  15.433
 4384W        W 5248  17.036   1.706  17.507
 4385W        W 5249  16.885   1.382  17.037
 4386W        W 5250  15.473   1.694  16.975
 4387W        W 5251  17.616   3.439  17.014
 4388W        W 5252  17.416   0.340  17.899
 4389W        W 5253  15.051   0.486  17.671
 4390W        W 5254  15.583   1.340  16.598
 4391W        W 5255  15.984   1.219  14.581
 4392W        W 5256  14.631   2.893  17.340
 4393W        W 5257  15.978   1.685  16.658
 4394W        W 5258  16.048   0.751  14.897
 4395W        W 5259  15.430   1.758  15.743
 4396W        W 5260  14.812   3.580  17.213
 4397W        W 5261  17.587   1.752  15.325
 4398W        W 5262  17.897   0.536  17.824
 4399W        W 5263  17.319   2.554  15.914
 4400W        W 5264  14.804   1.757  17.787
 4401W        W 5265  17.793   0.310  15.125
 4402W        W 5266  17.573   2.576  15.354
 4403W        W 5267  16.259   1.538  15.373
 4404W        W 5268  17.414   0.495  14.818
 4405W        W 5269  17.498   1.045  17.099
 4406W        W 5270  14.896   1.573  16.149
 4407W        W 5271  15.449   2.517  15.982
 4408W        W 5272  17.109   1.188  15.794
 4409W        W 5273  16.217   0.672  16.527
 4410W        W 5274  18.128   2.495  17.092
 4411W        W 5275  18.091   0.700  16.799
 4412W        W 5276  14.693   3.287  16.389
 4413W        W 5277  14.765   2.505  15.657
 4414W        W 5278  15.134   0.456  18.196
 4415W        W 5279  16.157   2.957  18.112
 4416W        W 5280  17.999   1.949  16.121
 4417W        W 5281  17.432   2.191  14.987
 4418W        W 5282  16.753   3.575  17.052
 4419W        W 5283  17.531   2.298  18.122
 4420W        W 5284  16.265   0.036  15.396
 4421W        W 5285  16.958   0.945  16.241
 4422W        W 5286  14.830   2.453  16.643
 4423W        W 5287  16.010   0.541  15.399
 4424W        W 5288  15.787   1.968  17.942
 4425W        W 5289  16.687   0.896  15.799
 4426W        W 5290  17.056   2.421  16.951
 4427W        W 5291  15.136   3.084  17.266
 4428W        W 5292  15.644   2.922  18.087
 4429W        W 5293  15.579   0.606  15.091
 4430W        W 5294  17.019   0.878  15.383
 4431W        W 5295  17.024   2.968  17.565
 4432W        W 5296  15.743   1.656  16.178
 4433W        W 5297  15.501   3.399  17.036
 4434W        W 5298  18.115   3.260  14.676
 4435W        W 5299  14.821   2.283  17.801
 4436W        W 5300  16.689   2.332  16.578
 4437W        W 5301  15.247   2.228  15.615
 4438W        W 5302  15.856   3.016  17.032
 4439W        W 5303  16.229   0.379  16.099
 4440W        W 5304  14.528   2.194  15.008
 4441W        W 5305  16.325   1.214  14.970
 4442W        W 5306  14.841   2.015  15.856
 4443W        W 5307  16.173   0.595  17.449
 4444W        W 5308  17.888   0.349  14.632
 4445W        W 5309  17.963   2.026  17.955
 4446W        W 5310  16.554   3.333  18.023
 4447W        W 5311  18.166   2.369  17.584
 4448W        W 5312  17.625   3.079  18.084
 4449W        W 5313  15.450   3.664  16.568
 4450W        W 5314  18.241   2.224  15.742
 4451W        W 5315  16.748   1.548  15.979
 4452W        W 5316  16.540  28.992  15.901
 4453W        W 5317  15.658   3.015  15.810
 4454W        W 5318  16.216   0.978  17.075
 4455W        W 5319  15.836   0.285  16.486
 4456W        W 5320  14.619   3.319  14.667
 4457W        W 5321  16.369   2.292  15.771
 4458W        W 5322  15.616   3.117  17.481
 4459W        W 5323  14.869   1.947  15.341
 4460W        W 5324  14.845   0.671  16.319
 4461W        W 5325  16.306   2.481  16.261
 4462W        W 5326  14.603   0.301  15.345
 4463W        W 5327  17.380   1.522  17.206
 4464W        W 5328  17.306   0.986  14.855
 4465W        W 5329  17.901   2.571  16.630
 4466W        W 5330  16.504   2.943  16.356
 4467W        W 5331  15.649   3.104  15.258
 4468W        W 5332  16.987   0.103  14.684
 4469W        W 5333  15.036   3.420  16.772
 4470W        W 5334  16.888   1.062  18.021
 4471W        W 5335  15.028   0.990  18.234
 4472W        W 5336  14.766   1.319  15.260
 4473W        W 5337  15.659   1.115  14.971
 4474W        W 5338  17.132   1.517  17.967
 4475W        W 5339  15.600   2.015  16.569
 4476W        W 5340  17.058   0.123  15.879
 4477W        W 5341  16.361   3.446  16.286
 4478W        W 5342  17.356   2.932  17.160
 4479W        W 5343  17.222   2.955  16.248
 4480W        W 5344  17.096   2.089  15.986
 4481W        W 5345  16.421   0.420  15.100
 4482W        W 5346  18.057   0.117  15.772
 4483W        W 5347  15.670   1.667  14.545
 4484W        W 5348  17.944   1.018  15.855
 4485W        W 5349  16.406   1.949  14.681
 4486W        W 5350  17.652   2.289  17.606
 4487W        W 5351  17.422   2.701  14.785
 4488W        W 5352  15.941   0.817  17.865
 4489W        W 5353  15.867   1.379  17.054
 4490W        W 5354  17.806   2.756  17.438
 4491W        W 5355  17.030   0.710  17.668
 4492W        W 5356  14.663   1.367  17.467
 4493W        W 5357  16.578   1.744  17.298
 4494W        W 5358  14.953   2.447  16.121
 4495W        W 5359  15.051   1.675  16.638
 4496W        W 5360  17.338   2.046  17.247
 4497W        W 5361  17.190   3.348  17.896
 4498W        W 5362  17.022   1.191  17.496
 4499W        W 5363  17.416   3.270  15.877
 4500W        W 5364  16.322   3.014  17.263
 4501W        W 5365  15.796   3.280  16.582
 4502W        W 5366  17.596   2.466  17.057
 4503W        W 5367  16.503   2.552  18.151
 4504W        W 5368  15.310   2.450  16.488
 4505W        W 5369  17.643   2.316  16.254
 4506W        W 5370  17.221   3.225  16.770
 4507W        W 5371  15.360   3.003  16.760
 4508W        W 5372  16.367   1.093  18.003
 4509W        W 5373  16.551   3.070  15.352
 4510W        W 5374  16.003   2.459  18.027
 4511W        W 5375  16.065   2.883  15.460
 4512W        W 5376  15.389   1.241  14.476
 4513W        W 5377  14.631   3.715  21.627
 4514W        W 5378  14.996   2.621  21.142
 4515W        W 5379  17.714   2.181  18.995
 4516W        W 5380  17.947   3.308  20.979
 4517W        W 5381  15.613   3.320  18.432
 4518W        W 5382  15.862   1.414  19.247
 4519W        W 5383  15.264   1.205  19.629
 4520W        W 5384  16.305   1.986  19.017
 4521W        W 5385  16.083   3.277  21.304
 4522W        W 5386  14.856   0.869  21.207
 4523W        W 5387  15.396   0.042  21.037
 4524W        W 5388  17.173   0.474  19.932
 4525W        W 5389  16.806   1.252  18.657
 4526W        W 5390  17.255   0.983  21.575
 4527W        W 5391  14.819   0.570  20.790
 4528W        W 5392  14.770   3.207  21.720
 4529W        W 5393  16.114   2.626  18.529
 4530W        W 5394  14.784   1.187  20.220
 4531W        W 5395  15.752   1.282  21.438
 4532W        W 5396  18.057   1.110  19.970
 4533W        W 5397  17.812   1.971  20.690
 4534W        W 5398  16.261   1.330  19.891
 4535W        W 5399  16.823   2.779  20.241
 4536W        W 5400  15.144   2.102  20.470
 4537W        W 5401  14.523   1.636  20.195
 4538W        W 5402  15.737   1.701  21.114
 4539W        W 5403  17.937   1.589  21.492
 4540W        W 5404  15.430   2.852  19.896
 4541W        W 5405  16.599   2.627  20.944
 4542W        W 5406  15.934   1.127  20.230
 4543W        W 5407  16.041   2.057  19.797
 4544W        W 5408  16.843   2.910  21.699
 4545W        W 5409  16.178   1.955  21.710
 4546W        W 5410  16.230   1.871  21.196
 4547W        W 5411  14.550   1.216  21.655
 4548W        W 5412  17.314   2.814  21.445
 4549W        W 5413  15.027   0.216  19.373
 4550W        W 5414  15.536   2.532  20.398
 4551W        W 5415  17.796   2.409  19.776
 4552W        W 5416  17.720   0.811  20.258
 4553W        W 5417  17.867   0.885  18.277
 4554W        W 5418  18.299   1.546  20.669
 4555W        W 5419  16.223   3.162  20.399
 4556W        W 5420  17.853   2.678  18.825
 4557W        W 5421  14.957   3.535  18.964
 4558W        W 5422  15.358   3.492  19.307
 4559W        W 5423  15.251   0.335  20.620
 4560W        W 5424  17.830   1.455  20.920
 4561W        W 5425  17.163   1.668  19.526
 4562W        W 5426  17.207   1.526  18.501
 4563W        W 5427  16.394   2.620  20.468
 4564W        W 5428  16.297   0.812  19.729
 4565W        W 5429  16.665   3.056  20.668
 4566W        W 5430  17.622   1.795  19.326
 4567W        W 5431  16.841   0.432  19.165
 4568W        W 5432  15.319   3.151  18.900
 4569W        W 5433  14.649   0.577  19.542
 4570W        W 5434  17.172   1.304  19.915
 4571W        W 5435  14.923   2.901  19.998
 4572W        W 5436  16.058   3.152  18.625
 4573W        W 5437  17.576   1.299  18.181
 4574W        W 5438  14.762   2.972  20.508
 4575W        W 5439  15.474   2.667  20.904
 4576W        W 5440  15.863   1.955  19.322
 4577W        W 5441  16.030   0.440  20.575
 4578W        W 5442  18.142   0.269  20.135
 4579W        W 5443  15.270   2.116  18.020
 4580W        W 5444  15.027   0.911  18.760
 4581W        W 5445  15.041   2.903  19.485
 4582W        W 5446  15.879   2.466  19.428
 4583W        W 5447  17.543   3.273  21.311
 4584W        W 5448  16.511   0.919  18.917
 4585W        W 5449  17.786   3.394  19.940
 4586W        W 5450  17.452   1.430  21.294
 4587W        W 5451  18.164   2.774  19.668
 4588W        W 5452  16.762   2.148  21.039
 4589W        W 5453  14.562   1.599  19.346
 4590W        W 5454  15.629   2.151  20.706
 4591W        W 5455  16.764   1.329  19.157
 4592W        W 5456  16.712   1.809  19.307
 4593W        W 5457  15.286   1.214  20.541
 4594W        W 5458  15.012   1.283  21.448
 4595W        W 5459  15.033   0.307  19.872
 4596W        W 5460  16.772   0.543  20.246
 4597W        W 5461  16.451   0.623  21.481
 4598W        W 5462  16.975   0.492  18.664
 4599W        W 5463  18.014   3.140  21.532
 4600W        W 5464  16.882   0.215  21.470
 4601W        W 5465  17.774   2.656  21.653
 4602W        W 5466  17.419   0.787  21.112
 4603W        W 5467  17.225   0.626  19.438
 4604W        W 5468  17.498   1.809  21.657
 4605W        W 5469  15.223   3.304  19.787
 4606W        W 5470  16.023   0.920  19.065
 4607W        W 5471  15.518   0.384  21.444
 4608W        W 5472  17.537   0.986  19.167
 4609W        W 5473  17.878   1.389  19.105
 4610W        W 5474  15.576   3.347  21.564
 4611W        W 5475  15.592   0.057  18.812
 4612W        W 5476  17.939   0.611  19.822
 4613W        W 5477  18.052   2.866  18.345
 4614W        W 5478  14.842   2.032  20.041
 4615W        W 5479  17.007   0.547  18.154
 4616W        W 5480  18.049   2.944  20.145
 4617W        W 5481  17.940   0.314  20.635
 4618W        W 5482  16.570   1.474  21.311
 4619W        W 5483  16.323   2.514  19.007
 4620W        W 5484  17.061   1.928  21.899
 4621W        W 5485  16.822   0.065  20.026
 4622W        W 5486  15.440   1.016  20.079
 4623W        W 5487  14.888   2.162  20.921
 4624W        W 5488  16.652   3.156  19.654
 4625W        W 5489  17.969   1.192  20.494
 4626W        W 5490  16.583   3.341  21.114
 4627W        W 5491  17.834   2.091  18.483
 4628W        W 5492  16.257   1.681  19.486
 4629W        W 5493  18.104   0.207  21.145
 4630W        W 5494  16.303   2.226  20.804
 4631W        W 5495  16.681   1.039  20.360
 4632W        W 5496  17.276   1.427  19.053
 4633W        W 5497  17.585   1.196  18.689
 4634W        W 5498  17.522   3.099  19.088
 4635W        W 5499  17.268   2.591  19.989
 4636W        W 5500  17.195   1.946  19.068
 4637W        W 5501  16.554   1.900  19.846
 4638W        W 5502  17.703   1.721  19.851
 4639W        W 5503  15.062   0.776  20.391
 4640W        W 5504  17.643   1.890  21.169
 4641W        W 5505  17.987   3.362  20.436
 4642W        W 5506  15.924   2.910  19.739
 4643W        W 5507  17.094   3.404  20.979
 4644W        W 5508  17.013   0.870  20.746
 4645W        W 5509  16.248   3.495  20.778
 4646W        W 5510  17.810   0.561  19.279
 4647W        W 5511  17.462   1.752  20.316
 4648W        W 5512  14.826   1.093  20.740
 4649W        W 5513  17.492   0.889  19.795
 4650W        W 5514  17.830   1.086  21.314
 4651W        W 5515  16.786   2.643  19.738
 4652W        W 5516  16.169   3.264  19.414
 4653W        W 5517  15.213   0.441  18.707
 4654W        W 5518  16.365   0.214  20.240
 4655W        W 5519  15.123   3.518  18.466
 4656W        W 5520  15.871   1.774  18.847
 4657W        W 5521  16.340   2.361  21.312
 4658W        W 5522  16.336   0.519  19.275
 4659W        W 5523  17.570   0.289  19.660
 4660W        W 5524  17.330   3.535  20.139
 4661W        W 5525  16.680   3.300  20.167
 4662W        W 5526  16.022   2.244  20.342
 4663W        W 5527  17.866   2.907  20.657
 4664W        W 5528  15.465   0.419  19.175
 4665W        W 5529  15.959   2.757  20.238
 4666W        W 5530  15.521   0.823  18.244
 4667W        W 5531  16.274   1.387  20.537
 4668W        W 5532  17.156   0.239  20.404
 4669W        W 5533  14.601   2.067  20.502
 4670W        W 5534  16.287   1.739  18.529
 4671W        W 5535  15.640   0.363  18.408
 4672W        W 5536  16.312   1.186  19.392
 4673W        W 5537  17.077   0.386  20.915
 4674W        W 5538  15.871   2.242  21.140
 4675W        W 5539  16.664   1.957  21.520
 4676W        W 5540  17.150   2.071  21.391
 4677W        W 5541  16.488   0.261  21.847
 4678W        W 5542  15.849   0.679  19.968
 4679W        W 5543  15.402   0.699  19.658
 4680W        W 5544  14.847   3.397  19.440
 4681W        W 5545  16.443   2.876  21.358
 4682W        W 5546  15.476   2.052  18.647
 4683W        W 5547  17.030   1.777  20.017
 4684W        W 5548  17.106   1.360  20.413
 4685W        W 5549  16.497   2.031  20.356
 4686W        W 5550  17.051   2.467  18.264
 4687W        W 5551  16.681   0.454  19.714
 4688W        W 5552  18.214   0.977  19.070
 4689W        W 5553  14.801   3.416  21.224
 4690W        W 5554  15.054   2.574  20.623
 4691W        W 5555  14.427   3.461  18.989
 4692W        W 5556  16.540   0.631  20.701
 4693W        W 5557  15.650   2.842  18.630
 4694W        W 5558  17.695   3.150  18.610
 4695W        W 5559  16.758   1.763  18.777
 4696W        W 5560  15.533   0.976  19.234
 4697W        W 5561  16.624   0.803  18.407
 4698W        W 5562  16.840   2.494  21.406
 4699W        W 5563  17.399   0.530  18.962
 4700W        W 5564  14.776   0.196  18.495
 4701W        W 5565  15.946   2.576  20.739
 4702W        W 5566  15.729   2.440  19.922
 4703W        W 5567  15.571   2.446  18.313
 4704W        W 5568  14.657   3.026  19.142
 4705W        W 5569  15.372   1.630  21.477
 4706W        W 5570  16.005   0.312  21.670
 4707W        W 5571  15.872   0.093  19.328
 4708W        W 5572  16.794   0.006  18.900
 4709W        W 5573  14.800   0.317  20.339
 4710W        W 5574  14.758   1.119  19.500
 4711W        W 5575  17.635   0.318  20.189
 4712W        W 5576  15.054   0.740  19.260
 4713W        W 5577  17.474   0.569  20.635
 4714W        W 5578  17.978   1.613  18.319
 4715W        W 5579  15.416   0.499  20.152
 4716W        W 5580  16.513   0.987  21.101
 4717W        W 5581  14.599   0.675  18.569
 4718W        W 5582  15.356   2.055  21.129
 4719W        W 5583  16.636   1.537  20.219
 4720W        W 5584  16.438   3.475  18.519
 4721W        W 5585  14.698   2.013  18.253
 4722W        W 5586  15.477   2.487  21.383
 4723W        W 5587  14.995   1.680  21.103
 4724W        W 5588  16.013   1.812  20.692
 4725W        W 5589  17.579   0.236  21.029
 4726W        W 5590  18.156   1.841  21.086
 4727W        W 5591  18.130   1.732  18.775
 4728W        W 5592  16.771   2.248  19.048
 4729W        W 5593  17.504   3.528  18.282
 4730W        W 5594  16.585   1.537  21.856
 4731W        W 5595  15.050   2.600  21.658
 4732W        W 5596  18.211   0.678  21.734
 4733W        W 5597  17.611   1.296  20.146
 4734W        W 5598  16.093   0.163  18.536
 4735W        W 5599  17.506   2.699  18.431
 4736W        W 5600  15.366   0.886  21.390
 4737W        W 5601  15.923   2.753  21.256
 4738W        W 5602  17.900   0.793  20.864
 4739W        W 5603  17.322   3.513  18.776
 4740W        W 5604  17.330   2.233  20.387
 4741W        W 5605  15.652   0.470  20.934
 4742W        W 5606  15.446   2.632  19.054
 4743W        W 5607  17.431   2.285  19.413
 4744W        W 5608  15.263   0.811  20.884
 4745W        W 5609  16.335   2.760  19.470
 4746W        W 5610  18.091   1.494  19.593
 4747W        W 5611  16.380   0.124  21.340
 4748W        W 5612  17.254   2.723  20.497
 4749W        W 5613  17.557   3.090  20.294
 4750W        W 5614  16.534   2.969  18.467
 4751W        W 5615  14.590   2.756  21.468
 4752W        W 5616  15.640   0.805  20.522
 4753W        W 5617  15.515   0.205  19.684
 4754W        W 5618  17.206   0.874  20.259
 4755W        W 5619  15.957   2.132  18.456
 4756W        W 5620  17.847   2.092  20.190
 4757W        W 5621  15.168   3.051  21.408
 4758W        W 5622  17.673   3.585  19.193
 4759W        W 5623  15.860   0.610  19.447
 4760W        W 5624  15.516   2.031  19.697
 4761W        W 5625  15.857   3.553  20.470
 4762W        W 5626  17.821   3.619  21.596
 4763W        W 5627  16.964   1.850  20.534
 4764W        W 5628  14.934   1.506  18.214
 4765W        W 5629  17.909   3.187  19.455
 4766W        W 5630  17.843   0.755  18.783
 4767W        W 5631  15.883   0.085  21.203
 4768W        W 5632  17.651   2.900  19.821
 4769W        W 5633  17.572   1.340  19.553
 4770W        W 5634  15.827   1.088  19.663
 4771W        W 5635  16.134   1.359  21.054
 4772W        W 5636  17.138   2.560  20.981
 4773W        W 5637  15.751   0.961  21.034
 4774W        W 5638  15.722   3.392  19.669
 4775W        W 5639  15.128   3.554  21.587
 4776W        W 5640  15.203   3.013  18.389
 4777W        W 5641  17.729   2.709  19.342
 4778W        W 5642  15.365   1.305  21.058
 4779W        W 5643  18.105   1.224  18.636
 4780W        W 5644  15.850   2.319  18.924
 4781W        W 5645  16.974   1.691  21.093
 4782W        W 5646  16.740   1.321  20.776
 4783W        W 5647  15.378   1.701  20.715
 4784W        W 5648  17.513   3.522  20.651
 4785W        W 5649  17.359   0.458  21.602
 4786W        W 5650  15.042   0.387  21.227
 4787W        W 5651  15.580   1.510  20.226
 4788W        W 5652  15.903   1.162  18.233
 4789W        W 5653  14.625   2.978  21.009
 4790W        W 5654  16.085   1.725  20.186
 4791W        W 5655  16.090   0.722  18.513
 4792W        W 5656  15.400   1.644  19.372
 4793W        W 5657  14.855   3.516  20.733
 4794W        W 5658  17.610   1.718  18.771
 4795W        W 5659  17.832   0.574  21.371
 4796W        W 5660  17.242   2.780  19.501
 4797W        W 5661  14.722   1.724  21.552
 4798W        W 5662  17.783   0.243  18.750
 4799W        W 5663  17.363   2.572  18.972
 4800W        W 5664  16.305   1.466  18.966
 4801W        W 5665  17.470   0.546  18.437
 4802W        W 5666  17.490   1.094  20.670
 4803W        W 5667  14.869   1.554  19.795
 4804W        W 5668  15.349   2.490  19.545
 4805W        W 5669  17.126   1.128  19.453
 4806W        W 5670  16.286   0.734  20.238
 4807W        W 5671  18.124   2.469  20.585
 4808W        W 5672  18.200   0.723  20.388
 4809W        W 5673  14.633   3.328  19.891
 4810W        W 5674  14.965   2.435  19.193
 4811W        W 5675  15.147   0.349  21.824
 4812W        W 5676  16.108   2.926  21.729
 4813W        W 5677  18.132   2.006  19.753
 4814W        W 5678  17.339   2.160  18.604
 4815W        W 5679  16.738   3.574  20.628
 4816W        W 5680  17.430   2.303  21.771
 4817W        W 5681  16.260  28.985  18.990
 4818W        W 5682  16.840   0.918  19.879
 4819W        W 5683  14.704   2.499  20.235
 4820W        W 5684  15.946   0.427  18.942
 4821W        W 5685  15.683   2.019  21.562
 4822W        W 5686  16.704   0.863  19.392
 4823W        W 5687  16.855   2.366  20.584
 4824W        W 5688  15.120   3.068  20.884
 4825W        W 5689  15.601   2.866  21.710
 4826W        W 5690  15.610   0.775  18.758
 4827W        W 5691  17.044   0.912  18.981
 4828W        W 5692  16.916   2.968  21.167
 4829W        W 5693  15.802   1.596  19.747
 4830W        W 5694  15.386   3.417  20.619
 4831W        W 5695  18.011   3.372  18.274
 4832W        W 5696  14.721   2.243  21.412
 4833W        W 5697  16.884   2.261  20.089
 4834W        W 5698  15.400   2.127  19.174
 4835W        W 5699  15.755   3.043  20.626
 4836W        W 5700  16.159   0.309  19.735
 4837W        W 5701  14.680   2.156  18.770
 4838W        W 5702  16.322   1.218  18.509
 4839W        W 5703  15.023   2.009  19.550
 4840W        W 5704  16.147   0.551  21.075
 4841W        W 5705  17.952   0.380  18.304
 4842W        W 5706  17.890   2.141  21.558
 4843W        W 5707  16.532   3.322  21.626
 4844W        W 5708  18.020   2.344  21.087
 4845W        W 5709  17.582   3.111  21.812
 4846W        W 5710  15.421   3.626  20.154
 4847W        W 5711  18.092   2.364  19.345
 4848W        W 5712  16.721   1.417  19.674
 4849W        W 5713  16.541   0.057  19.424
 4850W        W 5714  15.543   3.002  19.394
 4851W        W 5715  16.130   0.935  20.702
 4852W        W 5716  15.850   0.197  20.143
 4853W        W 5717  14.735   3.194  18.647
 4854W        W 5718  16.411   2.233  19.465
 4855W        W 5719  15.600   3.136  21.101
 4856W        W 5720  14.956   1.829  19.072
 4857W        W 5721  14.963   0.828  19.885
 4858W        W 5722  16.386   2.385  19.983
 4859W        W 5723  14.720   0.386  18.986
 4860W        W 5724  17.363   1.589  20.794
 4861W        W 5725  17.174   0.966  18.455
 4862W        W 5726  17.710   2.582  20.264
 4863W        W 5727  16.388   2.888  19.992
 4864W        W 5728  15.800   3.347  19.051
 4865W        W 5729  16.990   0.066  18.361
 4866W        W 5730  14.988   3.364  20.252
 4867W        W 5731  16.741   1.070  21.593
 4868W        W 5732  14.962   0.840  21.724
 4869W        W 5733  14.817   1.318  19.006
 4870W        W 5734  15.850   1.267  18.734
 4871W        W 5735  17.041   1.506  21.596
 4872W        W 5736  15.583   2.022  20.204
 4873W        W 5737  17.066   0.117  19.547
 4874W        W 5738  16.184   3.349  19.922
 4875W        W 5739  17.409   3.014  20.882
 4876W        W 5740  17.130   3.081  19.960
 4877W        W 5741  16.953   2.162  19.586
 4878W        W 5742  16.470   0.421  18.773
 4879W        W 5743  18.081   0.177  19.492
 4880W        W 5744  15.777   1.650  18.352
 4881W        W 5745  17.942   1.006  19.491
 4882W        W 5746  16.480   2.227  18.582
 4883W        W 5747  17.533   2.383  21.266
 4884W        W 5748  17.202   3.139  18.412
 4885W        W 5749  15.875   0.766  21.493
 4886W        W 5750  15.767   1.342  20.687
 4887W        W 5751  17.794   2.823  21.168
 4888W        W 5752  16.934   0.696  21.295
 4889W        W 5753  14.593   1.330  21.148
 4890W        W 5754  16.523   1.763  20.798
 4891W        W 5755  14.814   2.455  19.700
 4892W        W 5756  15.053   1.623  20.300
 4893W        W 5757  17.270   2.085  20.877
 4894W        W 5758  17.069   3.341  21.500
 4895W        W 5759  17.024   1.182  21.165
 4896W        W 5760  17.408   3.277  19.569
 4897W        W 5761  16.212   2.987  20.894
 4898W        W 5762  15.715   3.199  20.138
 4899W        W 5763  17.620   2.467  20.768
 4900W        W 5764  16.451   2.514  21.784
 4901W        W 5765  15.201   2.403  20.039
 4902W        W 5766  17.386   2.108  19.892
 4903W        W 5767  17.103   3.224  20.482
 4904W        W 5768  15.287   2.972  20.382
 4905W        W 5769  16.240   1.122  21.542
 4906W        W 5770  16.414   3.075  18.994
 4907W        W 5771  15.948   2.439  21.668
 4908W        W 5772  15.939   2.851  19.076
 4909W        W 5773  15.420   1.323  18.122
 4910W        W 5774  14.663   3.598  25.314
 4911W        W 5775  15.035   2.631  24.774
 4912W        W 5776  17.763   2.155  22.585
 4913W        W 5777  17.930   3.353  24.667
 4914W        W 5778  15.549   3.298  22.100
 4915W        W 5779  15.783   1.399  22.921
 4916W        W 5780  15.335   1.226  23.255
 4917W        W 5781  16.174   1.965  22.672
 4918W        W 5782  16.188   3.268  24.704
 4919W        W 5783  14.774   0.852  24.858
 4920W        W 5784  15.409   0.073  24.656
 4921W        W 5785  17.322   0.488  23.643
 4922W        W 5786  16.789   1.098  22.098
 4923W        W 5787  17.475   0.756  25.301
 4924W        W 5788  14.803   0.528  24.428
 4925W        W 5789  14.872   3.104  25.324
 4926W        W 5790  16.065   2.588  22.175
 4927W        W 5791  14.572   1.244  23.977
 4928W        W 5792  15.559   1.246  25.124
 4929W        W 5793  18.016   1.031  23.657
 4930W        W 5794  17.823   2.120  24.463
 4931W        W 5795  16.250   1.363  23.558
 4932W        W 5796  16.901   2.835  23.828
 4933W        W 5797  15.107   2.130  24.000
 4934W        W 5798  14.469   1.603  23.625
 4935W        W 5799  15.549   1.772  24.742
 4936W        W 5800  17.886   1.556  25.108
 4937W        W 5801  15.456   2.953  23.547
 4938W        W 5802  16.688   2.521  24.489
 4939W        W 5803  15.838   1.216  23.842
 4940W        W 5804  16.076   2.006  23.524
 4941W        W 5805  16.806   2.856  25.255
 4942W        W 5806  16.115   2.056  25.206
 4943W        W 5807  16.247   1.861  24.745
 4944W        W 5808  14.573   1.202  25.341
 4945W        W 5809  17.305   2.719  25.144
 4946W        W 5810  14.987   0.225  22.826
 4947W        W 5811  15.618   2.612  24.092
 4948W        W 5812  17.960   2.371  23.485
 4949W        W 5813  17.695   0.745  23.939
 4950W        W 5814  17.712   0.867  21.782
 4951W        W 5815  18.211   1.525  24.355
 4952W        W 5816  16.187   3.384  24.149
 4953W        W 5817  18.044   2.600  22.623
 4954W        W 5818  14.924   3.595  22.582
 4955W        W 5819  15.275   3.395  22.915
 4956W        W 5820  15.294   0.368  24.224
 4957W        W 5821  17.772   1.396  24.613
 4958W        W 5822  17.302   1.670  23.255
 4959W        W 5823  17.144   1.478  22.135
 4960W        W 5824  16.516   2.525  24.000
 4961W        W 5825  16.543   0.805  23.284
 4962W        W 5826  16.919   2.956  24.343
 4963W        W 5827  17.702   1.881  23.013
 4964W        W 5828  16.494   0.485  22.864
 4965W        W 5829  15.178   3.109  22.488
 4966W        W 5830  14.718   0.610  23.049
 4967W        W 5831  17.154   1.328  23.626
 4968W        W 5832  14.938   2.926  23.612
 4969W        W 5833  16.009   3.107  22.228
 4970W        W 5834  17.533   1.338  21.817
 4971W        W 5835  14.791   2.957  24.135
 4972W        W 5836  15.532   2.702  24.602
 4973W        W 5837  15.817   2.013  23.074
 4974W        W 5838  15.719   0.506  23.947
 4975W        W 5839  18.141   0.173  23.678
 4976W        W 5840  15.164   2.084  21.611
 4977W        W 5841  15.005   0.910  22.237
 4978W        W 5842  15.081   2.916  23.088
 4979W        W 5843  15.892   2.523  23.097
 4980W        W 5844  17.548   3.163  25.046
 4981W        W 5845  16.510   0.933  22.548
 4982W        W 5846  17.945   3.500  23.475
 4983W        W 5847  17.416   1.361  24.977
 4984W        W 5848  18.190   2.686  23.129
 4985W        W 5849  16.782   2.026  24.644
 4986W        W 5850  14.501   1.885  22.771
 4987W        W 5851  15.455   2.216  24.399
 4988W        W 5852  16.708   1.287  22.856
 4989W        W 5853  16.639   1.803  22.868
 4990W        W 5854  15.147   1.273  24.152
 4991W        W 5855  15.043   1.282  25.179
 4992W        W 5856  14.945   0.220  23.350
 4993W        W 5857  16.811   0.492  23.764
 4994W        W 5858  16.498   0.641  25.125
 4995W        W 5859  16.904   0.662  22.363
 4996W        W 5860  18.047   3.168  25.172
 4997W        W 5861  16.889   0.182  25.098
 4998W        W 5862  17.917   2.604  25.216
 4999W        W 5863  17.457   0.792  24.782
 5000W        W 5864  17.360   0.655  23.138
 5001W        W 5865  17.455   1.758  25.353
 5002W        W 5866  15.138   3.343  23.395
 5003W        W 5867  16.002   0.988  22.632
 5004W        W 5868  15.533   0.390  25.060
 5005W        W 5869  17.479   0.914  22.711
 5006W        W 5870  15.663   3.507  25.221
 5007W        W 5871  15.782  28.999  22.574
 5008W        W 5872  17.831   0.544  23.464
 5009W        W 5873  18.125   2.849  21.979
 5010W        W 5874  14.754   2.050  23.610
 5011W        W 5875  16.904   0.628  21.829
 5012W        W 5876  18.134   2.973  23.573
 5013W        W 5877  18.019   0.308  24.325
 5014W        W 5878  16.600   1.145  25.121
 5015W        W 5879  16.304   2.477  22.668
 5016W        W 5880  16.955   1.918  25.517
 5017W        W 5881  16.679   0.021  23.607
 5018W        W 5882  14.960   1.163  23.660
 5019W        W 5883  14.926   2.176  24.513
 5020W        W 5884  16.684   3.459  23.535
 5021W        W 5885  17.949   1.108  24.218
 5022W        W 5886  16.680   3.367  24.569
 5023W        W 5887  17.761   1.966  22.077
 5024W        W 5888  16.188   1.671  23.117
 5025W        W 5889  18.248   0.301  24.801
 5026W        W 5890  16.378   2.149  24.339
 5027W        W 5891  16.642   0.987  23.781
 5028W        W 5892  17.625   1.398  22.845
 5029W        W 5893  17.633   1.253  22.336
 5030W        W 5894  17.789   2.964  22.902
 5031W        W 5895  17.349   2.569  23.713
 5032W        W 5896  17.116   1.594  22.785
 5033W        W 5897  16.584   1.791  23.406
 5034W        W 5898  17.533   1.713  23.719
 5035W        W 5899  15.036   0.793  24.034
 5036W        W 5900  17.583   1.841  24.819
 5037W        W 5901  18.132   3.360  23.993
 5038W        W 5902  15.963   2.935  23.442
 5039W        W 5903  17.266   3.509  24.782
 5040W        W 5904  17.048   0.718  24.445
 5041W        W 5905  16.152   3.871  24.348
 5042W        W 5906  17.749   0.470  22.825
 5043W        W 5907  17.600   1.712  24.243
 5044W        W 5908  14.744   1.047  24.402
 5045W        W 5909  17.502   0.965  23.522
 5046W        W 5910  17.817   1.054  25.051
 5047W        W 5911  16.730   2.614  23.357
 5048W        W 5912  16.052   3.236  23.001
 5049W        W 5913  15.155   0.429  22.345
 5050W        W 5914  16.272   0.384  23.906
 5051W        W 5915  15.089   3.512  22.094
 5052W        W 5916  15.677   1.824  22.601
 5053W        W 5917  16.335   2.363  24.841
 5054W        W 5918  16.073   0.696  23.081
 5055W        W 5919  17.519   0.191  23.245
 5056W        W 5920  17.525   3.640  23.758
 5057W        W 5921  16.684   3.301  24.029
 5058W        W 5922  16.030   2.260  23.973
 5059W        W 5923  17.863   3.007  24.258
 5060W        W 5924  15.484   0.367  22.777
 5061W        W 5925  16.071   2.783  23.934
 5062W        W 5926  15.504   0.707  21.876
 5063W        W 5927  16.300   1.221  24.084
 5064W        W 5928  17.189   0.198  24.090
 5065W        W 5929  14.619   2.041  24.123
 5066W        W 5930  16.191   1.727  22.195
 5067W        W 5931  15.583   0.244  22.126
 5068W        W 5932  16.258   1.169  23.068
 5069W        W 5933  17.211   0.274  24.686
 5070W        W 5934  15.816   2.257  24.804
 5071W        W 5935  16.625   1.959  25.115
 5072W        W 5936  17.160   2.051  25.026
 5073W        W 5937  16.576   0.322  25.522
 5074W        W 5938  15.425   0.952  23.680
 5075W        W 5939  15.204   0.698  23.248
 5076W        W 5940  14.739   3.271  22.942
 5077W        W 5941  16.511   2.860  24.829
 5078W        W 5942  15.346   2.301  22.376
 5079W        W 5943  17.037   1.829  23.672
 5080W        W 5944  17.137   1.541  24.097
 5081W        W 5945  16.481   2.012  23.852
 5082W        W 5946  16.946   2.427  21.914
 5083W        W 5947  16.901   0.384  23.254
 5084W        W 5948  18.016   0.903  22.655
 5085W        W 5949  14.866   3.384  24.860
 5086W        W 5950  15.120   2.592  24.257
 5087W        W 5951  14.365   3.305  22.565
 5088W        W 5952  16.591   0.664  24.201
 5089W        W 5953  15.585   2.794  22.245
 5090W        W 5954  18.064   3.263  22.570
 5091W        W 5955  16.677   1.510  22.386
 5092W        W 5956  15.598   0.857  22.943
 5093W        W 5957  16.412   0.794  21.946
 5094W        W 5958  16.833   2.436  24.975
 5095W        W 5959  17.255   0.444  22.677
 5096W        W 5960  14.773   0.150  22.145
 5097W        W 5961  16.046   2.535  24.416
 5098W        W 5962  15.742   2.465  23.600
 5099W        W 5963  15.481   2.403  21.892
 5100W        W 5964  14.611   2.832  22.719
 5101W        W 5965  15.303   1.712  25.223
 5102W        W 5966  16.009   0.444  25.290
 5103W        W 5967  16.684   0.342  24.634
 5104W        W 5968  15.928   0.197  23.072
 5105W        W 5969  16.802   0.172  22.565
 5106W        W 5970  14.853   0.310  23.970
 5107W        W 5971  14.841   1.094  23.160
 5108W        W 5972  17.679   0.227  23.915
 5109W        W 5973  15.115   0.757  22.742
 5110W        W 5974  17.528   0.510  24.350
 5111W        W 5975  17.978   1.501  22.011
 5112W        W 5976  15.260   0.468  23.697
 5113W        W 5977  16.586   0.875  24.667
 5114W        W 5978  14.584   0.626  22.029
 5115W        W 5979  15.296   2.199  24.897
 5116W        W 5980  16.678   1.501  23.837
 5117W        W 5981  16.469   3.462  22.163
 5118W        W 5982  14.555   1.945  22.026
 5119W        W 5983  15.547   2.604  25.103
 5120W        W 5984  15.015   1.761  24.803
 5121W        W 5985  15.893   1.948  24.368
 5122W        W 5986  17.737   0.293  24.772
 5123W        W 5987  18.168   1.824  24.757
 5124W        W 5988  17.972   1.683  22.519
 5125W        W 5989  16.957   1.929  22.421
 5126W        W 5990  17.411   3.587  21.910
 5127W        W 5991  16.632   1.454  25.529
 5128W        W 5992  15.078   2.618  25.301
 5129W        W 5993  18.398   0.429  25.310
 5130W        W 5994  17.558   1.256  23.935
 5131W        W 5995  16.152   3.406  25.333
 5132W        W 5996  16.083   0.097  22.147
 5133W        W 5997  17.797   2.473  22.155
 5134W        W 5998  15.249   0.822  25.058
 5135W        W 5999  15.995   2.777  24.878
 5136W        W 6000  17.963   0.754  24.607
 5137W        W 6001  17.627   3.493  22.383
 5138W        W 6002  17.371   2.121  23.976
 5139W        W 6003  15.695   0.511  24.516
 5140W        W 6004  16.272   1.561  25.188
 5141W        W 6005  15.427   2.682  22.721
 5142W        W 6006  17.292   2.118  22.811
 5143W        W 6007  15.226   0.784  24.547
 5144W        W 6008  16.321   2.798  23.088
 5145W        W 6009  18.287   1.439  23.502
 5146W        W 6010  16.369   0.162  25.041
 5147W        W 6011  17.357   2.937  24.076
 5148W        W 6012  17.699   3.158  23.782
 5149W        W 6013  16.480   2.944  22.081
 5150W        W 6014  14.623   2.714  25.088
 5151W        W 6015  15.546   0.929  24.176
 5152W        W 6016  15.445   0.200  23.270
 5153W        W 6017  17.160   0.898  23.954
 5154W        W 6018  15.842   2.104  22.111
 5155W        W 6019  17.882   2.082  23.927
 5156W        W 6020  15.277   3.042  25.030
 5157W        W 6021  17.833   3.540  22.958
 5158W        W 6022  15.709   0.602  23.426
 5159W        W 6023  15.272   2.064  23.484
 5160W        W 6024  15.702   3.517  24.324
 5161W        W 6025  17.793   3.617  25.099
 5162W        W 6026  16.895   2.003  24.152
 5163W        W 6027  14.915   1.428  21.951
 5164W        W 6028  18.205   3.218  23.100
 5165W        W 6029  17.703   0.702  22.305
 5166W        W 6030  15.909   0.100  24.794
 5167W        W 6031  17.682   2.804  23.388
 5168W        W 6032  17.746   1.395  23.374
 5169W        W 6033  15.831   1.094  23.343
 5170W        W 6034  17.183   2.616  24.652
 5171W        W 6035  15.691   3.390  23.383
 5172W        W 6036  15.165   3.521  25.247
 5173W        W 6037  15.165   2.996  21.967
 5174W        W 6038  17.713   2.424  23.031
 5175W        W 6039  15.155   1.285  24.671
 5176W        W 6040  18.063   1.010  22.123
 5177W        W 6041  15.807   2.330  22.605
 5178W        W 6042  16.643   1.528  24.773
 5179W        W 6043  16.808   1.170  24.268
 5180W        W 6044  15.216   1.757  24.328
 5181W        W 6045  17.645   3.466  24.238
 5182W        W 6046  17.417   0.262  25.170
 5183W        W 6047  15.025   0.379  24.880
 5184W        W 6048  15.373   1.489  23.732
 5185W        W 6049  15.873   1.082  21.914
 5186W        W 6050  14.645   2.960  24.642
 5187W        W 6051  16.074   1.688  23.942
 5188W        W 6052  15.966   0.605  22.108
 5189W        W 6053  15.376   1.712  23.098
 5190W        W 6054  14.699   3.414  24.375
 5191W        W 6055  17.466   1.746  22.449
 5192W        W 6056  17.944   0.577  25.133
 5193W        W 6057  17.240   2.537  23.201
 5194W        W 6058  14.742   1.750  25.234
 5195W        W 6059  17.763   0.182  22.355
 5196W        W 6060  17.507   2.603  22.599
 5197W        W 6061  16.241   1.454  22.647
 5198W        W 6062  17.311   0.446  22.139
 5199W        W 6063  17.358   1.155  24.398
 5200W        W 6064  14.946   1.594  23.383
 5201W        W 6065  15.390   2.533  23.230
 5202W        W 6066  17.222   1.176  23.100
 5203W        W 6067  16.150   0.822  23.651
 5204W        W 6068  18.090   2.557  24.332
 5205W        W 6069  18.217   0.706  24.046
 5206W        W 6070  14.619   3.350  23.446
 5207W        W 6071  14.973   2.471  22.819
 5208W        W 6072  15.132   0.412  25.411
 5209W        W 6073  16.304   2.916  25.348
 5210W        W 6074  17.970   1.858  23.453
 5211W        W 6075  17.345   2.224  22.270
 5212W        W 6076  16.711   3.822  24.320
 5213W        W 6077  17.510   2.288  25.353
 5214W        W 6078  16.294   0.061  22.635
 5215W        W 6079  17.012   0.859  23.449
 5216W        W 6080  14.733   2.506  23.852
 5217W        W 6081  15.980   0.474  22.615
 5218W        W 6082  15.613   2.120  25.287
 5219W        W 6083  16.915   0.796  22.896
 5220W        W 6084  17.081   2.493  24.166
 5221W        W 6085  15.152   3.082  24.525
 5222W        W 6086  15.793   3.014  25.296
 5223W        W 6087  15.563   0.748  22.412
 5224W        W 6088  17.069   1.145  22.528
 5225W        W 6089  17.008   3.058  24.835
 5226W        W 6090  15.776   1.598  23.436
 5227W        W 6091  15.188   3.533  24.267
 5228W        W 6092  17.997   3.353  22.034
 5229W        W 6093  14.807   2.218  25.024
 5230W        W 6094  16.901   2.308  23.721
 5231W        W 6095  15.375   2.168  22.873
 5232W        W 6096  15.867   3.015  24.350
 5233W        W 6097  16.337   0.353  23.384
 5234W        W 6098  14.582   2.331  22.467
 5235W        W 6099  16.286   1.227  22.179
 5236W        W 6100  14.902   2.018  23.094
 5237W        W 6101  16.188   0.536  24.708
 5238W        W 6102  17.816   0.390  21.891
 5239W        W 6103  17.934   2.070  25.149
 5240W        W 6104  16.597   3.297  25.081
 5241W        W 6105  18.184   2.359  24.788
 5242W        W 6106  17.682   2.967  25.510
 5243W        W 6107  15.396   3.544  23.796
 5244W        W 6108  18.141   2.159  23.043
 5245W        W 6109  16.723   1.292  23.356
 5246W        W 6110  16.593  28.996  23.059
 5247W        W 6111  15.604   2.999  23.063
 5248W        W 6112  16.072   0.764  24.219
 5249W        W 6113  15.889   0.158  23.622
 5250W        W 6114  14.725   3.167  22.238
 5251W        W 6115  16.348   2.194  23.119
 5252W        W 6116  15.683   3.206  24.786
 5253W        W 6117  14.972   1.985  22.578
 5254W        W 6118  14.784   0.678  23.573
 5255W        W 6119  16.258   2.495  23.539
 5256W        W 6120  14.674   0.523  22.529
 5257W        W 6121  17.143   1.633  24.614
 5258W        W 6122  17.284   0.953  22.091
 5259W        W 6123  17.829   2.656  23.888
 5260W        W 6124  16.446   2.985  23.647
 5261W        W 6125  15.662   3.239  22.602
 5262W        W 6126  16.959   0.115  21.986
 5263W        W 6127  14.897   3.372  23.875
 5264W        W 6128  17.078   1.078  25.293
 5265W        W 6129  15.078   0.911  25.543
 5266W        W 6130  14.916   1.533  22.855
 5267W        W 6131  15.812   1.381  22.351
 5268W        W 6132  16.983   1.566  25.147
 5269W        W 6133  15.598   1.947  23.915
 5270W        W 6134  17.122   0.008  22.955
 5271W        W 6135  16.166   3.424  23.582
 5272W        W 6136  17.443   3.071  24.553
 5273W        W 6137  17.158   3.278  23.745
 5274W        W 6138  16.965   2.093  23.227
 5275W        W 6139  16.427   0.453  22.331
 5276W        W 6140  18.005   0.079  23.154
 5277W        W 6141  15.755   1.605  21.874
 5278W        W 6142  17.802   0.939  23.117
 5279W        W 6143  16.578   2.045  22.041
 5280W        W 6144  17.603   2.376  24.851
 5281W        W 6145  17.741   2.969  22.308
 5282W        W 6146  15.800   0.810  24.947
 5283W        W 6147  15.639   1.486  24.230
 5284W        W 6148  17.871   2.825  24.750
 5285W        W 6149  16.991   0.670  24.970
 5286W        W 6150  14.669   1.362  24.841
 5287W        W 6151  16.519   1.662  24.293
 5288W        W 6152  14.893   2.472  23.346
 5289W        W 6153  14.907   1.653  23.900
 5290W        W 6154  17.287   2.125  24.494
 5291W        W 6155  17.094   3.331  25.252
 5292W        W 6156  17.003   1.149  24.773
 5293W        W 6157  17.502   3.306  23.317
 5294W        W 6158  16.397   2.938  24.321
 5295W        W 6159  15.781   3.208  23.872
 5296W        W 6160  17.577   2.554  24.337
 5297W        W 6161  16.483   2.425  25.352
 5298W        W 6162  15.243   2.535  23.739
 5299W        W 6163  17.484   2.138  23.434
 5300W        W 6164  17.129   3.427  24.276
 5301W        W 6165  15.298   3.050  24.026
 5302W        W 6166  16.132   0.970  25.330
 5303W        W 6167  16.367   3.075  22.598
 5304W        W 6168  15.967   2.516  25.388
 5305W        W 6169  15.928   2.823  22.674
 5306W        W 6170  15.376   1.208  21.810
 5307W        W 6171  14.713   3.615  28.857
 5308W        W 6172  15.102   2.524  28.440
 5309W        W 6173  17.686   1.999  26.168
 5310W        W 6174  18.030   3.349  28.128
 5311W        W 6175  15.757   3.340  25.711
 5312W        W 6176  15.852   1.461  26.544
 5313W        W 6177  15.437   1.255  26.927
 5314W        W 6178  16.298   1.972  26.074
 5315W        W 6179  16.153   3.299  28.419
 5316W        W 6180  14.780   0.873  28.458
 5317W        W 6181  15.283   0.062  28.297
 5318W        W 6182  17.339   0.579  27.338
 5319W        W 6183  16.797   1.188  25.948
 5320W        W 6184  17.313   0.888  28.814
 5321W        W 6185  14.730   0.540  28.048
 5322W        W 6186  14.911   3.154   0.035
 5323W        W 6187  16.240   2.451  25.845
 5324W        W 6188  14.773   1.280  27.551
 5325W        W 6189  15.581   1.268  28.728
 5326W        W 6190  18.084   1.166  27.234
 5327W        W 6191  17.946   2.107  28.040
 5328W        W 6192  16.271   1.531  27.120
 5329W        W 6193  16.860   2.905  27.665
 5330W        W 6194  15.199   2.206  27.717
 5331W        W 6195  14.543   1.678  27.329
 5332W        W 6196  15.545   1.608  28.338
 5333W        W 6197  17.916   1.525  28.747
 5334W        W 6198  15.446   2.867  27.125
 5335W        W 6199  16.758   2.650  28.155
 5336W        W 6200  16.048   1.175  27.433
 5337W        W 6201  16.120   2.042  27.050
 5338W        W 6202  17.124   2.896   0.067
 5339W        W 6203  16.196   2.095  28.882
 5340W        W 6204  16.321   1.819  28.465
 5341W        W 6205  14.586   1.227   0.039
 5342W        W 6206  17.456   2.722  28.706
 5343W        W 6207  15.029   0.242  26.581
 5344W        W 6208  15.485   2.635  27.625
 5345W        W 6209  18.201   2.269  27.120
 5346W        W 6210  17.638   0.999  27.442
 5347W        W 6211  17.892   0.867  25.570
 5348W        W 6212  18.234   1.677  27.902
 5349W        W 6213  16.077   3.350  27.667
 5350W        W 6214  18.113   2.612  26.298
 5351W        W 6215  15.006   3.656  26.131
 5352W        W 6216  15.445   3.372  26.584
 5353W        W 6217  15.291   0.346  27.860
 5354W        W 6218  17.971   1.385  28.247
 5355W        W 6219  17.081   1.727  26.716
 5356W        W 6220  17.126   1.457  25.661
 5357W        W 6221  16.488   2.537  27.713
 5358W        W 6222  16.443   1.033  27.118
 5359W        W 6223  16.870   3.155  28.111
 5360W        W 6224  17.552   1.590  26.471
 5361W        W 6225  16.682   0.516  26.448
 5362W        W 6226  15.236   3.152  26.143
 5363W        W 6227  14.750   0.634  26.714
 5364W        W 6228  17.262   1.305  27.193
 5365W        W 6229  14.929   2.822  27.086
 5366W        W 6230  16.227   3.181  25.821
 5367W        W 6231  17.547   1.248  25.461
 5368W        W 6232  14.704   3.014  27.801
 5369W        W 6233  15.547   2.646  28.140
 5370W        W 6234  15.738   1.987  26.621
 5371W        W 6235  15.796   0.444  27.763
 5372W        W 6236  18.106   0.144  27.192
 5373W        W 6237  15.101   2.122  25.444
 5374W        W 6238  15.034   1.143  25.996
 5375W        W 6239  15.209   2.899  26.649
 5376W        W 6240  16.016   2.438  26.723
 5377W        W 6241  17.516   3.211  28.600
 5378W        W 6242  16.477   0.976  26.278
 5379W        W 6243  17.854   3.628  27.112
 5380W        W 6244  17.537   1.265  28.504
 5381W        W 6245  18.198   2.736  26.857
 5382W        W 6246  16.837   2.128  28.214
 5383W        W 6247  14.582   1.804  26.264
 5384W        W 6248  15.733   2.235  27.896
 5385W        W 6249  16.798   1.412  26.417
 5386W        W 6250  16.704   1.945  26.418
 5387W        W 6251  15.221   1.293  27.845
 5388W        W 6252  15.047   1.102  28.882
 5389W        W 6253  14.942   0.250  27.081
 5390W        W 6254  16.845   0.560  27.571
 5391W        W 6255  16.385   0.681  28.651
 5392W        W 6256  16.967   0.453  25.972
 5393W        W 6257  18.027   3.033  28.707
 5394W        W 6258  16.830   0.199  28.623
 5395W        W 6259  17.900   2.551  28.916
 5396W        W 6260  17.395   0.788  28.318
 5397W        W 6261  17.101   0.542  26.771
 5398W        W 6262  17.504   1.782   0.058
 5399W        W 6263  15.146   3.285  27.008
 5400W        W 6264  15.978   1.104  26.181
 5401W        W 6265  15.456   0.340  28.775
 5402W        W 6266  17.562   0.932  26.425
 5403W        W 6267  17.938   1.277  26.375
 5404W        W 6268  15.763   3.429  28.764
 5405W        W 6269  15.527   0.133  26.093
 5406W        W 6270  17.938   0.645  27.168
 5407W        W 6271  18.187   2.856  25.604
 5408W        W 6272  14.876   2.060  27.204
 5409W        W 6273  17.061   0.517  25.464
 5410W        W 6274  18.172   2.983  27.343
 5411W        W 6275  17.981   0.348  28.009
 5412W        W 6276  16.510   1.221  28.551
 5413W        W 6277  16.395   2.374  26.363
 5414W        W 6278  16.992   1.873   0.144
 5415W        W 6279  16.961   0.229  27.186
 5416W        W 6280  15.192   1.072  27.330
 5417W        W 6281  14.871   2.165  28.116
 5418W        W 6282  16.695   3.305  27.202
 5419W        W 6283  17.989   1.244  27.753
 5420W        W 6284  16.677   3.408  28.520
 5421W        W 6285  17.842   1.976  25.654
 5422W        W 6286  16.227   1.822  26.581
 5423W        W 6287  18.189   0.505  28.499
 5424W        W 6288  16.248   2.185  28.009
 5425W        W 6289  16.497   0.932  27.642
 5426W        W 6290  17.246   1.318  26.160
 5427W        W 6291  17.671   1.128  25.951
 5428W        W 6292  17.779   2.882  26.587
 5429W        W 6293  17.245   2.573  27.315
 5430W        W 6294  17.178   1.831  26.207
 5431W        W 6295  16.612   1.873  26.935
 5432W        W 6296  17.431   1.783  27.083
 5433W        W 6297  14.953   0.825  27.698
 5434W        W 6298  17.669   1.799  28.391
 5435W        W 6299  18.114   3.428  27.613
 5436W        W 6300  15.956   2.948  27.185
 5437W        W 6301  17.170   3.506  28.342
 5438W        W 6302  16.908   0.818  28.029
 5439W        W 6303  16.285   3.634  28.050
 5440W        W 6304  17.877   0.510  26.519
 5441W        W 6305  17.701   1.666  27.895
 5442W        W 6306  14.763   1.181  28.058
 5443W        W 6307  17.490   0.877  26.947
 5444W        W 6308  18.026   1.026  28.627
 5445W        W 6309  16.765   2.759  27.177
 5446W        W 6310  15.983   3.357  26.680
 5447W        W 6311  15.154   0.495  25.945
 5448W        W 6312  16.490   0.216  27.382
 5449W        W 6313  15.275   3.489  25.738
 5450W        W 6314  15.835   1.753  26.119
 5451W        W 6315  16.435   2.350  28.444
 5452W        W 6316  16.254   0.763  26.688
 5453W        W 6317  17.582   0.365  26.912
 5454W        W 6318  17.360   3.600  27.300
 5455W        W 6319  16.606   3.371  27.722
 5456W        W 6320  16.081   2.207  27.532
 5457W        W 6321  17.897   2.956  27.804
 5458W        W 6322  15.430   0.521  26.422
 5459W        W 6323  15.992   2.715  27.673
 5460W        W 6324  15.591   0.811  25.440
 5461W        W 6325  16.265   1.337  27.874
 5462W        W 6326  17.246   0.265  27.733
 5463W        W 6327  14.653   2.103  27.662
 5464W        W 6328  16.161   1.589  25.729
 5465W        W 6329  15.612   0.326  25.623
 5466W        W 6330  16.355   1.300  26.669
 5467W        W 6331  17.104   0.379  28.205
 5468W        W 6332  15.900   2.143  28.416
 5469W        W 6333  16.721   2.063  28.752
 5470W        W 6334  17.201   1.953  28.544
 5471W        W 6335  16.494   0.286   0.004
 5472W        W 6336  15.667   0.864  27.261
 5473W        W 6337  15.263   0.745  26.902
 5474W        W 6338  14.886   3.297  26.511
 5475W        W 6339  16.458   2.899  28.491
 5476W        W 6340  15.450   1.839  25.734
 5477W        W 6341  16.965   1.758  27.279
 5478W        W 6342  17.261   1.536  27.653
 5479W        W 6343  16.471   1.871  27.469
 5480W        W 6344  17.009   2.426  25.474
 5481W        W 6345  16.604   0.548  26.997
 5482W        W 6346  18.276   0.871  26.360
 5483W        W 6347  14.863   3.415  28.408
 5484W        W 6348  15.063   2.653  27.944
 5485W        W 6349  14.507   3.465  26.170
 5486W        W 6350  16.324   0.468  27.791
 5487W        W 6351  15.840   2.826  25.809
 5488W        W 6352  18.002   3.095  26.120
 5489W        W 6353  16.742   1.705  25.957
 5490W        W 6354  15.611   1.000  26.515
 5491W        W 6355  16.691   0.849  25.566
 5492W        W 6356  17.027   2.451  28.582
 5493W        W 6357  17.379   0.460  26.314
 5494W        W 6358  14.761   0.200  25.751
 5495W        W 6359  16.063   2.628  28.199
 5496W        W 6360  15.773   2.462  27.197
 5497W        W 6361  15.487   2.485  25.625
 5498W        W 6362  14.686   2.955  26.153
 5499W        W 6363  15.160   1.597  28.715
 5500W        W 6364  15.978   0.400  28.861
 5501W        W 6365  16.592   0.430  28.226
 5502W        W 6366  15.789   0.171  26.546
 5503W        W 6367  16.950   0.080  26.388
 5504W        W 6368  14.863   0.319  27.589
 5505W        W 6369  14.889   1.116  26.888
 5506W        W 6370  17.769   0.327  27.541
 5507W        W 6371  15.109   0.921  26.447
 5508W        W 6372  17.541   0.676  27.838
 5509W        W 6373  18.008   1.432  25.576
 5510W        W 6374  15.281   0.546  27.375
 5511W        W 6375  16.415   0.911  28.162
 5512W        W 6376  14.688   0.708  25.812
 5513W        W 6377  15.372   2.121  28.248
 5514W        W 6378  16.658   1.385  27.469
 5515W        W 6379  16.682   3.240  25.582
 5516W        W 6380  14.637   2.382  25.483
 5517W        W 6381  15.573   2.493  28.619
 5518W        W 6382  15.032   1.676  28.171
 5519W        W 6383  15.969   1.755  28.060
 5520W        W 6384  17.594   0.214  28.313
 5521W        W 6385  18.194   1.841  28.408
 5522W        W 6386  18.068   1.642  26.040
 5523W        W 6387  16.748   2.231  25.921
 5524W        W 6388  17.522   3.476  25.509
 5525W        W 6389  16.606   1.580  28.914
 5526W        W 6390  15.212   2.417  28.971
 5527W        W 6391  18.343   0.753  28.952
 5528W        W 6392  17.724   1.510  27.398
 5529W        W 6393  16.303   3.478  28.884
 5530W        W 6394  16.027   0.207  25.951
 5531W        W 6395  17.802   2.485  25.778
 5532W        W 6396  15.353   0.804  28.618
 5533W        W 6397  15.779   2.956  28.542
 5534W        W 6398  17.930   0.864  28.146
 5535W        W 6399  17.707   3.550  26.000
 5536W        W 6400  17.323   2.081  27.499
 5537W        W 6401  15.579   0.484  28.274
 5538W        W 6402  15.897   1.685  28.728
 5539W        W 6403  15.534   2.706  26.261
 5540W        W 6404  17.474   2.065  26.642
 5541W        W 6405  15.173   0.768  28.144
 5542W        W 6406  16.273   2.891  26.781
 5543W        W 6407  18.192   1.435  26.802
 5544W        W 6408  16.314   0.154  28.548
 5545W        W 6409  17.378   2.891  27.706
 5546W        W 6410  17.684   3.208  27.413
 5547W        W 6411  16.653   2.741  25.734
 5548W        W 6412  14.797   2.711  28.809
 5549W        W 6413  15.484   0.860  27.741
 5550W        W 6414  15.419   0.252  26.902
 5551W        W 6415  17.147   1.020  27.626
 5552W        W 6416  15.927   2.067  25.700
 5553W        W 6417  17.835   1.998  27.520
 5554W        W 6418  15.299   2.925  28.776
 5555W        W 6419  17.809   3.692  26.545
 5556W        W 6420  15.775   0.622  26.818
 5557W        W 6421  15.332   1.970  26.950
 5558W        W 6422  15.615   3.518  27.881
 5559W        W 6423  17.911   3.521  28.656
 5560W        W 6424  16.926   1.913  27.764
 5561W        W 6425  14.885   1.492  25.646
 5562W        W 6426  18.080   3.273  26.752
 5563W        W 6427  17.908   0.688  26.047
 5564W        W 6428  15.798   0.054  28.508
 5565W        W 6429  17.731   2.786  27.107
 5566W        W 6430  17.691   1.357  26.903
 5567W        W 6431  15.948   1.124  26.924
 5568W        W 6432  16.023   1.317  28.359
 5569W        W 6433  17.280   2.740  28.202
 5570W        W 6434  15.622   1.018  28.218
 5571W        W 6435  15.652   3.344  27.075
 5572W        W 6436  15.237   3.475  28.778
 5573W        W 6437  15.348   3.007  25.561
 5574W        W 6438  17.877   2.363  26.703
 5575W        W 6439  15.180   1.224  28.372
 5576W        W 6440  18.189   1.129  25.933
 5577W        W 6441  15.882   2.279  26.207
 5578W        W 6442  16.800   1.641  28.421
 5579W        W 6443  16.822   1.332  27.958
 5580W        W 6444  15.473   1.780  27.858
 5581W        W 6445  17.649   3.612  27.738
 5582W        W 6446  17.290   0.361  28.704
 5583W        W 6447  15.001   0.419  28.528
 5584W        W 6448  15.470   1.499  27.417
 5585W        W 6449  15.828   1.199  25.697
 5586W        W 6450  14.777   2.896  28.313
 5587W        W 6451  15.974   1.690  27.532
 5588W        W 6452  15.980   0.699  25.768
 5589W        W 6453  15.340   1.603  26.561
 5590W        W 6454  14.988   3.446  27.902
 5591W        W 6455  17.561   1.612  25.865
 5592W        W 6456  17.730   0.605  28.683
 5593W        W 6457  17.390   2.568  26.784
 5594W        W 6458  14.690   1.745  28.924
 5595W        W 6459  17.817   0.188  26.041
 5596W        W 6460  17.595   2.486  26.285
 5597W        W 6461  16.335   1.475  26.192
 5598W        W 6462  17.489   0.498  25.778
 5599W        W 6463  17.519   1.179  27.974
 5600W        W 6464  15.025   1.557  27.117
 5601W        W 6465  15.492   2.455  26.752
 5602W        W 6466  17.210   1.221  26.679
 5603W        W 6467  16.163   0.653  27.321
 5604W        W 6468  18.202   2.560  27.928
 5605W        W 6469  18.098   0.758  27.648
 5606W        W 6470  14.635   3.250  26.957
 5607W        W 6471  15.015   2.563  26.307
 5608W        W 6472  15.198   0.096   0.171
 5609W        W 6473  16.190   2.986  28.937
 5610W        W 6474  17.920   1.848  27.006
 5611W        W 6475  17.342   2.103  25.797
 5612W        W 6476  16.811   3.734  28.042
 5613W        W 6477  17.431   2.245  28.888
 5614W        W 6478  16.290   0.200  26.392
 5615W        W 6479  16.957   0.891  27.164
 5616W        W 6480  14.820   2.561  27.505
 5617W        W 6481  15.940   0.602  26.292
 5618W        W 6482  15.484   1.999  28.735
 5619W        W 6483  16.755   0.955  26.702
 5620W        W 6484  17.078   2.438  27.803
 5621W        W 6485  15.727   2.833   0.067
 5622W        W 6486  15.529   0.852  25.993
 5623W        W 6487  17.043   0.865  26.289
 5624W        W 6488  16.991   2.969  28.569
 5625W        W 6489  15.769   1.653  27.025
 5626W        W 6490  15.334   3.092  27.997
 5627W        W 6491  18.046   3.353  25.660
 5628W        W 6492  14.970   2.069  28.626
 5629W        W 6493  16.789   2.271  27.382
 5630W        W 6494  15.260   2.108  26.425
 5631W        W 6495  15.851   3.077  28.041
 5632W        W 6496  16.156   0.284  26.913
 5633W        W 6497  14.603   2.443  25.993
 5634W        W 6498  16.320   1.102  25.798
 5635W        W 6499  14.888   1.853  26.694
 5636W        W 6500  16.079   0.505  28.247
 5637W        W 6501  17.980   0.355  25.599
 5638W        W 6502  17.907   2.046  28.785
 5639W        W 6503  16.673   3.112  28.959
 5640W        W 6504  18.135   2.397  28.461
 5641W        W 6505  17.695   3.016   0.078
 5642W        W 6506  15.283   3.519  27.458
 5643W        W 6507  18.360   2.281  26.611
 5644W        W 6508  16.788   1.386  26.965
 5645W        W 6509  16.615   0.064  26.788
 5646W        W 6510  15.740   2.911  26.698
 5647W        W 6511  16.001   0.890  27.867
 5648W        W 6512  15.764   0.337  27.263
 5649W        W 6513  14.807   3.302  25.787
 5650W        W 6514  16.599   2.373  26.845
 5651W        W 6515  15.086   1.690  26.095
 5652W        W 6516  14.813   0.726  27.217
 5653W        W 6517  16.286   2.543  27.210
 5654W        W 6518  14.663   0.396  26.233
 5655W        W 6519  17.248   1.578  28.173
 5656W        W 6520  17.214   0.933  25.774
 5657W        W 6521  17.944   2.516  27.489
 5658W        W 6522  16.383   2.987  27.459
 5659W        W 6523  15.782   3.189  26.215
 5660W        W 6524  16.996   0.035  25.631
 5661W        W 6525  14.760   3.379  27.438
 5662W        W 6526  16.848   1.092  28.921
 5663W        W 6527  15.089   0.594   0.055
 5664W        W 6528  14.848   1.377  26.438
 5665W        W 6529  15.504   1.354  26.121
 5666W        W 6530  17.144   1.501  28.801
 5667W        W 6531  15.589   2.023  27.407
 5668W        W 6532  17.230  28.993  26.812
 5669W        W 6533  16.173   3.442  27.162
 5670W        W 6534  17.522   3.214  28.079
 5671W        W 6535  17.179   3.102  27.278
 5672W        W 6536  17.099   2.177  26.990
 5673W        W 6537  16.436   0.565  25.975
 5674W        W 6538  18.143   0.083  26.656
 5675W        W 6539  15.789   1.640  25.386
 5676W        W 6540  17.986   0.954  26.770
 5677W        W 6541  16.448   1.974  25.590
 5678W        W 6542  17.610   2.322  28.407
 5679W        W 6543  17.162   2.954  25.604
 5680W        W 6544  15.879   0.839  28.620
 5681W        W 6545  15.741   1.337  27.840
 5682W        W 6546  17.799   2.805  28.298
 5683W        W 6547  16.891   0.711  28.539
 5684W        W 6548  14.721   1.367  28.556
 5685W        W 6549  16.512   1.754  27.995
 5686W        W 6550  14.986   2.376  26.803
 5687W        W 6551  15.017   1.730  27.614
 5688W        W 6552  17.364   2.057  28.030
 5689W        W 6553  17.105   3.382  28.867
 5690W        W 6554  17.034   1.173  28.412
 5691W        W 6555  17.566   3.249  26.910
 5692W        W 6556  16.370   2.993  27.983
 5693W        W 6557  15.633   3.123  27.550
 5694W        W 6558  17.630   2.487  27.898
 5695W        W 6559  16.592   2.586  28.866
 5696W        W 6560  15.252   2.407  27.236
 5697W        W 6561  17.631   2.267  27.133
 5698W        W 6562  17.153   3.382  27.739
 5699W        W 6563  15.129   3.013  27.518
 5700W        W 6564  16.103   1.218  28.897
 5701W        W 6565  16.331   3.206  26.331
 5702W        W 6566  16.064   2.559  28.710
 5703W        W 6567  16.059   2.762  26.292
 5704W        W 6568  15.361   1.339  25.603
 5705W        W 6569  14.633   7.296   3.306
 5706W        W 6570  14.995   6.196   2.789
 5707W        W 6571  17.734   5.851   0.799
 5708W        W 6572  18.067   7.051   2.666
 5709W        W 6573  15.885   7.008   0.301
 5710W        W 6574  15.771   5.239   1.222
 5711W        W 6575  15.406   4.907   1.520
 5712W        W 6576  16.164   5.668   0.693
 5713W        W 6577  16.090   6.935   3.017
 5714W        W 6578  14.623   4.334   3.054
 5715W        W 6579  15.323   3.600   2.791
 5716W        W 6580  17.071   4.060   1.708
 5717W        W 6581  16.802   4.885   0.440
 5718W        W 6582  17.389   4.406   3.355
 5719W        W 6583  14.700   4.089   2.599
 5720W        W 6584  14.746   6.814   3.443
 5721W        W 6585  16.134   6.092   0.361
 5722W        W 6586  14.759   4.825   2.109
 5723W        W 6587  15.901   4.927   3.206
 5724W        W 6588  17.929   4.560   1.695
 5725W        W 6589  17.819   5.727   2.414
 5726W        W 6590  16.276   5.169   1.556
 5727W        W 6591  16.835   6.499   1.980
 5728W        W 6592  15.199   5.791   2.034
 5729W        W 6593  14.460   5.205   1.959
 5730W        W 6594  15.858   5.507   3.131
 5731W        W 6595  17.935   5.151   3.108
 5732W        W 6596  15.392   6.484   1.599
 5733W        W 6597  16.688   6.302   2.740
 5734W        W 6598  16.181   4.874   1.970
 5735W        W 6599  16.326   5.698   1.612
 5736W        W 6600  16.895   6.538   3.433
 5737W        W 6601  16.182   5.784   3.425
 5738W        W 6602  16.311   5.569   2.902
 5739W        W 6603  14.467   4.555   3.513
 5740W        W 6604  17.350   6.341   3.235
 5741W        W 6605  15.181   3.979   1.031
 5742W        W 6606  15.604   6.207   2.000
 5743W        W 6607  17.977   6.127   1.544
 5744W        W 6608  17.562   4.206   1.813
 5745W        W 6609  17.765   4.379   0.004
 5746W        W 6610  18.203   5.167   2.322
 5747W        W 6611  16.409   6.868   2.161
 5748W        W 6612  17.758   6.383   0.582
 5749W        W 6613  15.187   7.306   0.552
 5750W        W 6614  15.477   7.210   1.008
 5751W        W 6615  15.314   3.962   2.326
 5752W        W 6616  17.770   4.968   2.529
 5753W        W 6617  17.248   5.263   1.334
 5754W        W 6618  17.286   5.030   0.318
 5755W        W 6619  16.449   6.360   2.278
 5756W        W 6620  16.405   4.654   1.573
 5757W        W 6621  16.838   6.706   2.459
 5758W        W 6622  17.778   5.392   1.082
 5759W        W 6623  16.594   4.062   0.994
 5760W        W 6624  15.478   6.870   0.606
 5761W        W 6625  14.763   4.203   1.300
 5762W        W 6626  17.427   4.718   1.731
 5763W        W 6627  14.862   6.590   1.678
 5764W        W 6628  17.516   4.804  28.893
 5765W        W 6629  14.750   6.625   2.203
 5766W        W 6630  15.549   6.562   2.356
 5767W        W 6631  15.835   5.616   1.575
 5768W        W 6632  15.868   4.097   2.290
 5769W        W 6633  18.106   3.782   1.783
 5770W        W 6634  15.291   5.466   0.282
 5771W        W 6635  14.987   4.647   0.494
 5772W        W 6636  15.046   6.495   1.197
 5773W        W 6637  16.030   5.880   1.176
 5774W        W 6638  17.600   6.965   2.888
 5775W        W 6639  16.490   4.512   0.695
 5776W        W 6640  17.781   7.134   1.530
 5777W        W 6641  17.447   4.983   2.926
 5778W        W 6642  18.216   6.492   1.301
 5779W        W 6643  16.790   5.799   2.750
 5780W        W 6644  14.641   5.366   1.117
 5781W        W 6645  15.579   5.915   2.416
 5782W        W 6646  16.829   4.991   0.940
 5783W        W 6647  16.829   5.466   1.105
 5784W        W 6648  15.124   4.889   2.447
 5785W        W 6649  15.124   4.794   2.950
 5786W        W 6650  15.000   3.713   1.445
 5787W        W 6651  16.709   4.116   2.109
 5788W        W 6652  16.498   4.226   3.260
 5789W        W 6653  17.055   4.100   0.569
 5790W        W 6654  18.060   6.848   3.141
 5791W        W 6655  16.860   3.806   3.144
 5792W        W 6656  17.868   6.209   3.332
 5793W        W 6657  17.437   4.327   2.831
 5794W        W 6658  17.063   4.227   1.215
 5795W        W 6659  17.558   5.395   3.365
 5796W        W 6660  15.287   6.994   1.470
 5797W        W 6661  15.968   4.642   0.775
 5798W        W 6662  15.454   3.934   3.202
 5799W        W 6663  17.589   4.589   0.843
 5800W        W 6664  17.912   4.989   0.818
 5801W        W 6665  15.654   7.157   3.178
 5802W        W 6666  15.803   3.609   0.665
 5803W        W 6667  17.922   4.110   1.442
 5804W        W 6668  18.157   6.516   0.266
 5805W        W 6669  14.756   5.620   1.822
 5806W        W 6670  16.925   4.225   0.074
 5807W        W 6671  18.091   6.609   1.803
 5808W        W 6672  17.954   3.774   2.398
 5809W        W 6673  16.499   5.080   2.933
 5810W        W 6674  16.333   6.128   0.841
 5811W        W 6675  17.114   5.541   3.632
 5812W        W 6676  16.669   3.725   1.769
 5813W        W 6677  15.160   4.614   1.860
 5814W        W 6678  15.088   5.755   2.528
 5815W        W 6679  16.814   6.827   1.344
 5816W        W 6680  17.666   4.550   2.189
 5817W        W 6681  16.690   7.045   2.866
 5818W        W 6682  17.812   5.776   0.304
 5819W        W 6683  16.303   5.440   1.130
 5820W        W 6684  18.100   3.780   2.887
 5821W        W 6685  16.355   5.923   2.520
 5822W        W 6686  16.619   4.627   2.078
 5823W        W 6687  17.342   5.046   0.861
 5824W        W 6688  17.753   4.795   0.358
 5825W        W 6689  17.547   6.723   0.931
 5826W        W 6690  17.442   6.176   1.648
 5827W        W 6691  17.008   5.361   0.606
 5828W        W 6692  16.818   5.531   1.626
 5829W        W 6693  17.706   5.321   1.595
 5830W        W 6694  14.933   4.346   2.229
 5831W        W 6695  17.631   5.455   2.830
 5832W        W 6696  18.086   7.052   2.127
 5833W        W 6697  15.900   6.598   1.489
 5834W        W 6698  17.158   7.097   2.648
 5835W        W 6699  16.851   4.433   2.515
 5836W        W 6700  16.311   7.207   2.546
 5837W        W 6701  17.971   4.092   0.918
 5838W        W 6702  17.556   5.411   2.089
 5839W        W 6703  14.705   4.635   2.621
 5840W        W 6704  17.535   4.406   1.327
 5841W        W 6705  17.837   4.639   3.000
 5842W        W 6706  16.813   6.328   1.478
 5843W        W 6707  16.277   6.855   1.231
 5844W        W 6708  15.113   4.155   0.533
 5845W        W 6709  16.289   3.801   2.126
 5846W        W 6710  15.346   6.984   0.133
 5847W        W 6711  15.563   5.446   0.745
 5848W        W 6712  16.371   6.064   3.049
 5849W        W 6713  16.202   4.367   1.164
 5850W        W 6714  17.447   3.888   1.393
 5851W        W 6715  17.277   7.200   1.749
 5852W        W 6716  16.792   7.013   1.828
 5853W        W 6717  16.054   5.916   2.083
 5854W        W 6718  17.875   6.636   2.381
 5855W        W 6719  15.649   4.264   1.026
 5856W        W 6720  16.034   6.519   1.989
 5857W        W 6721  15.502   4.239   0.143
 5858W        W 6722  16.343   4.870   2.469
 5859W        W 6723  17.138   3.810   2.154
 5860W        W 6724  14.613   5.678   2.353
 5861W        W 6725  16.187   5.357   0.257
 5862W        W 6726  15.624   3.732   0.177
 5863W        W 6727  16.324   4.912   1.076
 5864W        W 6728  17.095   3.986   2.643
 5865W        W 6729  15.932   5.929   2.816
 5866W        W 6730  16.713   5.554   3.220
 5867W        W 6731  17.201   5.664   3.083
 5868W        W 6732  16.508   3.882   3.643
 5869W        W 6733  15.698   4.651   1.866
 5870W        W 6734  15.319   4.390   1.423
 5871W        W 6735  15.082   6.917   0.925
 5872W        W 6736  16.455   6.567   3.166
 5873W        W 6737  15.305   5.886   0.575
 5874W        W 6738  17.319   5.640   1.690
 5875W        W 6739  17.149   5.147   1.834
 5876W        W 6740  16.567   5.740   2.079
 5877W        W 6741  16.956   5.976   0.135
 5878W        W 6742  16.605   4.172   1.507
 5879W        W 6743  18.092   4.537   0.653
 5880W        W 6744  14.790   7.009   2.892
 5881W        W 6745  15.159   6.251   2.306
 5882W        W 6746  14.676   7.187   0.718
 5883W        W 6747  16.337   4.322   2.430
 5884W        W 6748  15.851   6.523   0.504
 5885W        W 6749  17.855   6.908   0.570
 5886W        W 6750  16.504   5.278   0.664
 5887W        W 6751  15.540   4.782   1.044
 5888W        W 6752  16.550   4.567   0.124
 5889W        W 6753  16.892   6.078   3.172
 5890W        W 6754  17.449   4.089   0.906
 5891W        W 6755  14.558   3.822   0.318
 5892W        W 6756  15.964   6.281   2.445
 5893W        W 6757  15.939   6.113   1.624
 5894W        W 6758  15.622   6.142   0.245
 5895W        W 6759  14.903   6.377   0.664
 5896W        W 6760  15.474   5.200   2.997
 5897W        W 6761  15.938   3.926   3.408
 5898W        W 6762  16.592   4.030   2.768
 5899W        W 6763  15.944   3.842   1.143
 5900W        W 6764  16.819   3.657   0.751
 5901W        W 6765  14.849   3.813   2.177
 5902W        W 6766  14.912   4.728   1.367
 5903W        W 6767  17.631   3.728   1.975
 5904W        W 6768  15.110   4.485   0.959
 5905W        W 6769  17.524   4.082   2.345
 5906W        W 6770  17.987   5.268   0.263
 5907W        W 6771  15.499   4.175   1.892
 5908W        W 6772  16.513   4.555   2.874
 5909W        W 6773  14.632   4.317   0.376
 5910W        W 6774  15.459   5.730   2.880
 5911W        W 6775  16.630   5.171   1.968
 5912W        W 6776  16.390   7.056   0.422
 5913W        W 6777  14.782   5.599   0.195
 5914W        W 6778  15.514   6.271   2.805
 5915W        W 6779  14.987   5.289   2.759
 5916W        W 6780  15.974   5.566   2.469
 5917W        W 6781  17.577   3.801   2.791
 5918W        W 6782  18.153   5.494   2.743
 5919W        W 6783  18.127   5.534   0.693
 5920W        W 6784  16.860   5.850   0.747
 5921W        W 6785  17.597   7.161   0.179
 5922W        W 6786  16.710   5.165   3.579
 5923W        W 6787  15.230   6.171   3.253
 5924W        W 6788  18.256   4.234   3.354
 5925W        W 6789  17.821   4.986   1.981
 5926W        W 6790  16.064   7.317   3.465
 5927W        W 6791  16.135   3.771   0.293
 5928W        W 6792  17.363   6.263   0.276
 5929W        W 6793  15.570   4.486   3.032
 5930W        W 6794  15.997   6.433   2.935
 5931W        W 6795  17.909   4.234   2.641
 5932W        W 6796  17.330   7.292   0.606
 5933W        W 6797  17.414   5.912   2.109
 5934W        W 6798  15.601   4.075   2.727
 5935W        W 6799  16.263   5.277   3.362
 5936W        W 6800  15.406   6.375   0.739
 5937W        W 6801  17.311   5.602   0.948
 5938W        W 6802  15.143   4.326   2.725
 5939W        W 6803  16.311   6.315   1.326
 5940W        W 6804  18.097   5.004   1.466
 5941W        W 6805  16.340   3.753   3.145
 5942W        W 6806  17.324   6.412   2.107
 5943W        W 6807  17.639   6.826   1.939
 5944W        W 6808  16.647   6.256   0.460
 5945W        W 6809  14.693   6.365   3.183
 5946W        W 6810  15.429   4.479   2.308
 5947W        W 6811  15.495   3.907   1.437
 5948W        W 6812  17.163   4.391   2.101
 5949W        W 6813  15.789   5.673   0.354
 5950W        W 6814  17.867   5.751   1.867
 5951W        W 6815  15.132   6.645   3.049
 5952W        W 6816  17.678   7.285   1.001
 5953W        W 6817  15.837   4.284   1.519
 5954W        W 6818  15.370   5.414   1.645
 5955W        W 6819  15.960   7.232   2.159
 5956W        W 6820  17.805   7.346   3.157
 5957W        W 6821  17.032   5.543   2.150
 5958W        W 6822  14.901   5.118   0.324
 5959W        W 6823  17.994   6.897   1.106
 5960W        W 6824  17.708   4.240   0.487
 5961W        W 6825  15.833   3.671   2.951
 5962W        W 6826  17.693   6.624   1.461
 5963W        W 6827  17.642   4.914   1.271
 5964W        W 6828  15.929   4.776   1.399
 5965W        W 6829  16.006   5.155   2.765
 5966W        W 6830  17.187   6.194   2.760
 5967W        W 6831  16.023   4.626   2.813
 5968W        W 6832  15.819   7.079   1.353
 5969W        W 6833  15.139   7.124   3.275
 5970W        W 6834  15.215   6.475   0.212
 5971W        W 6835  17.755   6.278   1.094
 5972W        W 6836  15.588   4.845   2.651
 5973W        W 6837  18.553   4.574   0.426
 5974W        W 6838  15.786   6.026   0.746
 5975W        W 6839  16.930   5.320   2.790
 5976W        W 6840  16.849   4.971   2.406
 5977W        W 6841  15.442   5.358   2.492
 5978W        W 6842  17.612   7.095   2.379
 5979W        W 6843  17.343   3.902   3.266
 5980W        W 6844  14.959   3.904   3.020
 5981W        W 6845  15.383   5.055   2.036
 5982W        W 6846  15.817   4.658   0.225
 5983W        W 6847  14.624   6.537   2.696
 5984W        W 6848  16.168   5.408   2.013
 5985W        W 6849  16.140   4.266   0.187
 5986W        W 6850  15.240   5.211   1.141
 5987W        W 6851  14.769   7.159   2.386
 5988W        W 6852  17.612   5.371   0.582
 5989W        W 6853  17.801   4.136   3.141
 5990W        W 6854  17.256   6.431   1.234
 5991W        W 6855  15.038   5.189   3.274
 5992W        W 6856  17.842   3.753   0.498
 5993W        W 6857  17.312   6.140   0.809
 5994W        W 6858  15.998   5.171   0.749
 5995W        W 6859  17.384   3.993   0.166
 5996W        W 6860  17.295   4.701   2.509
 5997W        W 6861  14.951   5.123   1.719
 5998W        W 6862  15.595   6.202   1.205
 5999W        W 6863  17.164   4.751   1.254
 6000W        W 6864  16.183   4.332   1.928
 6001W        W 6865  18.163   6.168   2.391
 6002W        W 6866  18.023   4.188   2.108
 6003W        W 6867  14.790   7.004   1.339
 6004W        W 6868  15.105   6.013   1.029
 6005W        W 6869  15.049   3.919   3.532
 6006W        W 6870  15.972   6.825   3.517
 6007W        W 6871  18.124   5.593   1.422
 6008W        W 6872  17.309   5.761   0.444
 6009W        W 6873  16.768   7.231   2.318
 6010W        W 6874  17.482   5.891   3.458
 6011W        W 6875  16.301   3.669   0.781
 6012W        W 6876  16.922   4.559   1.659
 6013W        W 6877  14.762   6.105   2.024
 6014W        W 6878  16.078   4.131   0.703
 6015W        W 6879  15.713   5.999   3.258
 6016W        W 6880  16.691   4.559   1.167
 6017W        W 6881  16.923   6.084   2.325
 6018W        W 6882  15.110   6.761   2.546
 6019W        W 6883  15.611   6.559   3.256
 6020W        W 6884  15.484   4.521   0.592
 6021W        W 6885  17.068   4.565   0.779
 6022W        W 6886  17.022   6.650   2.946
 6023W        W 6887  15.802   5.143   1.750
 6024W        W 6888  15.495   7.086   2.332
 6025W        W 6889  18.089   7.012   0.130
 6026W        W 6890  14.966   5.736   3.038
 6027W        W 6891  16.969   5.993   1.827
 6028W        W 6892  15.502   5.691   1.174
 6029W        W 6893  15.960   6.822   2.445
 6030W        W 6894  16.178   3.913   1.609
 6031W        W 6895  14.729   5.869   0.640
 6032W        W 6896  16.260   4.878   0.405
 6033W        W 6897  15.010   5.621   1.363
 6034W        W 6898  16.097   4.120   2.871
 6035W        W 6899  17.872   3.879   0.010
 6036W        W 6900  17.954   5.680   3.200
 6037W        W 6901  16.522   7.053   3.366
 6038W        W 6902  18.110   6.067   2.881
 6039W        W 6903  17.607   6.770   3.375
 6040W        W 6904  15.319   7.287   1.888
 6041W        W 6905  18.159   5.957   1.073
 6042W        W 6906  16.768   5.031   1.456
 6043W        W 6907  16.418   3.589   1.278
 6044W        W 6908  15.531   6.708   1.117
 6045W        W 6909  15.924   4.601   2.319
 6046W        W 6910  15.810   3.742   1.926
 6047W        W 6911  14.941   6.851   0.444
 6048W        W 6912  16.593   5.899   1.229
 6049W        W 6913  15.589   6.804   2.806
 6050W        W 6914  15.026   5.459   0.742
 6051W        W 6915  14.998   4.111   1.767
 6052W        W 6916  16.443   6.157   1.808
 6053W        W 6917  14.700   3.993   0.810
 6054W        W 6918  17.310   5.215   2.477
 6055W        W 6919  17.311   4.503   0.303
 6056W        W 6920  17.810   6.248   2.018
 6057W        W 6921  16.443   6.651   1.684
 6058W        W 6922  15.929   6.973   0.840
 6059W        W 6923  16.921   3.716   0.229
 6060W        W 6924  14.848   7.066   1.859
 6061W        W 6925  16.934   4.696   3.422
 6062W        W 6926  15.115   4.358   3.256
 6063W        W 6927  14.848   4.962   0.875
 6064W        W 6928  15.313   5.020   0.640
 6065W        W 6929  17.102   5.173   3.256
 6066W        W 6930  15.658   5.550   2.054
 6067W        W 6931  16.923   3.736   1.302
 6068W        W 6932  16.188   7.081   1.720
 6069W        W 6933  17.376   6.640   2.560
 6070W        W 6934  17.205   6.684   1.676
 6071W        W 6935  17.108   5.917   1.304
 6072W        W 6936  16.550   4.040   0.470
 6073W        W 6937  18.182   3.717   1.270
 6074W        W 6938  15.707   5.156   0.300
 6075W        W 6939  18.017   4.566   1.170
 6076W        W 6940  16.545   5.727   0.333
 6077W        W 6941  17.603   5.962   2.949
 6078W        W 6942  17.331   6.780   0.462
 6079W        W 6943  16.025   4.422   3.295
 6080W        W 6944  15.841   5.103   2.275
 6081W        W 6945  17.761   6.477   2.902
 6082W        W 6946  16.960   4.314   3.024
 6083W        W 6947  14.614   4.991   3.010
 6084W        W 6948  16.495   5.380   2.457
 6085W        W 6949  14.935   6.099   1.533
 6086W        W 6950  14.981   5.335   2.206
 6087W        W 6951  17.285   5.731   2.568
 6088W        W 6952  17.181   7.083   3.180
 6089W        W 6953  16.959   4.813   2.899
 6090W        W 6954  17.316   7.015   1.280
 6091W        W 6955  16.376   6.688   2.671
 6092W        W 6956  15.689   6.909   1.849
 6093W        W 6957  17.628   6.192   2.492
 6094W        W 6958  16.540   6.167   3.536
 6095W        W 6959  15.422   5.939   1.606
 6096W        W 6960  17.635   5.815   1.321
 6097W        W 6961  17.178   6.912   2.155
 6098W        W 6962  15.223   6.756   2.017
 6099W        W 6963  16.408   4.769   3.346
 6100W        W 6964  16.630   7.143   0.963
 6101W        W 6965  16.064   6.318   3.443
 6102W        W 6966  15.972   6.473   0.987
 6103W        W 6967  15.328   4.817   0.163
 6104W        W 6968  14.602   7.365   7.082
 6105W        W 6969  15.006   6.272   6.597
 6106W        W 6970  17.826   5.753   4.289
 6107W        W 6971  17.925   6.897   6.269
 6108W        W 6972  15.504   7.026   3.648
 6109W        W 6973  15.850   5.353   4.711
 6110W        W 6974  15.412   5.316   5.414
 6111W        W 6975  16.402   5.774   4.299
 6112W        W 6976  16.055   6.933   6.684
 6113W        W 6977  14.625   4.428   6.654
 6114W        W 6978  15.366   3.796   6.498
 6115W        W 6979  17.266   4.062   5.334
 6116W        W 6980  16.790   4.811   4.021
 6117W        W 6981  17.339   4.471   6.906
 6118W        W 6982  14.854   4.012   6.217
 6119W        W 6983  14.772   6.905   7.228
 6120W        W 6984  15.973   6.499   3.927
 6121W        W 6985  14.917   4.844   5.636
 6122W        W 6986  15.799   5.076   6.814
 6123W        W 6987  18.009   4.512   5.410
 6124W        W 6988  17.764   5.640   6.172
 6125W        W 6989  16.370   5.001   5.240
 6126W        W 6990  16.835   6.462   5.581
 6127W        W 6991  15.196   5.801   5.976
 6128W        W 6992  14.504   5.289   5.606
 6129W        W 6993  15.801   5.444   6.446
 6130W        W 6994  17.867   5.099   6.843
 6131W        W 6995  15.416   6.548   5.330
 6132W        W 6996  16.688   6.343   6.390
 6133W        W 6997  16.030   4.934   5.632
 6134W        W 6998  16.139   5.751   5.238
 6135W        W 6999  17.047   6.736   7.022
 6136W        W 7000  16.271   5.775   7.169
 6137W        W 7001  16.318   5.619   6.665
 6138W        W 7002  14.197   4.712   7.004
 6139W        W 7003  17.402   6.361   6.873
 6140W        W 7004  15.031   3.869   4.725
 6141W        W 7005  15.603   6.267   5.774
 6142W        W 7006  17.933   6.063   5.214
 6143W        W 7007  17.578   4.340   5.653
 6144W        W 7008  17.869   4.511   3.555
 6145W        W 7009  18.222   5.061   6.071
 6146W        W 7010  16.238   6.839   5.848
 6147W        W 7011  17.997   6.520   4.133
 6148W        W 7012  14.853   7.178   4.320
 6149W        W 7013  15.170   7.031   4.697
 6150W        W 7014  15.392   4.037   6.060
 6151W        W 7015  17.761   4.984   6.340
 6152W        W 7016  17.189   5.250   4.703
 6153W        W 7017  17.170   5.036   3.763
 6154W        W 7018  16.470   6.334   5.924
 6155W        W 7019  16.364   4.470   5.148
 6156W        W 7020  16.738   6.769   6.080
 6157W        W 7021  17.590   5.321   4.401
 6158W        W 7022  16.849   4.037   4.542
 6159W        W 7023  14.933   6.664   4.390
 6160W        W 7024  14.689   4.269   4.854
 6161W        W 7025  17.243   5.014   5.203
 6162W        W 7026  14.901   6.600   5.431
 6163W        W 7027  15.847   7.010   4.025
 6164W        W 7028  17.532   4.888   3.416
 6165W        W 7029  14.734   6.693   5.921
 6166W        W 7030  15.473   6.358   6.276
 6167W        W 7031  16.048   5.825   4.721
 6168W        W 7032  15.893   4.102   5.976
 6169W        W 7033  18.152   3.827   5.418
 6170W        W 7034  15.396   5.582   3.368
 6171W        W 7035  14.887   4.343   3.748
 6172W        W 7036  15.036   6.576   4.936
 6173W        W 7037  15.773   6.266   4.776
 6174W        W 7038  17.520   6.863   6.619
 6175W        W 7039  16.528   4.359   4.244
 6176W        W 7040  17.792   7.037   5.317
 6177W        W 7041  17.387   4.954   6.699
 6178W        W 7042  18.285   6.504   4.992
 6179W        W 7043  16.796   5.848   6.513
 6180W        W 7044  14.680   5.402   4.801
 6181W        W 7045  15.706   5.815   6.079
 6182W        W 7046  16.776   4.987   4.506
 6183W        W 7047  16.769   5.500   4.548
 6184W        W 7048  15.116   4.866   6.116
 6185W        W 7049  15.078   4.856   6.652
 6186W        W 7050  15.060   3.746   5.237
 6187W        W 7051  16.761   4.271   5.554
 6188W        W 7052  16.480   4.274   6.810
 6189W        W 7053  16.918   4.091   4.012
 6190W        W 7054  18.010   6.853   6.777
 6191W        W 7055  16.914   3.808   6.753
 6192W        W 7056  17.890   6.385   7.041
 6193W        W 7057  17.443   4.389   6.401
 6194W        W 7058  17.284   4.184   4.816
 6195W        W 7059  17.546   5.408   7.141
 6196W        W 7060  15.157   6.995   5.213
 6197W        W 7061  16.078   4.605   4.168
 6198W        W 7062  15.531   4.044   6.909
 6199W        W 7063  17.537   4.520   4.512
 6200W        W 7064  17.856   4.896   4.376
 6201W        W 7065  15.664   7.136   6.971
 6202W        W 7066  15.572   3.760   4.269
 6203W        W 7067  17.774   4.121   5.196
 6204W        W 7068  18.045   6.606   3.621
 6205W        W 7069  14.813   5.750   5.640
 6206W        W 7070  16.950   4.177   3.511
 6207W        W 7071  18.092   6.486   5.483
 6208W        W 7072  18.050   3.760   6.100
 6209W        W 7073  16.630   5.156   6.794
 6210W        W 7074  16.144   6.245   4.401
 6211W        W 7075  17.114   5.528   7.410
 6212W        W 7076  16.839   3.782   5.426
 6213W        W 7077  15.290   4.578   5.394
 6214W        W 7078  14.859   5.847   6.361
 6215W        W 7079  16.551   7.171   5.118
 6216W        W 7080  17.907   4.672   5.926
 6217W        W 7081  16.730   7.127   6.486
 6218W        W 7082  17.883   5.699   3.730
 6219W        W 7083  16.331   5.403   4.910
 6220W        W 7084  18.119   3.793   6.614
 6221W        W 7085  16.360   5.954   6.261
 6222W        W 7086  16.501   4.703   5.631
 6223W        W 7087  17.281   4.912   4.297
 6224W        W 7088  17.625   4.834   3.920
 6225W        W 7089  17.639   6.774   4.425
 6226W        W 7090  17.479   5.829   5.303
 6227W        W 7091  17.137   5.378   4.167
 6228W        W 7092  16.642   5.631   5.300
 6229W        W 7093  17.616   5.331   5.384
 6230W        W 7094  15.099   4.400   5.850
 6231W        W 7095  17.574   5.444   6.615
 6232W        W 7096  18.064   6.925   5.751
 6233W        W 7097  15.907   6.608   5.171
 6234W        W 7098  17.192   7.111   6.241
 6235W        W 7099  17.114   4.304   5.964
 6236W        W 7100  16.263   7.182   6.241
 6237W        W 7101  17.772   4.067   4.615
 6238W        W 7102  17.709   5.219   5.894
 6239W        W 7103  14.708   4.551   6.163
 6240W        W 7104  17.465   4.538   5.151
 6241W        W 7105  17.802   4.609   6.703
 6242W        W 7106  16.840   6.185   5.119
 6243W        W 7107  16.019   6.874   4.748
 6244W        W 7108  15.144   3.972   4.040
 6245W        W 7109  16.437   3.876   5.802
 6246W        W 7110  15.010   7.122   3.801
 6247W        W 7111  15.901   5.648   4.250
 6248W        W 7112  16.361   6.148   6.751
 6249W        W 7113  16.379   4.066   4.769
 6250W        W 7114  17.553   3.747   4.961
 6251W        W 7115  17.284   7.154   5.349
 6252W        W 7116  16.668   6.962   5.589
 6253W        W 7117  16.050   5.905   5.723
 6254W        W 7118  17.924   6.472   5.991
 6255W        W 7119  15.751   3.988   4.728
 6256W        W 7120  16.068   6.417   5.617
 6257W        W 7121  15.572   4.316   3.535
 6258W        W 7122  16.408   5.038   6.009
 6259W        W 7123  17.197   3.795   5.814
 6260W        W 7124  14.585   5.545   6.050
 6261W        W 7125  16.191   5.472   3.858
 6262W        W 7126  15.537   3.827   3.728
 6263W        W 7127  16.304   4.897   4.749
 6264W        W 7128  17.171   3.950   6.332
 6265W        W 7129  15.907   5.941   6.537
 6266W        W 7130  16.754   5.776   7.005
 6267W        W 7131  17.232   5.856   6.811
 6268W        W 7132  16.499   3.945   7.248
 6269W        W 7133  15.751   4.502   5.620
 6270W        W 7134  15.315   4.177   5.037
 6271W        W 7135  14.669   6.922   4.739
 6272W        W 7136  16.570   6.709   6.767
 6273W        W 7137  15.757   5.761   3.730
 6274W        W 7138  17.120   5.477   5.400
 6275W        W 7139  17.243   5.111   5.720
 6276W        W 7140  16.539   5.756   5.816
 6277W        W 7141  17.045   6.070   3.667
 6278W        W 7142  16.822   4.168   5.055
 6279W        W 7143  18.067   4.439   4.392
 6280W        W 7144  14.774   7.017   6.679
 6281W        W 7145  14.976   6.264   6.069
 6282W        W 7146  14.300   7.075   4.355
 6283W        W 7147  16.581   4.358   6.033
 6284W        W 7148  15.336   6.883   4.152
 6285W        W 7149  17.695   6.871   3.910
 6286W        W 7150  16.648   5.319   4.066
 6287W        W 7151  16.039   4.447   4.729
 6288W        W 7152  16.570   4.446   3.731
 6289W        W 7153  16.885   6.265   6.853
 6290W        W 7154  17.351   4.071   4.310
 6291W        W 7155  14.665   3.773   3.917
 6292W        W 7156  15.983   6.274   6.121
 6293W        W 7157  15.783   6.133   5.295
 6294W        W 7158  15.585   6.264   3.681
 6295W        W 7159  14.403   6.579   4.416
 6296W        W 7160  15.353   5.372   6.699
 6297W        W 7161  16.024   3.913   7.074
 6298W        W 7162  16.652   3.920   6.306
 6299W        W 7163  16.058   3.706   5.024
 6300W        W 7164  16.791   3.531   4.486
 6301W        W 7165  15.024   3.883   5.750
 6302W        W 7166  14.838   4.716   5.127
 6303W        W 7167  17.675   3.805   5.597
 6304W        W 7168  15.341   4.185   4.476
 6305W        W 7169  17.598   4.023   6.055
 6306W        W 7170  17.957   5.107   3.615
 6307W        W 7171  15.448   4.096   5.546
 6308W        W 7172  16.468   4.674   6.434
 6309W        W 7173  14.422   4.271   3.952
 6310W        W 7174  15.375   5.858   6.478
 6311W        W 7175  16.760   5.140   5.553
 6312W        W 7176  16.339   7.151   3.878
 6313W        W 7177  14.620   5.479   3.314
 6314W        W 7178  15.473   6.280   6.792
 6315W        W 7179  14.964   5.320   6.333
 6316W        W 7180  16.173   5.504   6.099
 6317W        W 7181  17.618   3.713   6.475
 6318W        W 7182  18.095   5.383   6.468
 6319W        W 7183  18.026   5.302   4.101
 6320W        W 7184  16.898   5.820   4.124
 6321W        W 7185  17.482   7.237   3.583
 6322W        W 7186  16.646   5.359   7.261
 6323W        W 7187  15.053   6.244   7.126
 6324W        W 7188  18.204   4.145   7.068
 6325W        W 7189  17.638   4.846   5.527
 6326W        W 7190  16.175   7.106   7.163
 6327W        W 7191  16.012   3.716   4.008
 6328W        W 7192  17.553   6.366   3.735
 6329W        W 7193  15.514   4.582   6.781
 6330W        W 7194  15.921   6.446   6.610
 6331W        W 7195  17.957   4.248   6.339
 6332W        W 7196  17.369   7.196   4.139
 6333W        W 7197  17.401   5.736   5.803
 6334W        W 7198  15.676   4.229   6.445
 6335W        W 7199  16.203   5.272   7.044
 6336W        W 7200  15.305   6.328   4.544
 6337W        W 7201  17.310   5.751   4.488
 6338W        W 7202  15.168   4.401   6.405
 6339W        W 7203  16.225   6.223   5.014
 6340W        W 7204  17.985   4.976   5.150
 6341W        W 7205  16.393   3.755   6.739
 6342W        W 7206  17.249   6.322   5.832
 6343W        W 7207  17.605   6.662   5.620
 6344W        W 7208  16.423   6.650   3.695
 6345W        W 7209  14.647   6.515   6.906
 6346W        W 7210  15.567   4.566   6.091
 6347W        W 7211  15.583   3.759   5.186
 6348W        W 7212  17.154   4.624   5.557
 6349W        W 7213  16.173   6.015   3.899
 6350W        W 7214  17.892   5.689   5.642
 6351W        W 7215  15.141   6.690   6.885
 6352W        W 7216  17.732   7.299   4.547
 6353W        W 7217  15.898   4.195   5.195
 6354W        W 7218  15.525   5.796   5.580
 6355W        W 7219  15.861   7.236   5.912
 6356W        W 7220  17.632   7.280   6.974
 6357W        W 7221  16.963   5.495   5.916
 6358W        W 7222  14.529   5.050   3.580
 6359W        W 7223  18.013   6.897   4.790
 6360W        W 7224  17.706   4.347   4.039
 6361W        W 7225  15.895   3.802   6.590
 6362W        W 7226  17.751   6.549   5.107
 6363W        W 7227  17.598   4.960   4.817
 6364W        W 7228  15.919   4.733   5.167
 6365W        W 7229  16.215   5.132   6.500
 6366W        W 7230  17.192   6.224   6.427
 6367W        W 7231  15.942   4.689   6.486
 6368W        W 7232  15.664   7.065   5.168
 6369W        W 7233  15.149   7.184   7.008
 6370W        W 7234  15.201   6.621   3.574
 6371W        W 7235  17.930   6.384   4.646
 6372W        W 7236  15.508   4.962   6.420
 6373W        W 7237  18.132   4.749   3.952
 6374W        W 7238  15.695   6.126   4.183
 6375W        W 7239  17.057   5.398   6.660
 6376W        W 7240  16.883   4.802   5.964
 6377W        W 7241  15.435   5.356   6.102
 6378W        W 7242  17.599   7.087   5.917
 6379W        W 7243  17.370   3.964   7.090
 6380W        W 7244  14.968   4.028   6.724
 6381W        W 7245  15.491   4.950   5.761
 6382W        W 7246  15.880   4.722   3.690
 6383W        W 7247  14.628   6.554   6.395
 6384W        W 7248  16.295   5.376   5.592
 6385W        W 7249  16.117   4.210   3.805
 6386W        W 7250  15.641   5.687   5.080
 6387W        W 7251  14.800   7.172   6.178
 6388W        W 7252  17.559   5.340   3.880
 6389W        W 7253  17.755   4.112   6.798
 6390W        W 7254  17.548   6.074   4.846
 6391W        W 7255  14.847   5.295   6.830
 6392W        W 7256  17.773   3.825   4.093
 6393W        W 7257  17.592   6.217   4.287
 6394W        W 7258  16.274   5.286   4.405
 6395W        W 7259  17.380   4.060   3.774
 6396W        W 7260  17.409   4.736   6.019
 6397W        W 7261  14.904   5.245   5.284
 6398W        W 7262  15.329   6.139   5.032
 6399W        W 7263  17.135   4.722   4.787
 6400W        W 7264  16.210   4.294   5.617
 6401W        W 7265  18.089   6.054   6.248
 6402W        W 7266  18.067   4.185   5.820
 6403W        W 7267  14.635   7.023   5.248
 6404W        W 7268  14.736   6.274   4.669
 6405W        W 7269  15.113   3.988   7.220
 6406W        W 7270  16.164   6.565   7.061
 6407W        W 7271  18.032   5.534   5.170
 6408W        W 7272  17.409   5.825   3.973
 6409W        W 7273  16.748   7.285   5.991
 6410W        W 7274  17.617   5.942   7.139
 6411W        W 7275  16.223   3.627   4.535
 6412W        W 7276  16.809   4.712   5.193
 6413W        W 7277  14.628   6.220   5.646
 6414W        W 7278  16.077   4.102   4.338
 6415W        W 7279  15.824   5.602   6.933
 6416W        W 7280  16.656   4.517   4.718
 6417W        W 7281  16.900   6.021   6.047
 6418W        W 7282  15.097   6.738   6.330
 6419W        W 7283  15.660   6.639   7.100
 6420W        W 7284  15.659   4.225   4.047
 6421W        W 7285  17.028   4.476   4.349
 6422W        W 7286  17.039   6.703   6.514
 6423W        W 7287  15.921   5.270   5.238
 6424W        W 7288  15.397   7.067   6.052
 6425W        W 7289  17.975   7.117   3.571
 6426W        W 7290  14.813   5.837   6.886
 6427W        W 7291  16.988   5.949   5.550
 6428W        W 7292  15.529   5.845   4.603
 6429W        W 7293  15.820   6.774   6.164
 6430W        W 7294  16.395   3.978   5.281
 6431W        W 7295  14.472   6.061   4.287
 6432W        W 7296  16.321   4.953   3.835
 6433W        W 7297  15.130   5.714   5.244
 6434W        W 7298  16.201   4.198   6.385
 6435W        W 7299  17.877   3.966   3.616
 6436W        W 7300  17.998   5.609   6.929
 6437W        W 7301  16.736   7.206   7.076
 6438W        W 7302  18.187   6.077   6.752
 6439W        W 7303  17.579   6.791   7.120
 6440W        W 7304  15.424   7.279   5.574
 6441W        W 7305  18.025   5.864   4.759
 6442W        W 7306  16.796   5.213   5.020
 6443W        W 7307  16.561   3.608   4.959
 6444W        W 7308  15.523   6.704   4.839
 6445W        W 7309  16.113   4.590   6.019
 6446W        W 7310  15.966   3.813   5.547
 6447W        W 7311  14.607   6.825   3.995
 6448W        W 7312  16.550   5.860   4.841
 6449W        W 7313  15.543   6.804   6.591
 6450W        W 7314  14.993   5.836   4.758
 6451W        W 7315  14.879   4.229   5.360
 6452W        W 7316  16.461   6.105   5.456
 6453W        W 7317  14.733   4.109   4.343
 6454W        W 7318  17.297   5.213   6.227
 6455W        W 7319  17.202   4.527   3.856
 6456W        W 7320  17.702   6.159   5.649
 6457W        W 7321  16.427   6.609   5.296
 6458W        W 7322  15.639   7.136   4.504
 6459W        W 7323  16.989   3.690   3.662
 6460W        W 7324  14.964   7.073   5.691
 6461W        W 7325  16.810   4.689   6.929
 6462W        W 7326  15.056   4.459   6.986
 6463W        W 7327  14.625   4.892   4.684
 6464W        W 7328  15.896   5.112   4.088
 6465W        W 7329  17.084   5.105   7.094
 6466W        W 7330  15.808   5.407   5.741
 6467W        W 7331  17.053   3.708   4.931
 6468W        W 7332  16.128   7.022   5.374
 6469W        W 7333  17.455   6.645   6.163
 6470W        W 7334  17.319   6.320   5.318
 6471W        W 7335  17.061   5.713   4.952
 6472W        W 7336  16.500   3.843   4.165
 6473W        W 7337  18.069   3.727   4.864
 6474W        W 7338  15.785   5.253   3.585
 6475W        W 7339  17.905   4.519   4.885
 6476W        W 7340  16.623   5.693   3.705
 6477W        W 7341  17.701   5.941   6.617
 6478W        W 7342  17.212   6.827   3.715
 6479W        W 7343  15.970   4.354   6.862
 6480W        W 7344  15.888   5.052   6.106
 6481W        W 7345  17.793   6.435   6.515
 6482W        W 7346  16.906   4.369   6.505
 6483W        W 7347  14.606   4.937   6.526
 6484W        W 7348  16.650   5.385   6.317
 6485W        W 7349  14.806   6.111   5.166
 6486W        W 7350  15.024   5.315   5.802
 6487W        W 7351  17.262   5.728   6.302
 6488W        W 7352  17.164   7.193   6.765
 6489W        W 7353  16.934   4.911   6.462
 6490W        W 7354  17.497   6.964   4.892
 6491W        W 7355  16.296   6.654   6.324
 6492W        W 7356  15.720   6.816   5.646
 6493W        W 7357  17.589   6.115   6.144
 6494W        W 7358  16.534   6.225   7.235
 6495W        W 7359  15.146   6.155   5.562
 6496W        W 7360  17.583   5.536   4.889
 6497W        W 7361  17.148   6.862   5.777
 6498W        W 7362  15.247   6.634   5.823
 6499W        W 7363  16.276   4.774   6.914
 6500W        W 7364  16.239   6.774   4.269
 6501W        W 7365  15.905   6.115   7.024
 6502W        W 7366  15.739   6.618   4.377
 6503W        W 7367  15.427   4.831   3.390
 6504W        W 7368  14.653   7.338  10.671
 6505W        W 7369  15.049   6.163  10.246
 6506W        W 7370  17.897   5.825   7.946
 6507W        W 7371  18.049   6.918   9.924
 6508W        W 7372  15.639   6.978   7.502
 6509W        W 7373  15.941   5.062   8.358
 6510W        W 7374  15.575   4.837   8.921
 6511W        W 7375  16.429   5.672   7.995
 6512W        W 7376  16.142   6.963  10.265
 6513W        W 7377  14.608   4.361  10.280
 6514W        W 7378  15.281   3.479  10.192
 6515W        W 7379  17.243   4.128   9.191
 6516W        W 7380  16.740   4.893   7.431
 6517W        W 7381  17.267   4.525  10.543
 6518W        W 7382  14.706   4.039   9.875
 6519W        W 7383  14.848   6.856  10.800
 6520W        W 7384  16.066   6.251   7.502
 6521W        W 7385  14.746   4.792   9.361
 6522W        W 7386  15.814   5.038  10.488
 6523W        W 7387  17.934   4.658   9.039
 6524W        W 7388  17.887   5.719   9.951
 6525W        W 7389  16.393   5.098   8.810
 6526W        W 7390  16.869   6.442   9.251
 6527W        W 7391  15.169   5.751   9.601
 6528W        W 7392  14.412   5.172   9.263
 6529W        W 7393  15.752   5.408  10.113
 6530W        W 7394  17.962   5.070  10.591
 6531W        W 7395  15.447   6.480   9.003
 6532W        W 7396  16.640   6.273   9.944
 6533W        W 7397  15.970   4.885   9.272
 6534W        W 7398  16.161   5.652   8.888
 6535W        W 7399  16.884   6.550  10.718
 6536W        W 7400  16.290   5.781  10.725
 6537W        W 7401  16.236   5.595  10.230
 6538W        W 7402  14.633   4.732  10.655
 6539W        W 7403  17.302   6.313  10.525
 6540W        W 7404  14.927   3.861   8.464
 6541W        W 7405  15.647   6.222   9.406
 6542W        W 7406  17.985   6.054   8.856
 6543W        W 7407  17.734   4.424   9.508
 6544W        W 7408  17.762   4.407   7.241
 6545W        W 7409  18.256   5.165   9.700
 6546W        W 7410  16.065   7.027   9.506
 6547W        W 7411  18.154   6.285   8.010
 6548W        W 7412  15.036   7.213   8.032
 6549W        W 7413  15.449   7.179   8.362
 6550W        W 7414  15.223   3.920   9.952
 6551W        W 7415  17.837   5.201   9.996
 6552W        W 7416  17.258   5.289   8.453
 6553W        W 7417  17.196   5.037   7.600
 6554W        W 7418  16.453   6.236   9.468
 6555W        W 7419  16.540   4.538   8.785
 6556W        W 7420  16.835   6.683   9.734
 6557W        W 7421  17.716   5.398   8.182
 6558W        W 7422  16.796   4.091   8.067
 6559W        W 7423  15.322   6.806   7.974
 6560W        W 7424  14.596   4.271   8.540
 6561W        W 7425  17.201   4.982   8.880
 6562W        W 7426  14.939   6.569   9.109
 6563W        W 7427  16.111   6.784   7.559
 6564W        W 7428  17.555   4.885   7.202
 6565W        W 7429  14.666   6.600   9.533
 6566W        W 7430  15.451   6.187   9.880
 6567W        W 7431  15.656   5.637   8.730
 6568W        W 7432  15.537   4.041   9.565
 6569W        W 7433  18.227   3.760   9.126
 6570W        W 7434  15.359   5.825   7.003
 6571W        W 7435  14.928   4.364   7.513
 6572W        W 7436  15.078   6.518   8.630
 6573W        W 7437  16.002   5.909   8.434
 6574W        W 7438  17.585   6.907  10.164
 6575W        W 7439  16.676   4.583   7.837
 6576W        W 7440  17.849   7.088   8.858
 6577W        W 7441  17.522   4.959  10.339
 6578W        W 7442  18.220   6.400   8.529
 6579W        W 7443  16.851   5.776  10.025
 6580W        W 7444  14.454   5.352   8.315
 6581W        W 7445  15.692   5.763   9.701
 6582W        W 7446  16.934   4.968   8.062
 6583W        W 7447  16.784   5.425   8.289
 6584W        W 7448  15.076   4.860   9.801
 6585W        W 7449  15.058   4.819  10.340
 6586W        W 7450  14.940   3.829   8.967
 6587W        W 7451  16.699   4.241   9.184
 6588W        W 7452  16.476   4.286  10.463
 6589W        W 7453  16.874   4.181   7.572
 6590W        W 7454  18.021   6.797  10.471
 6591W        W 7455  16.810   3.885  10.434
 6592W        W 7456  17.851   6.293  10.675
 6593W        W 7457  17.442   4.312  10.105
 6594W        W 7458  17.195   4.199   8.415
 6595W        W 7459  17.594   5.334  10.854
 6596W        W 7460  15.242   6.958   8.930
 6597W        W 7461  16.174   4.644   7.900
 6598W        W 7462  15.377   3.971  10.449
 6599W        W 7463  17.639   4.515   8.174
 6600W        W 7464  17.962   4.933   8.077
 6601W        W 7465  15.692   7.093  10.675
 6602W        W 7466  15.690   3.722   7.892
 6603W        W 7467  18.012   4.179   8.850
 6604W        W 7468  18.083   6.812   7.282
 6605W        W 7469  14.972   5.666   9.134
 6606W        W 7470  16.918   4.211   7.067
 6607W        W 7471  18.088   6.511   9.130
 6608W        W 7472  17.995   3.759   9.630
 6609W        W 7473  16.651   5.122  10.350
 6610W        W 7474  16.289   6.168   8.070
 6611W        W 7475  17.128   5.516  10.808
 6612W        W 7476  16.856   3.777   9.048
 6613W        W 7477  15.134   4.655   9.074
 6614W        W 7478  14.784   5.788   9.937
 6615W        W 7479  16.840   6.867   8.912
 6616W        W 7480  17.818   4.933   9.493
 6617W        W 7481  16.626   7.024  10.073
 6618W        W 7482  17.919   5.653   7.440
 6619W        W 7483  16.287   5.440   8.441
 6620W        W 7484  18.121   3.707  10.138
 6621W        W 7485  16.395   5.848   9.806
 6622W        W 7486  16.474   4.797   9.214
 6623W        W 7487  17.449   4.979   8.045
 6624W        W 7488  17.575   4.659   7.669
 6625W        W 7489  17.827   6.643   8.241
 6626W        W 7490  17.472   6.065   8.942
 6627W        W 7491  17.227   5.427   7.944
 6628W        W 7492  16.681   5.543   8.838
 6629W        W 7493  17.675   5.140   9.024
 6630W        W 7494  15.115   4.414   9.540
 6631W        W 7495  17.597   5.479  10.358
 6632W        W 7496  18.084   6.959   9.406
 6633W        W 7497  15.930   6.606   8.873
 6634W        W 7498  17.136   7.086   9.937
 6635W        W 7499  17.008   4.240   9.660
 6636W        W 7500  16.237   7.331   9.885
 6637W        W 7501  17.952   4.131   8.317
 6638W        W 7502  17.670   5.425   9.566
 6639W        W 7503  14.669   4.545   9.790
 6640W        W 7504  17.571   4.456   8.701
 6641W        W 7505  17.759   4.694   9.959
 6642W        W 7506  16.817   6.317   8.737
 6643W        W 7507  16.089   6.905   8.483
 6644W        W 7508  15.228   3.977   7.743
 6645W        W 7509  16.453   3.767   9.414
 6646W        W 7510  15.168   7.170   7.521
 6647W        W 7511  15.937   5.543   8.061
 6648W        W 7512  16.291   6.094  10.283
 6649W        W 7513  16.345   4.273   8.243
 6650W        W 7514  17.539   3.942   8.735
 6651W        W 7515  17.313   7.135   8.995
 6652W        W 7516  16.569   6.924   9.370
 6653W        W 7517  16.083   5.845   9.365
 6654W        W 7518  17.835   6.555   9.621
 6655W        W 7519  15.358   4.132   8.243
 6656W        W 7520  16.050   6.534   9.367
 6657W        W 7521  15.465   4.368   7.301
 6658W        W 7522  16.337   4.963   9.669
 6659W        W 7523  17.054   3.737   9.525
 6660W        W 7524  14.599   5.586   9.508
 6661W        W 7525  16.236   5.430   7.574
 6662W        W 7526  15.602   3.860   7.393
 6663W        W 7527  16.361   4.780   8.373
 6664W        W 7528  17.147   3.892  10.049
 6665W        W 7529  15.802   5.932  10.184
 6666W        W 7530  16.710   5.618  10.499
 6667W        W 7531  17.184   5.821  10.412
 6668W        W 7532  16.455   3.938  10.847
 6669W        W 7533  15.666   4.468   9.283
 6670W        W 7534  15.081   4.310   8.688
 6671W        W 7535  14.957   7.017   8.500
 6672W        W 7536  16.486   6.578  10.333
 6673W        W 7537  15.022   6.339   7.818
 6674W        W 7538  17.258   5.495   9.009
 6675W        W 7539  17.295   5.092   9.376
 6676W        W 7540  16.608   5.698   9.357
 6677W        W 7541  17.102   6.039   7.284
 6678W        W 7542  16.688   4.062   8.609
 6679W        W 7543  18.250   4.503   8.043
 6680W        W 7544  14.915   7.024  10.273
 6681W        W 7545  14.952   6.223   9.735
 6682W        W 7546  14.548   7.072   8.084
 6683W        W 7547  16.550   4.477   9.622
 6684W        W 7548  15.685   6.521   7.752
 6685W        W 7549  17.846   6.636   7.700
 6686W        W 7550  16.764   5.343   7.753
 6687W        W 7551  15.896   4.509   8.335
 6688W        W 7552  16.491   4.463   7.303
 6689W        W 7553  16.794   6.148  10.404
 6690W        W 7554  17.511   4.010   8.063
 6691W        W 7555  14.806   3.704   7.508
 6692W        W 7556  16.014   6.189   9.771
 6693W        W 7557  15.864   6.092   8.934
 6694W        W 7558  15.525   6.207   7.361
 6695W        W 7559  14.812   6.617   8.204
 6696W        W 7560  15.327   5.323  10.445
 6697W        W 7561  15.852   3.818  10.522
 6698W        W 7562  16.653   3.914   9.914
 6699W        W 7563  15.814   3.958   8.397
 6700W        W 7564  17.124   3.784   7.809
 6701W        W 7565  15.013   3.906   9.480
 6702W        W 7566  14.632   4.672   8.877
 6703W        W 7567  17.731   3.928   9.221
 6704W        W 7568  14.869   4.197   8.070
 6705W        W 7569  17.479   4.008   9.663
 6706W        W 7570  18.010   5.152   7.323
 6707W        W 7571  15.295   4.164   9.128
 6708W        W 7572  16.520   4.689  10.088
 6709W        W 7573  14.526   4.088   7.699
 6710W        W 7574  15.315   5.721  10.091
 6711W        W 7575  16.812   5.194   9.202
 6712W        W 7576  16.505   7.185   7.589
 6713W        W 7577  14.590   5.464   7.242
 6714W        W 7578  15.526   6.361  10.369
 6715W        W 7579  14.992   5.313  10.024
 6716W        W 7580  16.103   5.441   9.735
 6717W        W 7581  17.617   3.696  10.048
 6718W        W 7582  18.165   5.459  10.294
 6719W        W 7583  18.135   5.369   7.812
 6720W        W 7584  16.921   5.838   8.006
 6721W        W 7585  17.214   7.120   7.316
 6722W        W 7586  16.713   5.228  10.864
 6723W        W 7587  15.166   6.331  10.746
 6724W        W 7588  18.217   4.204  10.715
 6725W        W 7589  17.441   4.639   9.165
 6726W        W 7590  16.201   7.105  10.784
 6727W        W 7591  16.093   3.784   7.565
 6728W        W 7592  17.918   6.159   7.525
 6729W        W 7593  15.494   4.487  10.342
 6730W        W 7594  15.976   6.484  10.183
 6731W        W 7595  17.911   4.173   9.916
 6732W        W 7596  17.542   6.998   7.973
 6733W        W 7597  17.377   5.825   9.414
 6734W        W 7598  15.726   4.118  10.065
 6735W        W 7599  16.255   5.276  10.633
 6736W        W 7600  15.391   6.346   8.195
 6737W        W 7601  17.418   5.834   8.183
 6738W        W 7602  15.079   4.389  10.060
 6739W        W 7603  16.274   6.329   8.585
 6740W        W 7604  18.110   5.050   8.744
 6741W        W 7605  16.321   3.813  10.339
 6742W        W 7606  17.365   6.346   9.377
 6743W        W 7607  17.635   6.771   9.202
 6744W        W 7608  16.581   6.758   7.291
 6745W        W 7609  14.675   6.410  10.580
 6746W        W 7610  15.532   4.543   9.805
 6747W        W 7611  15.388   3.892   8.709
 6748W        W 7612  16.959   4.669   9.303
 6749W        W 7613  15.834   5.773   7.445
 6750W        W 7614  17.768   5.648   9.123
 6751W        W 7615  15.285   6.780  10.530
 6752W        W 7616  17.834   7.240   8.354
 6753W        W 7617  15.632   4.345   8.757
 6754W        W 7618  15.512   5.775   9.201
 6755W        W 7619  15.729   7.322   9.776
 6756W        W 7620  17.714   7.221  10.544
 6757W        W 7621  17.020   5.483   9.602
 6758W        W 7622  14.691   4.830   7.035
 6759W        W 7623  18.231   6.913   8.441
 6760W        W 7624  17.883   4.249   7.784
 6761W        W 7625  15.751   3.593  10.041
 6762W        W 7626  17.743   6.529   8.745
 6763W        W 7627  17.663   4.975   8.523
 6764W        W 7628  16.052   4.706   8.793
 6765W        W 7629  16.183   5.102  10.134
 6766W        W 7630  17.162   6.183  10.040
 6767W        W 7631  15.935   4.657  10.132
 6768W        W 7632  15.737   7.079   8.830
 6769W        W 7633  15.188   7.260  10.647
 6770W        W 7634  15.229   6.653   7.417
 6771W        W 7635  17.772   6.145   8.395
 6772W        W 7636  15.481   4.959  10.110
 6773W        W 7637  18.082   4.706   7.578
 6774W        W 7638  15.798   6.041   7.930
 6775W        W 7639  17.095   5.348  10.262
 6776W        W 7640  16.864   4.972   9.700
 6777W        W 7641  15.420   5.320   9.738
 6778W        W 7642  17.582   7.044   9.647
 6779W        W 7643  17.320   3.987  10.554
 6780W        W 7644  14.880   3.919  10.356
 6781W        W 7645  15.433   4.912   9.422
 6782W        W 7646  15.822   4.732   7.185
 6783W        W 7647  14.703   6.531  10.087
 6784W        W 7648  16.287   5.306   9.267
 6785W        W 7649  15.994   4.295   7.405
 6786W        W 7650  15.354   5.299   9.055
 6787W        W 7651  14.919   7.318   9.867
 6788W        W 7652  17.640   5.282   7.663
 6789W        W 7653  17.833   4.060  10.401
 6790W        W 7654  17.287   6.259   8.494
 6791W        W 7655  14.789   5.217  10.487
 6792W        W 7656  17.897   3.731   7.855
 6793W        W 7657  17.594   6.256   7.928
 6794W        W 7658  16.382   5.140   8.014
 6795W        W 7659  17.412   4.156   7.567
 6796W        W 7660  17.308   4.662   9.700
 6797W        W 7661  14.848   5.161   8.970
 6798W        W 7662  15.326   6.044   8.764
 6799W        W 7663  17.235   4.728   8.424
 6800W        W 7664  16.183   4.374   9.188
 6801W        W 7665  18.126   6.157   9.783
 6802W        W 7666  18.161   4.195   9.390
 6803W        W 7667  14.704   6.996   8.952
 6804W        W 7668  14.969   6.101   8.359
 6805W        W 7669  14.982   3.993  10.937
 6806W        W 7670  16.081   6.627  10.665
 6807W        W 7671  18.128   5.559   8.782
 6808W        W 7672  17.469   5.826   7.642
 6809W        W 7673  16.730   7.322   9.665
 6810W        W 7674  17.480   5.902  10.824
 6811W        W 7675  16.206   3.810   8.071
 6812W        W 7676  17.048   4.465   8.832
 6813W        W 7677  14.613   6.085   9.327
 6814W        W 7678  15.891   4.193   7.916
 6815W        W 7679  15.829   5.581  10.589
 6816W        W 7680  16.793   4.515   8.338
 6817W        W 7681  16.941   6.044   9.588
 6818W        W 7682  15.210   6.621  10.035
 6819W        W 7683  15.622   6.600  10.872
 6820W        W 7684  15.705   4.627   7.684
 6821W        W 7685  17.170   4.466   7.945
 6822W        W 7686  16.996   6.647  10.222
 6823W        W 7687  15.905   5.214   8.872
 6824W        W 7688  15.327   7.022   9.740
 6825W        W 7689  17.727   7.108   7.500
 6826W        W 7690  14.874   5.713  10.436
 6827W        W 7691  16.979   5.946   9.076
 6828W        W 7692  15.460   5.842   8.296
 6829W        W 7693  15.718   6.634   9.753
 6830W        W 7694  16.144   4.202   8.709
 6831W        W 7695  14.619   5.864   7.640
 6832W        W 7696  16.229   4.916   7.441
 6833W        W 7697  14.999   5.645   8.620
 6834W        W 7698  16.240   4.230  10.014
 6835W        W 7699  17.872   3.918   7.377
 6836W        W 7700  17.931   5.754  10.649
 6837W        W 7701  16.659   6.997  10.584
 6838W        W 7702  18.153   6.064  10.299
 6839W        W 7703  17.563   6.725  10.683
 6840W        W 7704  15.368   7.307   9.307
 6841W        W 7705  18.179   5.863   8.379
 6842W        W 7706  16.809   4.984   8.562
 6843W        W 7707  16.253   3.716   8.586
 6844W        W 7708  15.544   6.711   8.530
 6845W        W 7709  16.031   4.532   9.649
 6846W        W 7710  15.813   3.982   9.084
 6847W        W 7711  14.857   6.830   7.733
 6848W        W 7712  16.555   5.893   8.471
 6849W        W 7713  15.637   6.914  10.176
 6850W        W 7714  14.796   5.685   8.097
 6851W        W 7715  14.773   4.279   9.171
 6852W        W 7716  16.462   6.042   8.990
 6853W        W 7717  14.471   3.880   8.187
 6854W        W 7718  17.349   5.150   9.875
 6855W        W 7719  17.147   4.575   7.373
 6856W        W 7720  17.835   6.106   9.344
 6857W        W 7721  16.428   6.564   9.020
 6858W        W 7722  15.823   6.957   8.025
 6859W        W 7723  16.964   3.737   7.311
 6860W        W 7724  14.920   7.038   9.412
 6861W        W 7725  16.766   4.680  10.562
 6862W        W 7726  15.039   4.368  10.584
 6863W        W 7727  14.645   4.828   8.383
 6864W        W 7728  15.909   5.087   7.816
 6865W        W 7729  17.133   5.019  10.665
 6866W        W 7730  15.772   5.359   9.355
 6867W        W 7731  17.094   3.709   8.587
 6868W        W 7732  16.227   7.055   8.998
 6869W        W 7733  17.351   6.607   9.821
 6870W        W 7734  17.257   6.569   8.917
 6871W        W 7735  17.082   5.777   8.583
 6872W        W 7736  16.378   4.183   7.732
 6873W        W 7737  18.251   3.787   8.603
 6874W        W 7738  15.782   5.239   7.327
 6875W        W 7739  18.023   4.604   8.511
 6876W        W 7740  16.661   5.803   7.530
 6877W        W 7741  17.636   5.996  10.295
 6878W        W 7742  17.474   6.377   7.406
 6879W        W 7743  15.965   4.314  10.508
 6880W        W 7744  15.830   5.004   9.751
 6881W        W 7745  17.808   6.449  10.138
 6882W        W 7746  16.909   4.331  10.180
 6883W        W 7747  14.581   4.868  10.173
 6884W        W 7748  16.588   5.362   9.895
 6885W        W 7749  14.817   6.095   8.860
 6886W        W 7750  15.004   5.251   9.455
 6887W        W 7751  17.364   5.683   9.935
 6888W        W 7752  17.209   7.045  10.490
 6889W        W 7753  17.055   4.826  10.158
 6890W        W 7754  17.456   6.935   8.534
 6891W        W 7755  16.306   6.667   9.817
 6892W        W 7756  15.632   6.863   9.290
 6893W        W 7757  17.598   6.123   9.791
 6894W        W 7758  16.438   6.265  10.759
 6895W        W 7759  15.148   6.133   9.260
 6896W        W 7760  17.628   5.668   8.627
 6897W        W 7761  17.154   6.851   9.385
 6898W        W 7762  15.257   6.572   9.509
 6899W        W 7763  16.262   4.762  10.530
 6900W        W 7764  16.291   6.713   8.040
 6901W        W 7765  15.901   6.131  10.652
 6902W        W 7766  15.892   6.457   8.251
 6903W        W 7767  15.356   4.977   7.073
 6904W        W 7768  14.659   7.333  14.359
 6905W        W 7769  15.161   6.148  13.918
 6906W        W 7770  17.763   5.858  11.650
 6907W        W 7771  17.884   6.998  13.609
 6908W        W 7772  15.536   7.014  11.177
 6909W        W 7773  15.935   5.237  12.252
 6910W        W 7774  15.576   5.059  12.601
 6911W        W 7775  16.521   5.559  11.644
 6912W        W 7776  16.175   7.029  14.060
 6913W        W 7777  14.647   4.355  13.759
 6914W        W 7778  17.244   3.977  12.666
 6915W        W 7779  16.819   4.749  11.057
 6916W        W 7780  17.315   4.547  14.236
 6917W        W 7781  14.664   4.125  13.298
 6918W        W 7782  14.862   6.875  14.514
 6919W        W 7783  16.039   6.329  11.110
 6920W        W 7784  14.661   4.846  12.919
 6921W        W 7785  15.792   4.879  14.034
 6922W        W 7786  18.053   4.525  12.808
 6923W        W 7787  17.898   5.774  13.598
 6924W        W 7788  16.312   5.354  12.637
 6925W        W 7789  16.878   6.557  12.931
 6926W        W 7790  15.111   5.763  13.154
 6927W        W 7791  14.384   5.280  12.855
 6928W        W 7792  15.730   5.368  13.846
 6929W        W 7793  17.936   5.220  14.338
 6930W        W 7794  15.498   6.533  12.623
 6931W        W 7795  16.645   6.355  13.676
 6932W        W 7796  15.977   5.091  12.910
 6933W        W 7797  16.179   5.860  12.495
 6934W        W 7798  16.882   6.604  14.428
 6935W        W 7799  16.274   5.776  14.396
 6936W        W 7800  16.171   5.637  13.903
 6937W        W 7801  14.060   4.653  14.327
 6938W        W 7802  17.326   6.374  14.264
 6939W        W 7803  15.016   3.868  12.050
 6940W        W 7804  15.631   6.199  13.186
 6941W        W 7805  18.004   6.053  12.543
 6942W        W 7806  17.591   4.302  12.940
 6943W        W 7807  17.646   4.300  10.814
 6944W        W 7808  18.072   5.269  13.480
 6945W        W 7809  16.182   6.991  13.105
 6946W        W 7810  17.970   6.387  11.614
 6947W        W 7811  14.988   7.161  11.652
 6948W        W 7812  15.365   7.160  12.012
 6949W        W 7813  15.399   4.012  13.347
 6950W        W 7814  17.732   4.874  13.661
 6951W        W 7815  17.253   5.372  12.213
 6952W        W 7816  17.162   5.135  11.172
 6953W        W 7817  16.467   6.375  13.203
 6954W        W 7818  16.366   4.433  12.326
 6955W        W 7819  16.821   6.753  13.412
 6956W        W 7820  17.678   5.414  11.944
 6957W        W 7821  17.002   4.265  11.782
 6958W        W 7822  15.265   6.735  11.723
 6959W        W 7823  14.658   4.205  12.236
 6960W        W 7824  17.207   4.980  12.525
 6961W        W 7825  14.961   6.561  12.715
 6962W        W 7826  16.006   6.840  11.177
 6963W        W 7827  17.571   4.819  10.854
 6964W        W 7828  14.746   6.593  13.236
 6965W        W 7829  15.510   6.409  13.633
 6966W        W 7830  15.754   5.765  12.216
 6967W        W 7831  15.882   4.115  13.167
 6968W        W 7832  18.166   3.678  12.875
 6969W        W 7833  15.413   5.896  10.567
 6970W        W 7834  14.875   4.502  11.058
 6971W        W 7835  15.143   6.569  12.224
 6972W        W 7836  15.855   6.278  12.280
 6973W        W 7837  17.524   6.835  13.942
 6974W        W 7838  16.476   4.653  11.448
 6975W        W 7839  17.755   7.159  12.462
 6976W        W 7840  17.514   4.995  14.120
 6977W        W 7841  18.213   6.486  12.325
 6978W        W 7842  16.866   5.869  13.644
 6979W        W 7843  14.463   5.420  11.959
 6980W        W 7844  15.430   5.899  13.543
 6981W        W 7845  16.858   5.092  11.960
 6982W        W 7846  16.846   5.608  12.048
 6983W        W 7847  15.010   4.841  13.338
 6984W        W 7848  15.053   4.736  13.898
 6985W        W 7849  14.894   3.756  12.527
 6986W        W 7850  16.708   4.320  12.755
 6987W        W 7851  16.494   4.300  14.016
 6988W        W 7852  16.805   4.278  11.298
 6989W        W 7853  18.073   6.915  14.104
 6990W        W 7854  16.825   3.883  14.003
 6991W        W 7855  17.843   6.271  14.343
 6992W        W 7856  17.450   4.423  13.714
 6993W        W 7857  17.352   4.167  12.179
 6994W        W 7858  17.496   5.487  14.268
 6995W        W 7859  15.234   6.982  12.518
 6996W        W 7860  16.003   4.465  11.336
 6997W        W 7861  15.426   3.861  13.986
 6998W        W 7862  17.599   4.527  11.852
 6999W        W 7863  17.856   4.971  11.725
 7000W        W 7864  15.698   7.090  14.246
 7001W        W 7865  15.450   3.668  11.555
 7002W        W 7866  17.923   4.082  12.601
 7003W        W 7867  18.109   6.524  11.099
 7004W        W 7868  14.764   5.662  12.773
 7005W        W 7869  16.896   4.243  10.791
 7006W        W 7870  18.036   6.556  12.808
 7007W        W 7871  18.047   3.714  13.481
 7008W        W 7872  16.629   5.151  14.018
 7009W        W 7873  16.475   6.323  11.768
 7010W        W 7874  17.126   5.573  14.659
 7011W        W 7875  16.742   3.799  12.599
 7012W        W 7876  15.133   4.832  12.739
 7013W        W 7877  14.944   5.760  13.654
 7014W        W 7878  16.809   6.939  12.472
 7015W        W 7879  17.920   4.826  13.196
 7016W        W 7880  16.661   7.029  13.820
 7017W        W 7881  17.832   5.665  11.161
 7018W        W 7882  16.369   5.507  12.155
 7019W        W 7883  18.472   3.714  13.813
 7020W        W 7884  16.379   5.933  13.514
 7021W        W 7885  16.435   4.852  12.792
 7022W        W 7886  17.340   5.041  11.799
 7023W        W 7887  17.513   4.805  11.379
 7024W        W 7888  17.654   6.713  11.860
 7025W        W 7889  17.501   6.190  12.603
 7026W        W 7890  17.057   5.427  11.610
 7027W        W 7891  16.695   5.711  12.597
 7028W        W 7892  17.612   5.290  12.584
 7029W        W 7893  15.118   4.412  13.033
 7030W        W 7894  17.688   5.367  13.816
 7031W        W 7895  18.091   7.009  13.090
 7032W        W 7896  15.969   6.714  12.538
 7033W        W 7897  17.181   7.103  13.651
 7034W        W 7898  16.988   4.553  13.432
 7035W        W 7899  16.268   7.274  13.558
 7036W        W 7900  17.852   4.077  12.055
 7037W        W 7901  17.630   5.474  13.272
 7038W        W 7902  14.506   4.609  13.337
 7039W        W 7903  17.213   4.477  12.601
 7040W        W 7904  17.821   4.573  14.063
 7041W        W 7905  16.845   6.414  12.429
 7042W        W 7906  16.097   6.972  12.098
 7043W        W 7907  15.059   3.993  11.459
 7044W        W 7908  16.243   3.739  13.070
 7045W        W 7909  15.060   7.188  11.142
 7046W        W 7910  16.010   5.495  11.781
 7047W        W 7911  16.291   6.134  13.986
 7048W        W 7912  16.455   4.148  11.892
 7049W        W 7913  17.628   3.741  12.383
 7050W        W 7914  17.239   7.206  12.637
 7051W        W 7915  16.678   7.036  12.968
 7052W        W 7916  16.116   5.996  13.056
 7053W        W 7917  17.843   6.598  13.299
 7054W        W 7918  15.460   4.055  11.895
 7055W        W 7919  15.997   6.506  13.013
 7056W        W 7920  15.514   4.296  10.831
 7057W        W 7921  16.338   5.010  13.288
 7058W        W 7922  17.182   3.719  13.129
 7059W        W 7923  14.636   5.650  13.277
 7060W        W 7924  16.317   5.433  11.154
 7061W        W 7925  15.526   3.780  10.950
 7062W        W 7926  16.376   4.965  12.278
 7063W        W 7927  17.157   3.947  13.606
 7064W        W 7928  15.768   6.027  13.903
 7065W        W 7929  16.652   5.678  14.068
 7066W        W 7930  17.145   5.816  14.124
 7067W        W 7931  16.479   3.913  14.390
 7068W        W 7932  15.586   4.577  12.805
 7069W        W 7933  15.099   4.247  12.527
 7070W        W 7934  14.865   7.001  12.140
 7071W        W 7935  16.480   6.614  14.092
 7072W        W 7936  15.841   6.071  11.536
 7073W        W 7937  17.188   5.584  12.713
 7074W        W 7938  17.295   5.164  13.003
 7075W        W 7939  16.675   5.833  13.113
 7076W        W 7940  16.961   6.007  10.863
 7077W        W 7941  16.839   4.201  12.268
 7078W        W 7942  18.079   4.382  11.701
 7079W        W 7943  14.850   7.049  13.954
 7080W        W 7944  15.066   6.221  13.390
 7081W        W 7945  14.504   7.078  11.763
 7082W        W 7946  16.529   4.534  13.196
 7083W        W 7947  15.645   6.544  11.410
 7084W        W 7948  17.979   6.894  11.476
 7085W        W 7949  16.684   5.131  11.385
 7086W        W 7950  16.152   4.595  11.855
 7087W        W 7951  16.393   4.432  10.959
 7088W        W 7952  16.811   6.193  14.114
 7089W        W 7953  17.461   4.037  11.678
 7090W        W 7954  14.650   3.727  11.261
 7091W        W 7955  16.023   6.293  13.505
 7092W        W 7956  15.729   6.034  12.708
 7093W        W 7957  15.546   6.136  11.062
 7094W        W 7958  14.724   6.613  11.825
 7095W        W 7959  15.326   5.145  14.085
 7096W        W 7960  15.979   3.867  14.142
 7097W        W 7961  16.689   4.144  13.536
 7098W        W 7962  15.841   3.770  12.103
 7099W        W 7963  16.737   3.834  11.591
 7100W        W 7964  15.028   3.897  13.008
 7101W        W 7965  14.723   4.681  12.437
 7102W        W 7966  17.662   3.775  12.918
 7103W        W 7967  14.965   4.344  11.842
 7104W        W 7968  17.622   4.012  13.398
 7105W        W 7969  17.906   5.088  11.183
 7106W        W 7970  15.484   4.086  12.844
 7107W        W 7971  16.549   4.712  13.695
 7108W        W 7972  14.506   4.214  11.285
 7109W        W 7973  15.330   5.656  13.985
 7110W        W 7974  16.716   5.289  12.963
 7111W        W 7975  16.424   7.189  11.244
 7112W        W 7976  14.596   5.449  10.897
 7113W        W 7977  15.533   6.442  14.156
 7114W        W 7978  14.983   5.233  13.692
 7115W        W 7979  15.910   5.739  13.483
 7116W        W 7980  17.572   3.647  13.778
 7117W        W 7981  18.164   5.501  13.947
 7118W        W 7982  18.047   5.434  11.580
 7119W        W 7983  16.885   5.938  11.640
 7120W        W 7984  17.432   7.140  10.970
 7121W        W 7985  16.642   5.398  14.512
 7122W        W 7986  15.065   6.380  14.570
 7123W        W 7987  18.304   4.039  14.195
 7124W        W 7988  17.607   4.806  12.782
 7125W        W 7989  16.093   7.142  14.589
 7126W        W 7990  15.919   3.725  11.346
 7127W        W 7991  17.727   6.163  11.205
 7128W        W 7992  15.519   4.445  13.830
 7129W        W 7993  15.967   6.568  13.932
 7130W        W 7994  17.947   4.430  13.527
 7131W        W 7995  17.504   7.111  11.493
 7132W        W 7996  17.352   5.907  13.146
 7133W        W 7997  15.808   4.013  13.672
 7134W        W 7998  16.184   5.271  14.271
 7135W        W 7999  15.494   6.293  11.881
 7136W        W 8000  17.318   5.788  11.882
 7137W        W 8001  15.098   4.378  13.536
 7138W        W 8002  16.335   6.478  12.255
 7139W        W 8003  18.026   4.973  12.546
 7140W        W 8004  16.353   3.859  13.805
 7141W        W 8005  17.390   6.435  13.041
 7142W        W 8006  17.637   6.887  12.884
 7143W        W 8007  16.475   6.720  11.002
 7144W        W 8008  14.730   6.209  14.212
 7145W        W 8009  15.554   4.509  13.314
 7146W        W 8010  15.408   3.829  12.405
 7147W        W 8011  16.937   4.786  12.948
 7148W        W 8012  15.922   5.781  11.078
 7149W        W 8013  17.693   5.721  12.824
 7150W        W 8014  15.051   6.614  14.102
 7151W        W 8015  17.732   7.257  11.947
 7152W        W 8016  15.797   4.218  12.411
 7153W        W 8017  15.286   5.685  12.661
 7154W        W 8018  15.797   7.319  13.297
 7155W        W 8019  17.712   7.248  14.214
 7156W        W 8020  17.044   5.517  13.295
 7157W        W 8021  14.970   5.015  10.917
 7158W        W 8022  18.052   6.916  12.116
 7159W        W 8023  17.714   4.325  11.325
 7160W        W 8024  15.774   3.512  13.824
 7161W        W 8025  17.720   6.636  12.401
 7162W        W 8026  17.626   4.951  12.205
 7163W        W 8027  15.996   4.724  12.539
 7164W        W 8028  16.188   5.132  13.770
 7165W        W 8029  17.204   6.221  13.788
 7166W        W 8030  15.942   4.731  13.577
 7167W        W 8031  15.715   7.138  12.444
 7168W        W 8032  15.196   7.226  14.284
 7169W        W 8033  15.177   6.653  11.168
 7170W        W 8034  17.791   6.214  12.083
 7171W        W 8035  15.457   4.930  13.628
 7172W        W 8036  18.019   4.608  10.998
 7173W        W 8037  16.144   5.976  11.962
 7174W        W 8038  17.023   5.403  13.816
 7175W        W 8039  16.841   5.045  13.411
 7176W        W 8040  15.377   5.404  13.435
 7177W        W 8041  17.536   7.238  13.269
 7178W        W 8042  17.331   4.046  14.076
 7179W        W 8043  14.998   3.892  13.658
 7180W        W 8044  15.474   4.992  13.111
 7181W        W 8045  15.894   4.673  10.876
 7182W        W 8046  14.715   6.405  13.733
 7183W        W 8047  16.244   5.503  13.138
 7184W        W 8048  15.972   4.081  10.972
 7185W        W 8049  15.399   5.393  12.256
 7186W        W 8050  14.843   7.168  13.448
 7187W        W 8051  17.547   5.350  11.446
 7188W        W 8052  17.848   4.081  13.899
 7189W        W 8053  17.311   6.409  12.159
 7190W        W 8054  14.797   5.123  14.168
 7191W        W 8055  17.941   3.908  11.541
 7192W        W 8056  17.450   6.262  11.658
 7193W        W 8057  16.372   5.084  11.792
 7194W        W 8058  17.372   3.962  11.115
 7195W        W 8059  17.431   4.701  13.253
 7196W        W 8060  14.794   5.196  12.537
 7197W        W 8061  15.371   6.105  12.345
 7198W        W 8062  17.167   4.658  12.102
 7199W        W 8063  16.186   4.244  12.772
 7200W        W 8064  18.155   6.199  13.459
 7201W        W 8065  18.052   4.107  13.127
 7202W        W 8066  14.611   6.959  12.581
 7203W        W 8067  14.967   6.172  11.974
 7204W        W 8068  14.955   3.712  14.136
 7205W        W 8069  15.909   6.679  14.448
 7206W        W 8070  18.068   5.533  12.533
 7207W        W 8071  17.322   5.804  11.327
 7208W        W 8072  16.774   7.285  13.392
 7209W        W 8073  17.484   5.934  14.510
 7210W        W 8074  16.242   3.686  11.741
 7211W        W 8075  16.785   4.715  12.436
 7212W        W 8076  14.745   6.132  12.974
 7213W        W 8077  15.952   4.112  11.721
 7214W        W 8078  15.793   5.651  14.277
 7215W        W 8079  16.661   4.625  11.939
 7216W        W 8080  16.992   6.242  13.315
 7217W        W 8081  15.082   6.726  13.593
 7218W        W 8082  15.369   6.789  14.487
 7219W        W 8083  15.579   4.126  11.341
 7220W        W 8084  17.004   4.739  11.545
 7221W        W 8085  17.009   6.672  13.927
 7222W        W 8086  15.816   5.519  12.661
 7223W        W 8087  15.355   7.069  13.326
 7224W        W 8088  17.926   6.990  10.962
 7225W        W 8089  14.813   5.668  14.146
 7226W        W 8090  17.021   6.086  12.808
 7227W        W 8091  15.318   5.796  11.936
 7228W        W 8092  15.803   6.793  13.432
 7229W        W 8093  16.269   3.919  12.364
 7230W        W 8094  14.550   6.143  11.629
 7231W        W 8095  16.332   4.930  11.016
 7232W        W 8096  14.912   5.626  12.262
 7233W        W 8097  16.211   4.304  13.536
 7234W        W 8098  17.872   3.877  10.980
 7235W        W 8099  17.940   5.757  14.331
 7236W        W 8100  16.656   7.081  14.330
 7237W        W 8101  18.165   6.029  13.961
 7238W        W 8102  17.649   6.753  14.433
 7239W        W 8103  15.398   7.334  12.879
 7240W        W 8104  18.043   5.756  12.074
 7241W        W 8105  16.782   5.242  12.442
 7242W        W 8106  16.621   3.663  12.095
 7243W        W 8107  15.624   6.732  12.136
 7244W        W 8108  16.026   4.617  13.087
 7245W        W 8109  15.888   3.798  12.704
 7246W        W 8110  14.708   6.827  11.330
 7247W        W 8111  16.592   6.024  12.203
 7248W        W 8112  15.490   6.870  13.852
 7249W        W 8113  14.829   5.720  11.754
 7250W        W 8114  14.664   4.324  12.803
 7251W        W 8115  16.509   6.163  12.735
 7252W        W 8116  14.612   3.968  11.746
 7253W        W 8117  17.332   5.139  13.518
 7254W        W 8118  17.249   4.476  11.093
 7255W        W 8119  17.824   6.153  13.036
 7256W        W 8120  16.423   6.656  12.746
 7257W        W 8121  15.776   6.991  11.674
 7258W        W 8122  16.942   3.728  10.904
 7259W        W 8123  14.971   7.009  12.969
 7260W        W 8124  16.800   4.751  14.327
 7261W        W 8125  15.084   4.241  14.046
 7262W        W 8126  14.646   4.915  11.984
 7263W        W 8127  16.040   4.983  11.424
 7264W        W 8128  17.062   5.201  14.288
 7265W        W 8129  15.613   5.691  13.082
 7266W        W 8130  17.127   3.701  12.238
 7267W        W 8131  16.314   7.120  12.582
 7268W        W 8132  17.340   6.638  13.501
 7269W        W 8133  17.252   6.681  12.609
 7270W        W 8134  17.107   5.948  12.329
 7271W        W 8135  16.332   4.075  11.363
 7272W        W 8136  18.243   3.756  12.390
 7273W        W 8137  15.875   5.209  10.974
 7274W        W 8138  17.695   4.481  12.393
 7275W        W 8139  16.813   5.620  11.201
 7276W        W 8140  17.624   5.980  13.993
 7277W        W 8141  17.601   6.664  11.218
 7278W        W 8142  15.997   4.386  14.004
 7279W        W 8143  15.859   5.221  13.380
 7280W        W 8144  17.851   6.450  13.856
 7281W        W 8145  16.973   4.372  13.901
 7282W        W 8146  14.601   4.893  13.746
 7283W        W 8147  16.556   5.448  13.562
 7284W        W 8148  14.892   6.085  12.486
 7285W        W 8149  15.013   5.268  13.027
 7286W        W 8150  17.367   5.735  13.636
 7287W        W 8151  17.200   7.031  14.286
 7288W        W 8152  17.059   4.873  13.870
 7289W        W 8153  17.351   6.976  12.189
 7290W        W 8154  16.308   6.741  13.568
 7291W        W 8155  15.685   6.918  12.932
 7292W        W 8156  17.608   6.183  13.492
 7293W        W 8157  16.469   6.237  14.483
 7294W        W 8158  15.244   6.156  12.862
 7295W        W 8159  17.596   5.760  12.326
 7296W        W 8160  17.168   6.946  13.091
 7297W        W 8161  15.301   6.604  13.122
 7298W        W 8162  16.299   4.779  14.147
 7299W        W 8163  16.290   6.834  11.612
 7300W        W 8164  15.936   6.176  14.359
 7301W        W 8165  15.975   6.497  11.830
 7302W        W 8166  15.408   4.817  10.721
 7303W        W 8167  14.599   7.341  18.006
 7304W        W 8168  15.138   6.310  17.684
 7305W        W 8169  17.876   5.846  15.383
 7306W        W 8170  17.996   7.066  17.285
 7307W        W 8171  15.669   6.906  14.878
 7308W        W 8172  16.001   5.264  15.911
 7309W        W 8173  15.270   5.191  16.339
 7310W        W 8174  16.485   5.780  15.371
 7311W        W 8175  15.938   6.957  17.483
 7312W        W 8176  14.700   4.512  17.544
 7313W        W 8177  15.266   3.530  17.475
 7314W        W 8178  17.273   4.043  16.312
 7315W        W 8179  16.917   5.038  14.781
 7316W        W 8180  17.361   4.402  17.804
 7317W        W 8181  14.632   4.111  17.260
 7318W        W 8182  14.834   6.959  18.268
 7319W        W 8183  16.096   6.364  14.817
 7320W        W 8184  14.809   4.916  16.649
 7321W        W 8185  15.826   4.879  17.712
 7322W        W 8186  17.999   4.584  16.361
 7323W        W 8187  17.882   5.741  17.096
 7324W        W 8188  16.374   5.131  16.254
 7325W        W 8189  16.892   6.456  16.687
 7326W        W 8190  15.223   5.788  17.013
 7327W        W 8191  14.372   5.212  16.578
 7328W        W 8192  15.860   5.385  17.599
 7329W        W 8193  17.938   5.097  17.791
 7330W        W 8194  15.527   6.477  16.343
 7331W        W 8195  16.585   6.331  17.350
 7332W        W 8196  16.197   4.749  16.568
 7333W        W 8197  16.128   5.601  16.301
 7334W        W 8198  16.995   6.538  18.082
 7335W        W 8199  16.328   5.700  18.146
 7336W        W 8200  16.381   5.529  17.597
 7337W        W 8201  14.768   4.811  17.960
 7338W        W 8202  17.393   6.531  17.729
 7339W        W 8203  15.265   3.718  15.972
 7340W        W 8204  15.547   6.203  16.806
 7341W        W 8205  18.082   6.096  16.222
 7342W        W 8206  17.636   4.316  16.624
 7343W        W 8207  17.914   4.269  14.475
 7344W        W 8208  18.283   5.071  17.019
 7345W        W 8209  16.186   6.934  16.728
 7346W        W 8210  17.930   6.386  15.179
 7347W        W 8211  14.977   7.081  15.319
 7348W        W 8212  15.346   7.127  15.726
 7349W        W 8213  15.245   3.846  17.037
 7350W        W 8214  17.869   5.126  17.292
 7351W        W 8215  17.281   5.368  15.919
 7352W        W 8216  17.420   5.132  14.644
 7353W        W 8217  16.432   6.265  16.858
 7354W        W 8218  16.475   4.454  16.235
 7355W        W 8219  16.788   6.725  17.123
 7356W        W 8220  17.763   5.408  15.752
 7357W        W 8221  16.883   3.975  15.521
 7358W        W 8222  15.392   6.708  15.458
 7359W        W 8223  14.481   4.304  15.917
 7360W        W 8224  17.178   5.005  16.286
 7361W        W 8225  14.888   6.562  16.355
 7362W        W 8226  16.152   6.832  15.039
 7363W        W 8227  17.716   4.741  14.544
 7364W        W 8228  14.700   6.603  16.877
 7365W        W 8229  15.464   6.198  17.309
 7366W        W 8230  15.936   5.831  15.863
 7367W        W 8231  15.675   4.101  16.729
 7368W        W 8232  18.136   3.626  16.374
 7369W        W 8233  15.418   6.002  14.371
 7370W        W 8234  14.556   4.621  14.173
 7371W        W 8235  15.196   6.556  15.932
 7372W        W 8236  15.948   6.293  16.086
 7373W        W 8237  17.605   6.980  17.599
 7374W        W 8238  16.633   4.842  15.221
 7375W        W 8239  17.807   7.053  16.277
 7376W        W 8240  17.469   5.113  17.615
 7377W        W 8241  18.340   6.487  15.991
 7378W        W 8242  16.854   5.761  17.421
 7379W        W 8243  14.604   5.397  15.767
 7380W        W 8244  15.715   5.807  17.074
 7381W        W 8245  16.924   5.175  15.526
 7382W        W 8246  16.888   5.665  15.690
 7383W        W 8247  15.076   4.898  17.084
 7384W        W 8248  15.155   4.748  17.557
 7385W        W 8249  14.940   3.734  16.361
 7386W        W 8250  16.748   4.168  16.593
 7387W        W 8251  16.478   4.222  17.778
 7388W        W 8252  16.792   4.014  14.837
 7389W        W 8253  18.086   6.939  17.831
 7390W        W 8254  16.914   3.745  17.683
 7391W        W 8255  17.787   6.310  18.008
 7392W        W 8256  17.379   4.371  17.281
 7393W        W 8257  17.266   4.258  15.808
 7394W        W 8258  17.605   5.311  18.105
 7395W        W 8259  15.271   6.965  16.228
 7396W        W 8260  16.245   4.565  14.970
 7397W        W 8261  15.446   3.946  17.725
 7398W        W 8262  17.531   4.583  15.502
 7399W        W 8263  17.918   4.956  15.492
 7400W        W 8264  15.635   7.084  17.919
 7401W        W 8265  15.826   3.677  14.940
 7402W        W 8266  17.944   4.097  16.221
 7403W        W 8267  18.084   6.542  14.690
 7404W        W 8268  14.805   5.675  16.515
 7405W        W 8269  16.900   4.256  14.393
 7406W        W 8270  18.174   6.546  16.520
 7407W        W 8271  18.003   3.795  16.962
 7408W        W 8272  16.653   5.092  17.716
 7409W        W 8273  16.296   6.269  15.286
 7410W        W 8274  17.167   5.478  18.299
 7411W        W 8275  16.836   3.726  16.335
 7412W        W 8276  15.193   4.617  16.462
 7413W        W 8277  14.978   5.868  17.481
 7414W        W 8278  16.875   6.823  16.206
 7415W        W 8279  17.884   4.717  16.907
 7416W        W 8280  16.480   6.964  17.520
 7417W        W 8281  17.934   6.005  14.811
 7418W        W 8282  16.399   5.582  15.857
 7419W        W 8283  18.095   3.773  17.478
 7420W        W 8284  16.402   5.875  17.198
 7421W        W 8285  16.716   4.691  16.636
 7422W        W 8286  17.431   5.100  15.513
 7423W        W 8287  17.611   4.890  15.063
 7424W        W 8288  17.609   6.698  15.464
 7425W        W 8289  17.565   6.076  16.361
 7426W        W 8290  17.238   5.307  15.095
 7427W        W 8291  16.724   5.778  16.198
 7428W        W 8292  17.651   5.417  16.295
 7429W        W 8293  14.870   4.412  16.856
 7430W        W 8294  17.735   5.566  17.587
 7431W        W 8295  18.096   7.023  16.727
 7432W        W 8296  16.015   6.754  16.270
 7433W        W 8297  17.201   7.072  17.285
 7434W        W 8298  16.918   4.409  17.048
 7435W        W 8299  16.215   7.262  17.165
 7436W        W 8300  17.851   4.056  15.695
 7437W        W 8301  17.822   5.295  16.814
 7438W        W 8302  14.574   4.734  17.087
 7439W        W 8303  17.506   4.522  16.177
 7440W        W 8304  17.732   4.667  17.505
 7441W        W 8305  16.814   6.292  16.190
 7442W        W 8306  16.145   7.012  15.840
 7443W        W 8307  15.203   3.977  14.487
 7444W        W 8308  16.400   3.761  16.724
 7445W        W 8309  15.194   7.161  14.811
 7446W        W 8310  16.059   5.506  15.446
 7447W        W 8311  16.423   6.019  17.712
 7448W        W 8312  16.399   4.137  15.739
 7449W        W 8313  17.636   3.729  16.038
 7450W        W 8314  17.302   7.084  16.387
 7451W        W 8315  16.719   6.961  16.686
 7452W        W 8316  16.115   5.856  16.770
 7453W        W 8317  18.017   6.603  17.030
 7454W        W 8318  15.680   3.953  15.746
 7455W        W 8319  15.984   6.400  16.632
 7456W        W 8320  15.618   4.213  14.298
 7457W        W 8321  16.429   4.916  16.989
 7458W        W 8322  17.142   3.740  16.747
 7459W        W 8323  14.712   5.747  17.027
 7460W        W 8324  16.195   5.429  14.774
 7461W        W 8325  15.615   3.658  14.442
 7462W        W 8326  16.654   4.815  15.927
 7463W        W 8327  17.096   3.923  17.233
 7464W        W 8328  15.971   5.889  17.513
 7465W        W 8329  16.784   5.680  17.919
 7466W        W 8330  17.262   5.571  17.783
 7467W        W 8331  16.478   3.849  18.176
 7468W        W 8332  15.725   4.544  16.437
 7469W        W 8333  15.056   4.197  16.095
 7470W        W 8334  14.878   6.953  15.831
 7471W        W 8335  16.521   6.528  17.816
 7472W        W 8336  15.319   6.235  15.247
 7473W        W 8337  17.134   5.513  16.397
 7474W        W 8338  17.305   5.186  16.748
 7475W        W 8339  16.605   5.740  16.698
 7476W        W 8340  16.986   6.077  14.583
 7477W        W 8341  16.823   4.125  16.014
 7478W        W 8342  18.015   4.424  15.370
 7479W        W 8343  14.833   6.961  17.638
 7480W        W 8344  14.964   6.218  17.089
 7481W        W 8345  14.490   6.932  15.474
 7482W        W 8346  16.401   4.398  16.992
 7483W        W 8347  15.774   6.491  15.194
 7484W        W 8348  17.728   6.815  14.957
 7485W        W 8349  16.630   5.347  15.088
 7486W        W 8350  16.319   4.619  15.560
 7487W        W 8351  16.763   4.535  14.839
 7488W        W 8352  16.935   6.189  17.701
 7489W        W 8353  17.109   4.287  15.165
 7490W        W 8354  14.709   3.822  14.596
 7491W        W 8355  15.986   6.232  17.126
 7492W        W 8356  15.765   5.953  16.414
 7493W        W 8357  15.578   6.374  14.721
 7494W        W 8358  14.905   6.578  15.429
 7495W        W 8359  15.384   5.194  17.637
 7496W        W 8360  15.926   3.838  17.875
 7497W        W 8361  16.591   4.004  17.289
 7498W        W 8362  16.098   3.730  15.922
 7499W        W 8363  16.554   3.608  15.345
 7500W        W 8364  14.782   3.898  16.824
 7501W        W 8365  14.749   4.674  16.185
 7502W        W 8366  17.664   3.743  16.555
 7503W        W 8367  14.884   4.395  14.497
 7504W        W 8368  17.530   3.977  16.984
 7505W        W 8369  17.735   5.520  14.729
 7506W        W 8370  15.185   4.116  16.592
 7507W        W 8371  16.606   4.655  17.405
 7508W        W 8372  14.359   4.322  14.580
 7509W        W 8373  15.465   5.706  17.508
 7510W        W 8374  16.773   5.213  16.616
 7511W        W 8375  16.525   7.168  14.895
 7512W        W 8376  14.469   5.344  14.526
 7513W        W 8377  15.637   6.169  17.808
 7514W        W 8378  15.038   5.394  17.304
 7515W        W 8379  16.083   5.481  17.156
 7516W        W 8380  17.556   3.752  17.440
 7517W        W 8381  18.228   5.493  17.412
 7518W        W 8382  18.176   5.586  15.021
 7519W        W 8383  16.972   5.739  15.164
 7520W        W 8384  17.519   7.213  14.687
 7521W        W 8385  16.674   5.283  18.225
 7522W        W 8386  15.225   6.312  18.194
 7523W        W 8387  18.275   4.194  18.101
 7524W        W 8388  17.656   4.927  16.490
 7525W        W 8389  16.366   7.095  18.338
 7526W        W 8390  16.321   3.839  14.935
 7527W        W 8391  17.553   6.362  14.785
 7528W        W 8392  15.560   4.444  17.609
 7529W        W 8393  16.058   6.434  17.597
 7530W        W 8394  17.898   4.242  17.227
 7531W        W 8395  17.389   7.126  15.183
 7532W        W 8396  17.495   5.713  16.732
 7533W        W 8397  15.634   4.108  17.237
 7534W        W 8398  16.201   5.206  17.957
 7535W        W 8399  15.578   6.287  15.711
 7536W        W 8400  17.384   5.654  15.502
 7537W        W 8401  15.130   4.272  17.330
 7538W        W 8402  16.434   6.606  15.967
 7539W        W 8403  18.137   5.073  15.956
 7540W        W 8404  16.394   3.716  17.696
 7541W        W 8405  17.383   6.298  16.826
 7542W        W 8406  17.679   6.707  16.659
 7543W        W 8407  16.403   6.732  14.600
 7544W        W 8408  14.770   6.515  17.991
 7545W        W 8409  15.377   4.475  16.930
 7546W        W 8410  15.552   4.058  16.237
 7547W        W 8411  17.243   4.660  16.695
 7548W        W 8412  15.912   5.880  14.782
 7549W        W 8413  17.996   5.713  16.560
 7550W        W 8414  15.214   6.763  17.935
 7551W        W 8415  17.728   7.200  15.584
 7552W        W 8416  16.009   4.235  16.082
 7553W        W 8417  15.324   5.691  16.517
 7554W        W 8418  15.917   7.366  16.711
 7555W        W 8419  17.719   7.320  17.958
 7556W        W 8420  17.025   5.565  16.934
 7557W        W 8421  14.444   4.837  14.616
 7558W        W 8422  17.967   6.826  15.832
 7559W        W 8423  17.606   4.378  15.018
 7560W        W 8424  15.780   3.621  17.427
 7561W        W 8425  17.788   6.521  16.192
 7562W        W 8426  17.625   4.975  15.977
 7563W        W 8427  16.104   4.752  16.036
 7564W        W 8428  16.224   5.060  17.428
 7565W        W 8429  17.155   6.386  17.284
 7566W        W 8430  16.077   4.560  17.390
 7567W        W 8431  15.787   7.203  16.215
 7568W        W 8432  15.320   7.087  17.500
 7569W        W 8433  15.198   6.679  14.982
 7570W        W 8434  17.911   6.335  15.702
 7571W        W 8435  15.581   4.825  17.260
 7572W        W 8436  18.069   4.584  14.882
 7573W        W 8437  15.854   6.003  15.368
 7574W        W 8438  17.026   5.280  17.418
 7575W        W 8439  16.935   4.943  17.043
 7576W        W 8440  15.527   5.328  17.136
 7577W        W 8441  17.612   7.152  16.948
 7578W        W 8442  17.376   3.881  17.926
 7579W        W 8443  14.926   3.904  17.638
 7580W        W 8444  15.476   4.958  16.750
 7581W        W 8445  15.924   4.626  14.477
 7582W        W 8446  14.687   6.470  17.471
 7583W        W 8447  16.276   5.333  16.710
 7584W        W 8448  16.404   4.416  14.501
 7585W        W 8449  15.618   5.533  16.138
 7586W        W 8450  14.814   7.167  17.147
 7587W        W 8451  17.745   5.376  15.221
 7588W        W 8452  17.812   4.118  17.749
 7589W        W 8453  17.416   6.337  15.896
 7590W        W 8454  14.909   5.454  17.815
 7591W        W 8455  17.495   6.181  15.407
 7592W        W 8456  16.416   5.141  15.600
 7593W        W 8457  17.402   4.163  14.581
 7594W        W 8458  17.439   4.880  17.137
 7595W        W 8459  14.754   5.227  16.234
 7596W        W 8460  15.353   6.047  16.119
 7597W        W 8461  17.165   4.791  15.818
 7598W        W 8462  16.149   4.228  16.585
 7599W        W 8463  18.255   6.155  17.141
 7600W        W 8464  18.134   4.243  16.736
 7601W        W 8465  14.603   7.018  16.264
 7602W        W 8466  15.056   6.143  15.686
 7603W        W 8467  15.029   3.988  18.233
 7604W        W 8468  16.122   6.847  17.956
 7605W        W 8469  18.120   5.580  16.078
 7606W        W 8470  17.468   5.831  15.021
 7607W        W 8471  16.733   7.236  17.122
 7608W        W 8472  17.637   5.819  18.101
 7609W        W 8473  16.126   3.348  15.205
 7610W        W 8474  17.000   4.527  16.243
 7611W        W 8475  14.589   6.154  16.582
 7612W        W 8476  16.103   3.849  15.411
 7613W        W 8477  15.831   5.730  17.991
 7614W        W 8478  16.834   4.485  15.574
 7615W        W 8479  16.872   6.060  17.010
 7616W        W 8480  15.135   6.663  17.282
 7617W        W 8481  15.682   6.588  18.115
 7618W        W 8482  16.013   4.086  14.606
 7619W        W 8483  17.133   4.795  15.228
 7620W        W 8484  16.948   6.743  17.604
 7621W        W 8485  15.850   5.082  16.382
 7622W        W 8486  15.313   7.058  16.983
 7623W        W 8487  18.021   7.053  14.610
 7624W        W 8488  14.771   6.001  17.956
 7625W        W 8489  17.072   5.994  16.540
 7626W        W 8490  15.445   5.783  15.680
 7627W        W 8491  15.673   6.656  17.089
 7628W        W 8492  16.405   3.956  16.246
 7629W        W 8493  14.783   6.106  15.234
 7630W        W 8494  16.415   4.941  14.648
 7631W        W 8495  15.069   5.608  16.042
 7632W        W 8496  16.101   4.042  17.421
 7633W        W 8497  18.023   3.771  14.552
 7634W        W 8498  18.083   5.559  17.966
 7635W        W 8499  16.722   6.983  17.998
 7636W        W 8500  18.011   6.013  17.605
 7637W        W 8501  17.651   6.816  18.089
 7638W        W 8502  15.405   7.332  16.553
 7639W        W 8503  18.239   5.950  15.740
 7640W        W 8504  16.802   5.289  16.043
 7641W        W 8505  16.611   3.672  15.861
 7642W        W 8506  15.667   6.775  15.907
 7643W        W 8507  15.886   4.527  16.928
 7644W        W 8508  15.953   3.770  16.416
 7645W        W 8509  14.678   6.791  15.007
 7646W        W 8510  16.382   6.104  15.823
 7647W        W 8511  15.565   6.629  17.596
 7648W        W 8512  14.942   5.681  15.511
 7649W        W 8513  14.665   4.202  16.419
 7650W        W 8514  16.336   6.085  16.360
 7651W        W 8515  14.140   3.995  15.443
 7652W        W 8516  17.463   5.411  17.179
 7653W        W 8517  17.250   4.641  14.742
 7654W        W 8518  17.891   6.180  16.745
 7655W        W 8519  16.455   6.579  16.465
 7656W        W 8520  15.842   6.952  15.424
 7657W        W 8521  17.059   3.776  14.463
 7658W        W 8522  14.936   7.006  16.639
 7659W        W 8523  16.814   4.629  17.952
 7660W        W 8524  15.113   4.337  17.850
 7661W        W 8525  14.525   4.858  15.752
 7662W        W 8526  16.181   5.064  15.138
 7663W        W 8527  17.099   5.088  17.960
 7664W        W 8528  15.762   5.476  16.686
 7665W        W 8529  17.137   3.727  15.898
 7666W        W 8530  16.418   7.064  16.276
 7667W        W 8531  17.544   6.695  17.182
 7668W        W 8532  17.286   6.537  16.362
 7669W        W 8533  17.213   5.878  16.035
 7670W        W 8534  16.534   4.229  15.235
 7671W        W 8535  18.215   3.705  15.878
 7672W        W 8536  15.719   5.152  14.457
 7673W        W 8537  17.924   4.567  15.859
 7674W        W 8538  16.568   5.816  14.827
 7675W        W 8539  17.468   6.034  17.663
 7676W        W 8540  17.234   6.797  14.762
 7677W        W 8541  15.986   4.337  17.853
 7678W        W 8542  15.935   5.037  16.951
 7679W        W 8543  17.888   6.550  17.556
 7680W        W 8544  16.935   4.278  17.561
 7681W        W 8545  14.740   5.029  17.497
 7682W        W 8546  16.593   5.379  17.138
 7683W        W 8547  14.832   6.055  16.140
 7684W        W 8548  15.081   5.333  16.799
 7685W        W 8549  17.320   5.895  17.195
 7686W        W 8550  17.228   7.093  17.933
 7687W        W 8551  17.099   4.768  17.524
 7688W        W 8552  17.454   6.867  15.942
 7689W        W 8553  16.246   6.676  17.159
 7690W        W 8554  15.663   6.889  16.625
 7691W        W 8555  17.712   6.212  17.226
 7692W        W 8556  16.645   6.146  18.146
 7693W        W 8557  15.096   6.136  16.581
 7694W        W 8558  17.718   5.895  15.890
 7695W        W 8559  17.205   6.831  16.823
 7696W        W 8560  15.227   6.600  16.767
 7697W        W 8561  16.313   4.718  17.819
 7698W        W 8562  16.451   6.754  15.469
 7699W        W 8563  16.109   6.230  18.076
 7700W        W 8564  16.031   6.521  15.643
 7701W        W 8565  15.383   4.667  14.290
 7702W        W 8566  14.700   7.370  21.716
 7703W        W 8567  15.154   6.232  21.163
 7704W        W 8568  17.624   5.798  19.029
 7705W        W 8569  17.771   7.070  20.928
 7706W        W 8570  15.859   6.962  18.426
 7707W        W 8571  15.935   5.310  19.809
 7708W        W 8572  15.597   4.921  19.885
 7709W        W 8573  16.624   5.328  19.147
 7710W        W 8574  16.112   7.011  21.290
 7711W        W 8575  14.620   4.357  21.224
 7712W        W 8576  15.281   3.553  21.097
 7713W        W 8577  17.200   4.033  19.964
 7714W        W 8578  16.825   4.719  18.562
 7715W        W 8579  17.335   4.500  21.593
 7716W        W 8580  14.751   4.048  20.796
 7717W        W 8581  14.889   6.877  21.735
 7718W        W 8582  16.308   6.066  18.543
 7719W        W 8583  14.772   4.763  20.281
 7720W        W 8584  15.847   4.901  21.353
 7721W        W 8585  17.799   4.538  20.147
 7722W        W 8586  17.941   5.907  20.876
 7723W        W 8587  16.398   5.139  19.931
 7724W        W 8588  16.873   6.555  20.261
 7725W        W 8589  15.155   5.745  20.500
 7726W        W 8590  14.593   5.230  20.140
 7727W        W 8591  15.923   5.363  21.099
 7728W        W 8592  17.911   5.122  21.491
 7729W        W 8593  15.469   6.600  19.984
 7730W        W 8594  16.660   6.432  21.027
 7731W        W 8595  16.013   4.907  20.198
 7732W        W 8596  16.059   5.769  20.007
 7733W        W 8597  17.003   6.651  21.768
 7734W        W 8598  16.256   5.754  21.703
 7735W        W 8599  16.347   5.628  21.211
 7736W        W 8600  14.356   4.666  21.580
 7737W        W 8601  17.396   6.328  21.615
 7738W        W 8602  15.016   3.885  19.353
 7739W        W 8603  15.587   6.350  20.429
 7740W        W 8604  17.958   5.940  19.882
 7741W        W 8605  17.339   4.371  20.345
 7742W        W 8606  17.665   4.327  18.207
 7743W        W 8607  18.160   5.111  20.731
 7744W        W 8608  16.129   7.099  20.427
 7745W        W 8609  17.974   6.249  19.071
 7746W        W 8610  14.991   7.152  18.777
 7747W        W 8611  15.488   7.236  19.432
 7748W        W 8612  15.284   3.926  20.656
 7749W        W 8613  17.741   4.961  20.996
 7750W        W 8614  17.311   5.235  19.764
 7751W        W 8615  17.248   4.979  18.436
 7752W        W 8616  16.519   6.328  20.526
 7753W        W 8617  16.453   4.328  19.718
 7754W        W 8618  16.917   6.767  20.744
 7755W        W 8619  17.640   5.476  19.453
 7756W        W 8620  16.876   4.009  19.086
 7757W        W 8621  15.356   6.920  19.028
 7758W        W 8622  14.657   4.273  19.491
 7759W        W 8623  17.351   4.835  20.123
 7760W        W 8624  14.947   6.577  20.018
 7761W        W 8625  16.210   6.903  18.813
 7762W        W 8626  17.552   4.810  18.056
 7763W        W 8627  14.687   6.547  20.459
 7764W        W 8628  15.431   6.568  20.876
 7765W        W 8629  15.783   5.795  19.572
 7766W        W 8630  15.740   4.038  20.398
 7767W        W 8631  18.106   3.764  20.141
 7768W        W 8632  15.266   5.841  17.960
 7769W        W 8633  14.976   4.497  18.319
 7770W        W 8634  15.046   6.613  19.526
 7771W        W 8635  15.799   6.295  19.375
 7772W        W 8636  17.586   6.771  21.336
 7773W        W 8637  16.592   4.399  18.885
 7774W        W 8638  17.858   7.276  19.875
 7775W        W 8639  17.443   4.972  21.415
 7776W        W 8640  18.045   6.366  19.563
 7777W        W 8641  16.843   5.950  21.041
 7778W        W 8642  14.677   5.328  19.288
 7779W        W 8643  15.494   5.977  20.832
 7780W        W 8644  16.834   4.853  19.087
 7781W        W 8645  16.811   5.370  19.637
 7782W        W 8646  15.109   4.812  20.672
 7783W        W 8647  15.126   4.793  21.183
 7784W        W 8648  14.967   3.749  19.849
 7785W        W 8649  16.697   4.053  20.124
 7786W        W 8650  16.494   4.198  21.354
 7787W        W 8651  16.882   4.078  18.571
 7788W        W 8652  18.083   6.954  21.390
 7789W        W 8653  16.774   3.758  21.354
 7790W        W 8654  17.894   6.456  21.615
 7791W        W 8655  17.453   4.397  21.095
 7792W        W 8656  17.252   4.138  19.437
 7793W        W 8657  17.582   5.348  21.830
 7794W        W 8658  15.202   7.018  19.844
 7795W        W 8659  16.153   4.496  18.631
 7796W        W 8660  15.457   3.955  21.392
 7797W        W 8661  17.523   4.490  19.180
 7798W        W 8662  17.861   4.826  18.993
 7799W        W 8663  15.749   7.240  21.672
 7800W        W 8664  15.463   3.646  18.815
 7801W        W 8665  17.853   4.125  19.847
 7802W        W 8666  18.094   6.605  18.316
 7803W        W 8667  14.917   5.643  20.053
 7804W        W 8668  16.922   4.105  18.052
 7805W        W 8669  18.079   6.605  20.068
 7806W        W 8670  17.978   3.781  20.720
 7807W        W 8671  16.690   5.026  21.334
 7808W        W 8672  16.217   6.394  19.039
 7809W        W 8673  17.116   5.539  21.933
 7810W        W 8674  16.983   3.543  19.771
 7811W        W 8675  15.236   4.626  20.113
 7812W        W 8676  14.840   5.872  20.912
 7813W        W 8677  16.725   6.926  19.793
 7814W        W 8678  17.768   4.524  20.682
 7815W        W 8679  16.629   6.977  21.144
 7816W        W 8680  17.788   5.580  18.533
 7817W        W 8681  16.310   5.598  19.566
 7818W        W 8682  18.172   3.725  21.220
 7819W        W 8683  16.317   6.041  20.886
 7820W        W 8684  16.478   4.656  20.103
 7821W        W 8685  17.325   4.910  18.948
 7822W        W 8686  17.542   4.580  18.641
 7823W        W 8687  17.695   6.655  19.264
 7824W        W 8688  17.258   6.239  19.960
 7825W        W 8689  17.154   5.275  19.254
 7826W        W 8690  16.556   5.613  20.018
 7827W        W 8691  17.576   5.384  20.184
 7828W        W 8692  14.989   4.338  20.458
 7829W        W 8693  17.592   5.481  21.301
 7830W        W 8694  18.080   7.039  20.406
 7831W        W 8695  15.957   6.605  19.802
 7832W        W 8696  17.250   7.122  21.005
 7833W        W 8697  17.023   4.348  20.769
 7834W        W 8698  16.281   7.280  20.880
 7835W        W 8699  17.755   4.065  19.342
 7836W        W 8700  17.720   5.426  20.731
 7837W        W 8701  14.654   4.569  20.762
 7838W        W 8702  17.444   4.471  19.771
 7839W        W 8703  17.823   4.611  21.390
 7840W        W 8704  16.800   6.400  19.779
 7841W        W 8705  16.030   6.951  19.404
 7842W        W 8706  15.078   3.985  18.750
 7843W        W 8707  16.331   3.698  20.293
 7844W        W 8708  15.334   6.994  18.382
 7845W        W 8709  16.091   5.898  19.160
 7846W        W 8710  16.437   6.107  21.363
 7847W        W 8711  16.398   4.039  19.277
 7848W        W 8712  17.521   3.757  19.683
 7849W        W 8713  17.325   7.327  20.006
 7850W        W 8714  16.613   7.005  20.324
 7851W        W 8715  16.069   6.094  20.403
 7852W        W 8716  17.871   6.591  20.561
 7853W        W 8717  15.492   4.005  19.178
 7854W        W 8718  16.039   6.594  20.402
 7855W        W 8719  15.551   4.285  18.127
 7856W        W 8720  16.393   4.857  20.567
 7857W        W 8721  17.119   3.897  20.465
 7858W        W 8722  14.663   5.585  20.526
 7859W        W 8723  16.421   5.472  18.657
 7860W        W 8724  15.542   3.786  18.243
 7861W        W 8725  16.602   4.829  19.587
 7862W        W 8726  17.154   3.896  20.988
 7863W        W 8727  15.909   5.915  21.185
 7864W        W 8728  16.750   5.728  21.542
 7865W        W 8729  17.229   5.841  21.427
 7866W        W 8730  16.377   3.812  21.723
 7867W        W 8731  15.732   4.451  20.075
 7868W        W 8732  15.171   4.288  19.640
 7869W        W 8733  14.991   7.096  19.357
 7870W        W 8734  16.540   6.616  21.505
 7871W        W 8735  15.228   6.115  18.730
 7872W        W 8736  17.053   5.521  20.104
 7873W        W 8737  17.184   5.182  20.463
 7874W        W 8738  16.477   5.784  20.482
 7875W        W 8739  17.152   5.989  18.117
 7876W        W 8740  16.811   3.987  19.616
 7877W        W 8741  18.057   4.370  19.069
 7878W        W 8742  14.788   7.123  21.264
 7879W        W 8743  15.076   6.249  20.641
 7880W        W 8744  14.567   6.886  18.729
 7881W        W 8745  16.523   4.348  20.529
 7882W        W 8746  15.987   6.481  18.549
 7883W        W 8747  18.023   6.736  18.850
 7884W        W 8748  16.886   5.219  18.705
 7885W        W 8749  16.293   4.551  19.269
 7886W        W 8750  16.525   4.347  18.301
 7887W        W 8751  16.910   6.247  21.457
 7888W        W 8752  17.399   3.995  18.963
 7889W        W 8753  14.662   3.710  18.562
 7890W        W 8754  15.882   6.311  20.833
 7891W        W 8755  15.751   6.167  19.962
 7892W        W 8756  15.673   6.111  18.345
 7893W        W 8757  14.900   6.670  19.047
 7894W        W 8758  15.440   5.206  21.192
 7895W        W 8759  15.899   3.722  21.538
 7896W        W 8760  16.649   4.005  20.904
 7897W        W 8761  15.939   3.750  19.381
 7898W        W 8762  16.809   3.579  18.841
 7899W        W 8763  14.881   3.853  20.343
 7900W        W 8764  14.857   4.696  19.772
 7901W        W 8765  17.634   3.921  20.255
 7902W        W 8766  14.971   4.347  19.100
 7903W        W 8767  17.546   4.067  20.722
 7904W        W 8768  17.732   5.059  18.554
 7905W        W 8769  15.301   4.114  20.119
 7906W        W 8770  16.599   4.570  21.003
 7907W        W 8771  14.625   4.213  18.583
 7908W        W 8772  15.246   5.694  21.191
 7909W        W 8773  16.673   5.253  20.368
 7910W        W 8774  16.599   7.330  18.756
 7911W        W 8775  14.705   5.592  18.287
 7912W        W 8776  15.644   6.509  21.339
 7913W        W 8777  15.034   5.358  20.844
 7914W        W 8778  15.977   5.691  20.710
 7915W        W 8779  17.640   3.746  21.122
 7916W        W 8780  18.085   5.459  21.123
 7917W        W 8781  17.856   5.335  19.012
 7918W        W 8782  16.980   5.671  18.931
 7919W        W 8783  17.443   7.242  18.400
 7920W        W 8784  16.703   5.255  21.790
 7921W        W 8785  15.150   6.405  21.669
 7922W        W 8786  18.181   4.044  21.681
 7923W        W 8787  17.724   4.976  20.455
 7924W        W 8788  16.243   7.156  21.781
 7925W        W 8789  15.938   3.685  18.620
 7926W        W 8790  17.805   6.112  18.584
 7927W        W 8791  15.557   4.463  21.302
 7928W        W 8792  16.165   6.519  21.181
 7929W        W 8793  17.937   4.181  21.051
 7930W        W 8794  17.595   7.053  18.877
 7931W        W 8795  17.374   5.840  20.375
 7932W        W 8796  15.687   4.135  20.928
 7933W        W 8797  16.246   5.223  21.525
 7934W        W 8798  15.354   6.421  19.128
 7935W        W 8799  17.230   5.775  19.378
 7936W        W 8800  15.159   4.331  20.964
 7937W        W 8801  16.390   6.599  19.525
 7938W        W 8802  17.779   5.002  19.889
 7939W        W 8803  16.272   3.770  21.199
 7940W        W 8804  17.360   6.549  20.372
 7941W        W 8805  17.629   6.935  20.183
 7942W        W 8806  16.431   6.587  18.317
 7943W        W 8807  14.695   6.236  21.428
 7944W        W 8808  15.473   4.436  20.552
 7945W        W 8809  15.464   3.848  19.680
 7946W        W 8810  16.905   4.703  20.401
 7947W        W 8811  15.950   5.694  18.507
 7948W        W 8812  17.885   5.755  20.362
 7949W        W 8813  15.159   6.756  21.296
 7950W        W 8814  17.815   7.259  19.310
 7951W        W 8815  15.958   4.184  19.661
 7952W        W 8816  15.390   5.777  19.895
 7953W        W 8817  15.770   7.357  20.711
 7954W        W 8818  17.716   7.293  21.480
 7955W        W 8819  16.955   5.625  20.617
 7956W        W 8820  14.494   5.118  18.354
 7957W        W 8821  18.048   6.878  19.553
 7958W        W 8822  17.806   4.152  18.682
 7959W        W 8823  15.792   3.625  21.009
 7960W        W 8824  17.643   6.566  19.802
 7961W        W 8825  17.575   4.965  19.401
 7962W        W 8826  16.094   4.703  19.742
 7963W        W 8827  16.271   4.980  21.054
 7964W        W 8828  17.307   6.252  21.123
 7965W        W 8829  16.043   4.520  21.022
 7966W        W 8830  15.719   7.058  19.860
 7967W        W 8831  15.212   7.261  21.563
 7968W        W 8832  15.476   6.558  18.615
 7969W        W 8833  17.598   6.127  19.488
 7970W        W 8834  15.588   4.789  20.909
 7971W        W 8835  18.024   4.613  18.448
 7972W        W 8836  15.739   6.161  18.870
 7973W        W 8837  16.807   5.451  21.074
 7974W        W 8838  16.818   5.013  20.811
 7975W        W 8839  15.530   5.414  20.697
 7976W        W 8840  17.482   7.331  20.568
 7977W        W 8841  17.258   3.849  21.496
 7978W        W 8842  14.954   3.929  21.265
 7979W        W 8843  15.537   4.924  20.408
 7980W        W 8844  15.918   4.719  18.195
 7981W        W 8845  14.664   6.369  20.945
 7982W        W 8846  16.153   5.388  20.316
 7983W        W 8847  16.026   4.097  18.315
 7984W        W 8848  15.433   5.354  19.631
 7985W        W 8849  14.888   7.278  20.787
 7986W        W 8850  17.382   5.385  18.780
 7987W        W 8851  17.694   4.117  21.500
 7988W        W 8852  17.236   6.498  19.487
 7989W        W 8853  14.934   5.254  21.337
 7990W        W 8854  17.809   3.651  18.684
 7991W        W 8855  17.463   6.282  18.977
 7992W        W 8856  16.417   4.947  18.799
 7993W        W 8857  17.367   3.987  18.446
 7994W        W 8858  17.321   4.764  20.717
 7995W        W 8859  14.937   5.213  19.754
 7996W        W 8860  15.362   6.228  19.633
 7997W        W 8861  17.115   4.811  19.532
 7998W        W 8862  16.186   4.187  20.146
 7999W        W 8863  18.343   6.268  20.875
 8000W        W 8864  18.097   4.201  20.456
 8001W        W 8865  14.682   6.929  19.765
 8002W        W 8866  14.912   6.182  19.221
 8003W        W 8867  15.030   3.984  21.823
 8004W        W 8868  15.967   6.733  21.696
 8005W        W 8869  18.040   5.451  19.774
 8006W        W 8870  17.341   5.872  18.591
 8007W        W 8871  16.797   7.273  20.734
 8008W        W 8872  17.564   5.858  21.814
 8009W        W 8873  16.266   3.587  19.003
 8010W        W 8874  16.931   4.479  19.895
 8011W        W 8875  14.709   6.079  20.209
 8012W        W 8876  15.984   4.076  18.972
 8013W        W 8877  15.798   5.549  21.556
 8014W        W 8878  16.818   4.426  19.361
 8015W        W 8879  17.045   6.267  20.682
 8016W        W 8880  14.946   6.773  20.845
 8017W        W 8881  15.448   6.834  21.708
 8018W        W 8882  15.591   4.116  18.634
 8019W        W 8883  17.108   4.431  18.888
 8020W        W 8884  17.059   6.693  21.246
 8021W        W 8885  15.576   5.369  20.168
 8022W        W 8886  15.357   7.069  20.759
 8023W        W 8887  17.937   7.072  18.448
 8024W        W 8888  14.737   5.725  21.401
 8025W        W 8889  16.901   6.011  20.266
 8026W        W 8890  15.407   5.920  19.226
 8027W        W 8891  15.877   6.851  20.836
 8028W        W 8892  16.348   3.812  19.755
 8029W        W 8893  14.711   6.068  18.735
 8030W        W 8894  16.417   4.847  18.290
 8031W        W 8895  15.007   5.700  19.531
 8032W        W 8896  16.153   4.010  20.714
 8033W        W 8897  17.881   3.879  18.228
 8034W        W 8898  17.995   5.618  21.623
 8035W        W 8899  16.725   7.088  21.646
 8036W        W 8900  18.241   5.979  21.306
 8037W        W 8901  17.520   6.768  21.865
 8038W        W 8902  15.326   7.319  20.284
 8039W        W 8903  18.009   5.835  19.393
 8040W        W 8904  16.895   5.002  19.983
 8041W        W 8905  16.637   3.578  19.354
 8042W        W 8906  15.549   6.733  19.489
 8043W        W 8907  15.995   4.502  20.520
 8044W        W 8908  15.888   3.772  19.984
 8045W        W 8909  14.944   6.542  18.557
 8046W        W 8910  16.193   6.123  19.635
 8047W        W 8911  15.594   7.026  21.230
 8048W        W 8912  14.978   5.710  19.010
 8049W        W 8913  14.788   4.223  19.985
 8050W        W 8914  16.457   6.112  20.060
 8051W        W 8915  14.615   3.951  19.042
 8052W        W 8916  17.275   5.227  20.974
 8053W        W 8917  17.178   4.468  18.299
 8054W        W 8918  17.713   6.234  20.200
 8055W        W 8919  16.405   6.616  20.056
 8056W        W 8920  15.792   7.181  19.003
 8057W        W 8921  16.967   3.627  18.295
 8058W        W 8922  14.871   7.048  20.278
 8059W        W 8923  16.801   4.660  21.682
 8060W        W 8924  15.073   4.376  21.483
 8061W        W 8925  14.720   4.791  19.298
 8062W        W 8926  16.055   5.172  18.451
 8063W        W 8927  17.106   5.343  21.462
 8064W        W 8928  15.633   5.839  20.348
 8065W        W 8929  17.164   3.639  19.285
 8066W        W 8930  16.236   7.089  19.908
 8067W        W 8931  17.433   6.670  20.855
 8068W        W 8932  17.190   6.772  19.932
 8069W        W 8933  16.911   5.889  19.764
 8070W        W 8934  16.394   3.972  18.680
 8071W        W 8935  18.046   3.680  19.568
 8072W        W 8936  15.691   5.224  18.072
 8073W        W 8937  17.893   4.557  19.541
 8074W        W 8938  16.782   5.764  18.450
 8075W        W 8939  17.715   5.995  21.334
 8076W        W 8940  17.618   6.610  18.564
 8077W        W 8941  15.986   4.203  21.414
 8078W        W 8942  15.942   5.086  20.675
 8079W        W 8943  17.868   6.418  21.069
 8080W        W 8944  16.985   4.261  21.290
 8081W        W 8945  14.609   4.893  21.150
 8082W        W 8946  16.391   5.372  20.772
 8083W        W 8947  14.868   6.152  19.734
 8084W        W 8948  15.085   5.221  20.335
 8085W        W 8949  17.359   5.767  20.922
 8086W        W 8950  17.233   7.078  21.538
 8087W        W 8951  17.072   4.742  21.167
 8088W        W 8952  17.487   7.023  19.608
 8089W        W 8953  16.384   6.776  20.747
 8090W        W 8954  15.656   6.930  20.357
 8091W        W 8955  17.569   6.192  20.690
 8092W        W 8956  16.557   6.205  21.845
 8093W        W 8957  15.212   6.164  20.150
 8094W        W 8958  17.458   5.767  19.855
 8095W        W 8959  17.120   7.036  20.369
 8096W        W 8960  15.212   6.697  20.423
 8097W        W 8961  16.312   4.668  21.445
 8098W        W 8962  16.550   6.974  19.197
 8099W        W 8963  16.008   6.230  21.590
 8100W        W 8964  15.795   6.669  19.014
 8101W        W 8965  15.403   4.770  18.004
 8102W        W 8966  14.828   7.176  25.473
 8103W        W 8967  15.078   6.132  24.862
 8104W        W 8968  17.855   5.615  22.681
 8105W        W 8969  18.092   6.937  24.660
 8106W        W 8970  15.589   7.061  22.160
 8107W        W 8971  15.967   5.088  23.230
 8108W        W 8972  15.515   4.946  23.569
 8109W        W 8973  16.361   5.661  22.911
 8110W        W 8974  16.132   6.985  24.974
 8111W        W 8975  14.611   4.344  24.937
 8112W        W 8976  15.345   3.609  24.764
 8113W        W 8977  17.275   4.089  23.690
 8114W        W 8978  16.787   4.916  22.171
 8115W        W 8979  17.391   4.357  25.337
 8116W        W 8980  14.725   4.066  24.522
 8117W        W 8981  14.905   6.669  25.505
 8118W        W 8982  16.120   6.391  22.071
 8119W        W 8983  14.585   4.737  23.996
 8120W        W 8984  15.787   4.925  25.187
 8121W        W 8985  17.995   4.580  23.678
 8122W        W 8986  17.767   5.690  24.502
 8123W        W 8987  16.280   4.922  23.595
 8124W        W 8988  16.774   6.453  23.971
 8125W        W 8989  15.265   5.823  24.064
 8126W        W 8990  14.621   5.277  23.922
 8127W        W 8991  15.765   5.345  24.904
 8128W        W 8992  17.864   5.138  25.095
 8129W        W 8993  15.471   6.755  23.630
 8130W        W 8994  16.611   6.299  24.621
 8131W        W 8995  15.883   4.741  23.872
 8132W        W 8996  16.236   5.869  23.757
 8133W        W 8997  16.860   6.564  25.415
 8134W        W 8998  16.224   5.718  25.453
 8135W        W 8999  16.245   5.547  24.964
 8136W        W 9000  14.618   4.679  25.367
 8137W        W 9001  17.336   6.404  25.155
 8138W        W 9002  14.883   3.728  23.091
 8139W        W 9003  15.677   6.437  24.265
 8140W        W 9004  17.929   6.111  23.530
 8141W        W 9005  17.483   4.553  23.876
 8142W        W 9006  17.855   4.377  21.917
 8143W        W 9007  18.266   5.122  24.344
 8144W        W 9008  16.294   7.055  24.170
 8145W        W 9009  17.922   6.585  22.159
 8146W        W 9010  14.956   7.234  22.600
 8147W        W 9011  15.441   7.249  22.994
 8148W        W 9012  15.229   4.020  24.432
 8149W        W 9013  17.819   5.038  24.590
 8150W        W 9014  17.204   5.235  23.206
 8151W        W 9015  17.173   5.019  21.852
 8152W        W 9016  16.454   6.109  24.150
 8153W        W 9017  16.451   4.433  23.523
 8154W        W 9018  16.849   6.744  24.413
 8155W        W 9019  17.711   5.316  23.074
 8156W        W 9020  16.465   4.244  22.637
 8157W        W 9021  15.358   6.908  22.615
 8158W        W 9022  14.527   4.173  23.232
 8159W        W 9023  17.231   4.899  23.593
 8160W        W 9024  14.969   6.706  23.731
 8161W        W 9025  16.068   6.894  22.193
 8162W        W 9026  17.662   4.843  21.879
 8163W        W 9027  14.811   6.726  24.238
 8164W        W 9028  15.543   6.344  24.747
 8165W        W 9029  16.081   5.599  23.355
 8166W        W 9030  15.708   4.142  24.195
 8167W        W 9031  18.199   3.819  23.784
 8168W        W 9032  15.519   6.034  21.511
 8169W        W 9033  14.999   4.468  21.994
 8170W        W 9034  15.118   6.625  23.238
 8171W        W 9035  15.993   6.120  23.363
 8172W        W 9036  17.655   7.005  24.940
 8173W        W 9037  16.499   4.755  22.571
 8174W        W 9038  17.732   7.149  23.598
 8175W        W 9039  17.395   4.950  24.885
 8176W        W 9040  18.169   6.545  23.351
 8177W        W 9041  16.771   5.798  24.732
 8178W        W 9042  14.791   5.256  23.442
 8179W        W 9043  15.549   5.893  24.479
 8180W        W 9044  16.805   5.019  22.903
 8181W        W 9045  16.858   5.532  22.960
 8182W        W 9046  15.079   4.861  24.383
 8183W        W 9047  15.067   4.838  25.138
 8184W        W 9048  14.948   3.786  23.586
 8185W        W 9049  16.743   4.208  23.932
 8186W        W 9050  16.466   4.191  25.244
 8187W        W 9051  16.686   4.415  22.209
 8188W        W 9052  18.125   6.943  25.168
 8189W        W 9053  16.865   3.750  25.052
 8190W        W 9054  17.867   6.238  25.341
 8191W        W 9055  17.438   4.361  24.778
 8192W        W 9056  17.200   4.162  23.152
 8193W        W 9057  17.564   5.353  25.468
 8194W        W 9058  15.156   7.133  23.456
 8195W        W 9059  16.141   4.440  22.259
 8196W        W 9060  15.440   3.972  25.157
 8197W        W 9061  17.572   4.469  22.867
 8198W        W 9062  17.871   4.901  22.760
 8199W        W 9063  15.749   7.190  25.248
 8200W        W 9064  15.608   3.717  22.412
 8201W        W 9065  18.063   4.138  23.426
 8202W        W 9066  14.793   5.753  23.880
 8203W        W 9067  16.886   4.160  21.780
 8204W        W 9068  18.015   6.659  23.846
 8205W        W 9069  18.017   3.834  24.289
 8206W        W 9070  16.608   5.181  25.073
 8207W        W 9071  16.443   6.185  23.143
 8208W        W 9072  17.092   5.552  25.560
 8209W        W 9073  16.959   3.733  23.879
 8210W        W 9074  15.393   4.551  23.912
 8211W        W 9075  15.045   5.749  24.536
 8212W        W 9076  16.881   6.946  23.444
 8213W        W 9077  17.897   4.760  24.160
 8214W        W 9078  16.676   7.137  24.726
 8215W        W 9079  17.956   5.647  22.163
 8216W        W 9080  16.473   5.266  23.225
 8217W        W 9081  18.184   3.799  24.819
 8218W        W 9082  16.298   5.881  24.577
 8219W        W 9083  16.463   4.659  23.982
 8220W        W 9084  17.375   5.012  22.776
 8221W        W 9085  17.529   4.706  22.386
 8222W        W 9086  17.820   6.674  22.684
 8223W        W 9087  17.198   6.081  23.861
 8224W        W 9088  17.167   5.216  22.351
 8225W        W 9089  16.419   5.392  23.713
 8226W        W 9090  17.475   5.450  23.622
 8227W        W 9091  14.967   4.389  24.174
 8228W        W 9092  17.535   5.495  24.954
 8229W        W 9093  18.069   7.062  24.154
 8230W        W 9094  15.986   6.720  23.502
 8231W        W 9095  17.180   7.081  24.685
 8232W        W 9096  16.934   4.474  24.523
 8233W        W 9097  16.221   7.331  24.587
 8234W        W 9098  17.971   4.109  22.931
 8235W        W 9099  17.770   5.313  24.148
 8236W        W 9100  14.592   4.566  24.472
 8237W        W 9101  17.594   4.383  23.400
 8238W        W 9102  17.834   4.641  24.942
 8239W        W 9103  16.835   6.200  23.513
 8240W        W 9104  16.050   7.032  23.095
 8241W        W 9105  15.158   3.985  22.316
 8242W        W 9106  16.431   3.773  23.887
 8243W        W 9107  15.099   7.224  22.080
 8244W        W 9108  15.859   5.495  22.908
 8245W        W 9109  16.303   6.061  25.053
 8246W        W 9110  16.249   4.251  23.089
 8247W        W 9111  17.629   3.879  23.303
 8248W        W 9112  17.229   7.252  23.675
 8249W        W 9113  16.943   6.951  23.965
 8250W        W 9114  15.957   5.979  24.182
 8251W        W 9115  17.858   6.583  24.345
 8252W        W 9116  15.319   3.910  22.817
 8253W        W 9117  16.199   6.547  24.125
 8254W        W 9118  15.471   4.290  21.798
 8255W        W 9119  16.492   4.827  24.460
 8256W        W 9120  17.355   3.896  24.178
 8257W        W 9121  14.602   5.604  24.342
 8258W        W 9122  16.275   5.345  22.059
 8259W        W 9123  15.504   3.777  21.896
 8260W        W 9124  16.368   4.765  23.101
 8261W        W 9125  17.117   3.976  24.632
 8262W        W 9126  15.858   5.905  24.873
 8263W        W 9127  16.688   5.675  25.233
 8264W        W 9128  17.162   5.827  25.093
 8265W        W 9129  16.545   3.725  25.453
 8266W        W 9130  15.704   4.190  23.663
 8267W        W 9131  15.053   4.189  23.260
 8268W        W 9132  14.819   7.030  23.070
 8269W        W 9133  16.439   6.563  25.073
 8270W        W 9134  15.760   6.186  22.397
 8271W        W 9135  16.932   5.341  23.634
 8272W        W 9136  17.250   5.158  24.028
 8273W        W 9137  16.413   5.591  24.173
 8274W        W 9138  17.063   6.043  21.904
 8275W        W 9139  16.714   3.990  23.458
 8276W        W 9140  18.205   4.488  22.668
 8277W        W 9141  14.908   6.942  25.015
 8278W        W 9142  15.194   6.258  24.368
 8279W        W 9143  14.448   7.148  22.664
 8280W        W 9144  16.462   4.302  24.350
 8281W        W 9145  15.808   6.666  22.577
 8282W        W 9146  17.722   7.043  22.334
 8283W        W 9147  16.642   5.302  22.480
 8284W        W 9148  16.037   4.576  22.748
 8285W        W 9149  16.376   4.325  21.822
 8286W        W 9150  16.794   6.179  25.091
 8287W        W 9151  17.530   3.921  22.771
 8288W        W 9152  14.614   3.681  22.176
 8289W        W 9153  16.065   6.329  24.585
 8290W        W 9154  15.841   6.331  23.802
 8291W        W 9155  15.621   6.399  21.911
 8292W        W 9156  14.573   6.654  22.798
 8293W        W 9157  15.358   5.254  25.219
 8294W        W 9158  15.980   3.925  25.262
 8295W        W 9159  16.626   4.085  24.758
 8296W        W 9160  15.735   3.637  22.925
 8297W        W 9161  17.280   4.246  22.456
 8298W        W 9162  14.798   3.842  24.073
 8299W        W 9163  15.025   4.937  23.840
 8300W        W 9164  17.762   4.096  23.838
 8301W        W 9165  14.855   4.112  22.753
 8302W        W 9166  17.640   4.304  24.292
 8303W        W 9167  18.063   5.188  21.970
 8304W        W 9168  15.263   4.037  23.909
 8305W        W 9169  16.427   4.562  24.883
 8306W        W 9170  14.653   4.170  22.267
 8307W        W 9171  15.373   5.693  24.933
 8308W        W 9172  16.704   5.122  24.048
 8309W        W 9173  16.495   7.212  22.240
 8310W        W 9174  14.552   5.306  21.698
 8311W        W 9175  15.506   6.113  25.209
 8312W        W 9176  14.989   5.258  24.759
 8313W        W 9177  16.019   5.475  24.487
 8314W        W 9178  17.637   3.858  24.655
 8315W        W 9179  18.133   5.447  24.759
 8316W        W 9180  18.179   5.245  22.496
 8317W        W 9181  16.979   5.699  22.446
 8318W        W 9182  17.489   7.280  21.938
 8319W        W 9183  16.675   5.217  25.569
 8320W        W 9184  14.999   6.156  25.378
 8321W        W 9185  18.260   4.151  25.360
 8322W        W 9186  17.707   5.007  23.741
 8323W        W 9187  16.226   7.131  25.470
 8324W        W 9188  15.976   3.588  22.039
 8325W        W 9189  17.503   6.261  22.133
 8326W        W 9190  15.483   4.516  25.073
 8327W        W 9191  15.933   6.437  25.065
 8328W        W 9192  17.989   4.244  24.638
 8329W        W 9193  17.341   7.403  22.426
 8330W        W 9194  17.383   5.669  24.108
 8331W        W 9195  15.619   4.167  24.717
 8332W        W 9196  16.178   5.211  25.361
 8333W        W 9197  15.557   6.318  22.877
 8334W        W 9198  17.348   5.531  22.776
 8335W        W 9199  15.080   4.452  24.718
 8336W        W 9200  16.446   6.716  23.253
 8337W        W 9201  18.059   5.056  23.366
 8338W        W 9202  16.344   3.715  24.953
 8339W        W 9203  17.236   6.487  24.200
 8340W        W 9204  17.528   6.854  23.968
 8341W        W 9205  16.523   6.746  21.995
 8342W        W 9206  14.707   6.459  25.048
 8343W        W 9207  15.507   4.576  24.414
 8344W        W 9208  15.391   3.797  23.324
 8345W        W 9209  16.993   4.684  24.032
 8346W        W 9210  15.825   5.915  21.947
 8347W        W 9211  17.851   5.826  23.957
 8348W        W 9212  15.226   6.544  25.118
 8349W        W 9213  17.639   7.283  22.874
 8350W        W 9214  15.761   4.110  23.137
 8351W        W 9215  15.719   5.829  23.690
 8352W        W 9216  15.850   7.333  24.221
 8353W        W 9217  17.943   7.431  25.058
 8354W        W 9218  16.932   5.510  24.301
 8355W        W 9219  14.840   4.818  21.623
 8356W        W 9220  17.921   6.938  23.142
 8357W        W 9221  17.801   4.253  22.432
 8358W        W 9222  15.861   3.706  24.782
 8359W        W 9223  17.668   6.637  23.484
 8360W        W 9224  17.605   4.861  23.240
 8361W        W 9225  15.957   4.565  23.384
 8362W        W 9226  16.178   5.039  24.833
 8363W        W 9227  17.130   6.232  24.714
 8364W        W 9228  15.881   4.624  24.779
 8365W        W 9229  15.695   7.176  23.446
 8366W        W 9230  15.303   6.985  25.368
 8367W        W 9231  15.203   6.704  22.138
 8368W        W 9232  17.792   6.325  23.073
 8369W        W 9233  15.426   4.941  24.786
 8370W        W 9234  18.028   4.752  22.254
 8371W        W 9235  15.991   6.018  22.856
 8372W        W 9236  17.032   5.366  24.858
 8373W        W 9237  16.970   5.010  24.477
 8374W        W 9238  15.437   5.381  24.516
 8375W        W 9239  17.628   7.051  24.431
 8376W        W 9240  17.346   3.872  25.166
 8377W        W 9241  14.949   3.912  24.972
 8378W        W 9242  15.473   5.055  24.077
 8379W        W 9243  15.909   4.578  21.771
 8380W        W 9244  14.704   6.338  24.546
 8381W        W 9245  16.197   5.103  24.128
 8382W        W 9246  15.935   4.079  21.911
 8383W        W 9247  15.592   5.420  23.376
 8384W        W 9248  14.880   7.171  24.527
 8385W        W 9249  17.686   5.200  22.345
 8386W        W 9250  17.808   4.136  25.112
 8387W        W 9251  17.415   6.195  23.419
 8388W        W 9252  14.721   5.224  25.217
 8389W        W 9253  18.014   3.783  22.539
 8390W        W 9254  17.574   6.044  22.664
 8391W        W 9255  16.245   5.155  22.782
 8392W        W 9256  17.402   4.112  21.945
 8393W        W 9257  17.412   4.768  24.374
 8394W        W 9258  15.225   5.406  23.733
 8395W        W 9259  15.516   6.314  23.392
 8396W        W 9260  17.152   4.691  23.110
 8397W        W 9261  16.162   4.231  23.927
 8398W        W 9262  18.099   6.108  24.420
 8399W        W 9263  18.168   4.287  24.096
 8400W        W 9264  14.611   7.067  23.573
 8401W        W 9265  15.126   6.102  23.102
 8402W        W 9266  15.080   3.937  25.548
 8403W        W 9267  16.142   6.619  25.505
 8404W        W 9268  17.971   5.570  23.467
 8405W        W 9269  17.467   5.673  22.290
 8406W        W 9270  16.717   7.345  24.254
 8407W        W 9271  17.529   5.866  25.442
 8408W        W 9272  16.093   3.532  22.545
 8409W        W 9273  16.974   4.454  23.539
 8410W        W 9274  14.810   6.246  24.035
 8411W        W 9275  15.981   4.038  22.651
 8412W        W 9276  15.743   5.651  25.310
 8413W        W 9277  16.736   4.411  23.065
 8414W        W 9278  16.940   6.035  24.291
 8415W        W 9279  15.150   6.702  24.629
 8416W        W 9280  15.624   6.578  25.441
 8417W        W 9281  15.637   4.225  22.299
 8418W        W 9282  17.023   4.679  22.577
 8419W        W 9283  16.916   6.663  24.903
 8420W        W 9284  15.912   5.260  23.732
 8421W        W 9285  15.407   7.146  24.447
 8422W        W 9286  17.974   7.036  21.888
 8423W        W 9287  14.868   5.692  25.068
 8424W        W 9288  16.772   5.788  23.859
 8425W        W 9289  15.591   5.870  23.158
 8426W        W 9290  15.883   6.882  24.490
 8427W        W 9291  16.148   3.956  23.491
 8428W        W 9292  14.617   6.183  23.056
 8429W        W 9293  16.352   4.843  21.917
 8430W        W 9294  15.233   5.887  23.557
 8431W        W 9295  16.123   4.161  24.791
 8432W        W 9296  17.858   3.863  22.053
 8433W        W 9297  17.961   5.644  25.220
 8434W        W 9298  16.674   7.016  25.231
 8435W        W 9299  18.161   6.033  24.930
 8436W        W 9300  17.691   6.742  25.380
 8437W        W 9301  15.451   7.222  23.903
 8438W        W 9302  18.126   5.920  23.090
 8439W        W 9303  16.758   4.892  23.414
 8440W        W 9304  16.229   3.735  23.027
 8441W        W 9305  15.600   6.776  23.115
 8442W        W 9306  16.038   4.563  24.312
 8443W        W 9307  15.886   3.745  23.890
 8444W        W 9308  14.720   6.859  22.297
 8445W        W 9309  16.594   5.746  23.378
 8446W        W 9310  15.581   6.851  24.906
 8447W        W 9311  15.141   5.559  23.172
 8448W        W 9312  14.770   4.259  23.709
 8449W        W 9313  16.354   6.355  23.653
 8450W        W 9314  14.443   3.823  22.657
 8451W        W 9315  17.394   5.295  24.494
 8452W        W 9316  17.156   4.558  22.066
 8453W        W 9317  17.645   6.321  23.914
 8454W        W 9318  16.482   6.837  23.754
 8455W        W 9319  15.842   7.173  22.633
 8456W        W 9320  16.872   3.654  21.860
 8457W        W 9321  14.950   7.157  23.959
 8458W        W 9322  16.939   4.621  25.449
 8459W        W 9323  15.039   4.342  25.238
 8460W        W 9324  14.684   4.710  23.458
 8461W        W 9325  16.071   4.946  22.336
 8462W        W 9326  17.120   5.100  25.311
 8463W        W 9327  15.688   5.528  24.101
 8464W        W 9328  17.146   3.686  23.393
 8465W        W 9329  16.139   7.207  23.695
 8466W        W 9330  17.429   6.629  24.663
 8467W        W 9331  17.187   6.585  23.681
 8468W        W 9332  17.122   5.759  23.391
 8469W        W 9333  16.317   3.954  22.231
 8470W        W 9334  18.287   3.750  23.149
 8471W        W 9335  15.866   5.087  21.844
 8472W        W 9336  18.021   4.575  23.152
 8473W        W 9337  16.645   5.716  22.051
 8474W        W 9338  17.625   6.020  24.914
 8475W        W 9339  17.019   7.088  22.073
 8476W        W 9340  16.004   4.444  25.233
 8477W        W 9341  15.811   5.013  24.455
 8478W        W 9342  17.873   6.512  24.900
 8479W        W 9343  16.987   4.292  25.030
 8480W        W 9344  14.634   4.866  24.872
 8481W        W 9345  16.543   5.330  24.587
 8482W        W 9346  14.882   6.250  23.534
 8483W        W 9347  15.039   5.350  24.205
 8484W        W 9348  17.269   5.768  24.599
 8485W        W 9349  17.206   6.948  25.207
 8486W        W 9350  16.900   4.790  24.941
 8487W        W 9351  17.386   7.007  23.246
 8488W        W 9352  16.369   6.751  24.585
 8489W        W 9353  15.829   6.871  23.974
 8490W        W 9354  17.561   6.149  24.402
 8491W        W 9355  16.481   6.174  25.515
 8492W        W 9356  15.310   6.309  23.864
 8493W        W 9357  17.621   5.811  23.149
 8494W        W 9358  17.250   7.301  24.192
 8495W        W 9359  15.310   6.763  24.123
 8496W        W 9360  16.436   4.763  25.359
 8497W        W 9361  16.285   6.869  22.667
 8498W        W 9362  15.933   6.139  25.515
 8499W        W 9363  16.032   6.510  23.021
 8500W        W 9364  15.394   4.807  21.640
 8501W        W 9365  14.718   7.297  28.806
 8502W        W 9366  15.090   6.100  28.455
 8503W        W 9367  17.827   5.745  26.321
 8504W        W 9368  17.965   7.025  28.139
 8505W        W 9369  15.717   6.998  25.732
 8506W        W 9370  15.879   5.121  26.594
 8507W        W 9371  15.268   4.648  26.775
 8508W        W 9372  16.495   5.669  26.278
 8509W        W 9373  16.025   6.916  28.184
 8510W        W 9374  14.818   4.444  28.571
 8511W        W 9375  15.311   3.659  28.290
 8512W        W 9376  17.186   4.074  27.250
 8513W        W 9377  16.928   4.800  25.938
 8514W        W 9378  17.311   4.324  28.746
 8515W        W 9379  14.854   3.890  28.128
 8516W        W 9380  14.894   6.844  28.939
 8517W        W 9381  16.196   5.915  25.930
 8518W        W 9382  14.737   4.835  27.527
 8519W        W 9383  15.632   4.842  28.749
 8520W        W 9384  18.124   4.740  27.264
 8521W        W 9385  17.862   5.754  28.103
 8522W        W 9386  16.207   5.034  26.999
 8523W        W 9387  16.797   6.472  27.631
 8524W        W 9388  15.207   5.749  27.682
 8525W        W 9389  14.435   5.289  27.557
 8526W        W 9390  15.661   5.192  28.360
 8527W        W 9391  17.920   5.112  28.773
 8528W        W 9392  15.404   6.474  27.170
 8529W        W 9393  16.694   6.341  28.221
 8530W        W 9394  15.973   4.736  27.450
 8531W        W 9395  16.087   5.711  27.215
 8532W        W 9396  16.885   6.485   0.038
 8533W        W 9397  16.126   5.767  28.953
 8534W        W 9398  16.256   5.528  28.522
 8535W        W 9399  14.662   4.750  28.982
 8536W        W 9400  17.361   6.369  28.767
 8537W        W 9401  14.976   3.813  26.608
 8538W        W 9402  15.525   6.185  27.681
 8539W        W 9403  18.129   6.075  27.160
 8540W        W 9404  17.288   4.412  27.622
 8541W        W 9405  17.845   4.389  25.611
 8542W        W 9406  18.244   5.149  27.941
 8543W        W 9407  16.101   6.985  27.647
 8544W        W 9408  18.084   6.210  26.289
 8545W        W 9409  15.093   7.346  26.270
 8546W        W 9410  15.443   7.217  26.621
 8547W        W 9411  15.332   3.946  27.860
 8548W        W 9412  17.917   4.765  28.047
 8549W        W 9413  17.234   5.303  26.868
 8550W        W 9414  17.278   5.169  25.860
 8551W        W 9415  16.479   6.106  27.822
 8552W        W 9416  16.104   4.485  27.010
 8553W        W 9417  16.942   6.757  28.045
 8554W        W 9418  17.687   5.280  26.604
 8555W        W 9419  16.696   4.124  26.527
 8556W        W 9420  15.209   6.859  26.315
 8557W        W 9421  14.592   4.151  26.767
 8558W        W 9422  17.306   4.955  27.284
 8559W        W 9423  14.903   6.584  27.203
 8560W        W 9424  16.154   6.896  25.950
 8561W        W 9425  17.577   4.828  25.372
 8562W        W 9426  14.736   6.689  27.883
 8563W        W 9427  15.524   6.212  28.221
 8564W        W 9428  15.665   5.637  26.661
 8565W        W 9429  15.909   3.952  27.857
 8566W        W 9430  18.197   3.904  27.372
 8567W        W 9431  15.250   5.710  25.456
 8568W        W 9432  15.045   4.496  25.727
 8569W        W 9433  15.074   6.556  26.720
 8570W        W 9434  16.013   5.992  26.781
 8571W        W 9435  17.563   6.812  28.580
 8572W        W 9436  16.602   4.550  26.247
 8573W        W 9437  17.857   7.186  27.162
 8574W        W 9438  17.581   4.968  28.411
 8575W        W 9439  18.270   6.386  26.736
 8576W        W 9440  16.708   5.789  28.252
 8577W        W 9441  14.390   5.338  26.643
 8578W        W 9442  15.643   5.778  27.999
 8579W        W 9443  16.895   4.989  26.448
 8580W        W 9444  16.750   5.443  26.685
 8581W        W 9445  15.180   4.856  27.782
 8582W        W 9446  15.100   4.841  28.716
 8583W        W 9447  14.924   3.735  27.106
 8584W        W 9448  16.800   4.214  27.563
 8585W        W 9449  16.342   4.347  28.710
 8586W        W 9450  16.904   4.180  26.009
 8587W        W 9451  18.026   6.632  28.758
 8588W        W 9452  16.948   3.846  28.701
 8589W        W 9453  17.827   6.180  28.968
 8590W        W 9454  17.534   4.473  28.292
 8591W        W 9455  17.133   4.272  26.788
 8592W        W 9456  17.545   5.375   0.039
 8593W        W 9457  15.220   6.957  27.081
 8594W        W 9458  16.113   4.528  26.112
 8595W        W 9459  15.522   3.915  28.708
 8596W        W 9460  17.610   4.512  26.617
 8597W        W 9461  17.977   4.913  26.329
 8598W        W 9462  15.736   7.046  28.759
 8599W        W 9463  15.545   3.656  26.157
 8600W        W 9464  18.011   4.270  27.073
 8601W        W 9465  18.155   6.733  25.641
 8602W        W 9466  14.842   5.704  27.240
 8603W        W 9467  16.932   4.099  25.494
 8604W        W 9468  18.192   6.527  27.514
 8605W        W 9469  18.100   3.864  27.883
 8606W        W 9470  16.620   4.792  28.630
 8607W        W 9471  16.319   6.145  26.401
 8608W        W 9472  17.027   5.467   0.097
 8609W        W 9473  16.860   3.720  27.457
 8610W        W 9474  15.376   4.560  27.314
 8611W        W 9475  14.959   5.682  28.157
 8612W        W 9476  16.712   7.053  27.164
 8613W        W 9477  17.782   4.513  27.592
 8614W        W 9478  16.548   6.917  28.320
 8615W        W 9479  17.948   5.616  25.737
 8616W        W 9480  16.209   5.503  26.740
 8617W        W 9481  18.195   3.829  28.379
 8618W        W 9482  16.187   5.793  28.101
 8619W        W 9483  16.496   4.713  27.270
 8620W        W 9484  17.441   4.912  26.314
 8621W        W 9485  17.688   4.847  25.862
 8622W        W 9486  17.802   6.572  26.555
 8623W        W 9487  17.190   6.199  27.381
 8624W        W 9488  17.243   5.388  26.339
 8625W        W 9489  16.514   5.433  27.170
 8626W        W 9490  17.573   5.403  27.258
 8627W        W 9491  15.005   4.367  27.635
 8628W        W 9492  17.611   5.476  28.512
 8629W        W 9493  18.065   7.018  27.618
 8630W        W 9494  15.914   6.646  27.108
 8631W        W 9495  17.139   7.110  28.458
 8632W        W 9496  16.966   4.428  28.034
 8633W        W 9497  16.327   7.314  28.034
 8634W        W 9498  17.994   4.182  26.554
 8635W        W 9499  17.731   5.267  28.028
 8636W        W 9500  14.726   4.625  28.004
 8637W        W 9501  17.510   4.481  27.140
 8638W        W 9502  17.950   4.628  28.585
 8639W        W 9503  16.764   6.329  27.129
 8640W        W 9504  16.013   6.948  26.692
 8641W        W 9505  15.303   4.098  25.989
 8642W        W 9506  16.331   3.785  27.538
 8643W        W 9507  15.247   7.194  25.823
 8644W        W 9508  15.987   5.534  26.265
 8645W        W 9509  16.354   6.063  28.509
 8646W        W 9510  16.180   4.220  26.564
 8647W        W 9511  17.589   4.029  26.886
 8648W        W 9512  17.350   7.253  27.264
 8649W        W 9513  16.635   6.999  27.684
 8650W        W 9514  15.990   5.962  27.669
 8651W        W 9515  17.819   6.611  27.857
 8652W        W 9516  15.403   4.103  26.503
 8653W        W 9517  15.982   6.472  27.599
 8654W        W 9518  15.506   4.315  25.538
 8655W        W 9519  16.209   4.937  27.898
 8656W        W 9520  17.222   3.915  27.764
 8657W        W 9521  14.689   5.718  27.731
 8658W        W 9522  16.258   5.386  25.856
 8659W        W 9523  15.625   3.842  25.650
 8660W        W 9524  16.238   4.736  26.575
 8661W        W 9525  17.242   4.034  28.294
 8662W        W 9526  15.859   5.905  28.488
 8663W        W 9527  16.648   5.691  28.811
 8664W        W 9528  17.114   5.648  28.558
 8665W        W 9529  16.514   3.939  28.971
 8666W        W 9530  15.783   4.246  27.439
 8667W        W 9531  15.093   4.198  26.936
 8668W        W 9532  14.914   7.079  26.686
 8669W        W 9533  16.452   6.559  28.686
 8670W        W 9534  15.329   5.875  26.312
 8671W        W 9535  16.999   5.386  27.340
 8672W        W 9536  17.321   5.260  27.713
 8673W        W 9537  16.380   5.624  27.642
 8674W        W 9538  17.009   6.056  25.543
 8675W        W 9539  16.575   4.214  27.054
 8676W        W 9540  18.337   4.515  26.305
 8677W        W 9541  14.874   6.949  28.416
 8678W        W 9542  15.051   6.157  27.955
 8679W        W 9543  14.594   7.351  26.349
 8680W        W 9544  16.548   4.601  27.762
 8681W        W 9545  15.814   6.471  25.927
 8682W        W 9546  17.949   7.079  26.096
 8683W        W 9547  16.795   5.305  26.052
 8684W        W 9548  15.754   4.532  26.521
 8685W        W 9549  16.518   4.410  25.731
 8686W        W 9550  16.905   6.123  28.637
 8687W        W 9551  17.475   4.116  26.266
 8688W        W 9552  14.638   3.802  25.791
 8689W        W 9553  16.028   6.284  28.106
 8690W        W 9554  15.804   6.151  27.222
 8691W        W 9555  15.434   6.165  25.727
 8692W        W 9556  14.718   6.653  26.355
 8693W        W 9557  15.346   5.278  28.810
 8694W        W 9558  16.034   3.897  28.778
 8695W        W 9559  16.452   4.120  27.948
 8696W        W 9560  15.823   3.847  26.645
 8697W        W 9561  16.550   3.584  25.970
 8698W        W 9562  14.898   3.851  27.607
 8699W        W 9563  14.769   4.592  27.027
 8700W        W 9564  17.676   4.030  27.418
 8701W        W 9565  14.946   4.345  26.440
 8702W        W 9566  17.658   4.131  27.934
 8703W        W 9567  18.011   5.140  25.589
 8704W        W 9568  15.321   4.036  27.360
 8705W        W 9569  16.388   4.557  28.243
 8706W        W 9570  14.579   4.312  25.857
 8707W        W 9571  15.398   5.655  28.428
 8708W        W 9572  16.586   5.139  27.597
 8709W        W 9573  16.562   7.211  25.909
 8710W        W 9574  14.744   5.535  25.626
 8711W        W 9575  15.496   6.203  28.747
 8712W        W 9576  15.087   5.226  28.362
 8713W        W 9577  15.941   5.369  27.949
 8714W        W 9578  17.661   3.701  28.239
 8715W        W 9579  18.142   5.439  28.392
 8716W        W 9580  18.274   5.220  26.014
 8717W        W 9581  16.995   5.787  26.114
 8718W        W 9582  17.562   7.282  25.377
 8719W        W 9583  16.607   5.141   0.021
 8720W        W 9584  15.154   5.961   0.074
 8721W        W 9585  18.197   4.191  28.758
 8722W        W 9586  17.765   5.020  27.563
 8723W        W 9587  16.237   7.029  28.903
 8724W        W 9588  16.113   3.727  25.739
 8725W        W 9589  17.799   6.082  25.862
 8726W        W 9590  15.339   4.397  28.642
 8727W        W 9591  15.790   6.566  28.499
 8728W        W 9592  18.072   4.305  28.208
 8729W        W 9593  17.555   7.463  26.081
 8730W        W 9594  17.306   5.749  27.566
 8731W        W 9595  15.587   4.165  28.254
 8732W        W 9596  15.893   5.295  28.823
 8733W        W 9597  15.437   6.400  26.300
 8734W        W 9598  17.450   5.742  26.671
 8735W        W 9599  15.110   4.326  28.161
 8736W        W 9600  16.312   6.416  26.870
 8737W        W 9601  18.220   5.141  26.924
 8738W        W 9602  16.494   3.893  28.453
 8739W        W 9603  17.306   6.533  27.740
 8740W        W 9604  17.610   6.820  27.429
 8741W        W 9605  16.325   6.408  25.948
 8742W        W 9606  14.860   6.339  28.833
 8743W        W 9607  15.498   4.440  27.822
 8744W        W 9608  15.404   3.768  26.931
 8745W        W 9609  16.987   4.836  27.660
 8746W        W 9610  15.730   5.735  25.822
 8747W        W 9611  17.844   5.806  27.571
 8748W        W 9612  15.295   6.668  28.688
 8749W        W 9613  17.789   7.338  26.538
 8750W        W 9614  15.626   4.256  26.949
 8751W        W 9615  15.298   5.456  27.199
 8752W        W 9616  15.697   7.197  27.867
 8753W        W 9617  17.896   7.179  28.678
 8754W        W 9618  16.886   5.534  27.830
 8755W        W 9619  14.931   5.011  25.629
 8756W        W 9620  18.071   6.963  26.738
 8757W        W 9621  17.838   4.455  26.140
 8758W        W 9622  15.832   3.699  28.322
 8759W        W 9623  17.931   6.581  27.071
 8760W        W 9624  17.724   4.937  26.985
 8761W        W 9625  15.708   4.817  26.995
 8762W        W 9626  16.199   5.034  28.404
 8763W        W 9627  17.253   6.379  28.239
 8764W        W 9628  15.863   4.643  28.328
 8765W        W 9629  15.697   7.119  27.060
 8766W        W 9630  15.234   7.193  28.684
 8767W        W 9631  15.316   6.677  25.844
 8768W        W 9632  17.827   6.096  26.743
 8769W        W 9633  15.356   4.771  28.269
 8770W        W 9634  18.188   4.725  25.859
 8771W        W 9635  15.818   6.028  26.269
 8772W        W 9636  16.730   5.282  28.506
 8773W        W 9637  16.734   4.922  28.118
 8774W        W 9638  15.381   5.323  27.926
 8775W        W 9639  17.639   7.256  27.756
 8776W        W 9640  17.444   3.741  28.714
 8777W        W 9641  15.014   3.966  28.615
 8778W        W 9642  15.541   5.064  27.444
 8779W        W 9643  15.979   4.758  25.643
 8780W        W 9644  14.710   6.458  28.346
 8781W        W 9645  16.085   5.237  27.468
 8782W        W 9646  16.005   4.231  25.702
 8783W        W 9647  15.371   5.185  26.768
 8784W        W 9648  14.782   7.219  27.991
 8785W        W 9649  17.751   5.295  26.086
 8786W        W 9650  17.750   4.100  28.548
 8787W        W 9651  17.460   6.393  26.985
 8788W        W 9652  14.774   5.225  28.829
 8789W        W 9653  17.979   3.968  26.078
 8790W        W 9654  17.546   6.173  26.311
 8791W        W 9655  16.385   5.172  26.355
 8792W        W 9656  17.417   3.980  25.708
 8793W        W 9657  17.416   4.812  27.935
 8794W        W 9658  15.099   4.969  27.170
 8795W        W 9659  15.495   6.158  26.760
 8796W        W 9660  17.225   4.790  26.797
 8797W        W 9661  16.283   4.285  27.468
 8798W        W 9662  18.098   6.187  27.958
 8799W        W 9663  18.240   4.335  27.710
 8800W        W 9664  14.626   7.001  27.129
 8801W        W 9665  14.900   6.136  26.454
 8802W        W 9666  15.100   3.843   0.124
 8803W        W 9667  16.258   6.585   0.185
 8804W        W 9668  17.949   5.602  26.938
 8805W        W 9669  17.459   5.676  25.923
 8806W        W 9670  16.861   7.284  28.058
 8807W        W 9671  17.419   5.856  28.933
 8808W        W 9672  16.070   3.641  26.240
 8809W        W 9673  16.983   4.553  27.206
 8810W        W 9674  14.860   6.160  27.490
 8811W        W 9675  15.820   4.099  26.172
 8812W        W 9676  15.590   5.724  28.900
 8813W        W 9677  16.718   4.602  26.750
 8814W        W 9678  17.019   6.063  27.885
 8815W        W 9679  15.177   6.587  28.190
 8816W        W 9680  15.689   6.612   0.026
 8817W        W 9681  15.615   4.552  25.981
 8818W        W 9682  17.116   4.518  26.345
 8819W        W 9683  16.958   6.640  28.553
 8820W        W 9684  15.783   5.331  27.060
 8821W        W 9685  15.238   6.997  27.895
 8822W        W 9686  18.062   7.248  25.602
 8823W        W 9687  14.949   5.670  28.689
 8824W        W 9688  16.773   5.886  27.440
 8825W        W 9689  15.169   5.732  26.787
 8826W        W 9690  15.644   6.636  27.951
 8827W        W 9691  16.083   3.973  27.087
 8828W        W 9692  14.608   5.854  26.063
 8829W        W 9693  16.422   4.899  25.894
 8830W        W 9694  14.854   5.330  26.889
 8831W        W 9695  16.081   4.153  28.314
 8832W        W 9696  17.895   3.852  25.573
 8833W        W 9697  17.988   5.617  28.859
 8834W        W 9698  16.748   7.021  28.816
 8835W        W 9699  18.037   5.995  28.521
 8836W        W 9700  17.675   6.655   0.114
 8837W        W 9701  15.364   7.289  27.468
 8838W        W 9702  18.267   5.866  26.627
 8839W        W 9703  16.813   5.031  27.017
 8840W        W 9704  16.350   3.741  26.700
 8841W        W 9705  15.542   6.729  26.737
 8842W        W 9706  16.023   4.452  27.880
 8843W        W 9707  15.768   3.716  27.414
 8844W        W 9708  14.804   6.997  25.976
 8845W        W 9709  16.521   5.894  26.923
 8846W        W 9710  15.509   6.964  28.316
 8847W        W 9711  14.844   5.566  26.420
 8848W        W 9712  14.675   4.157  27.271
 8849W        W 9713  16.322   6.157  27.330
 8850W        W 9714  14.597   3.973  26.269
 8851W        W 9715  17.161   5.210  28.203
 8852W        W 9716  17.332   4.474  25.853
 8853W        W 9717  17.713   6.303  27.450
 8854W        W 9718  16.398   6.668  27.348
 8855W        W 9719  15.728   6.863  26.260
 8856W        W 9720  17.025   3.627  25.666
 8857W        W 9721  14.924   7.019  27.518
 8858W        W 9722  17.007   4.742  28.961
 8859W        W 9723  15.020   4.376   0.044
 8860W        W 9724  14.680   4.885  26.609
 8861W        W 9725  15.949   5.023  26.090
 8862W        W 9726  17.196   5.165  28.719
 8863W        W 9727  15.678   5.574  27.524
 8864W        W 9728  16.858   3.800  26.938
 8865W        W 9729  16.195   7.119  27.149
 8866W        W 9730  17.447   6.872  28.091
 8867W        W 9731  17.119   6.720  27.278
 8868W        W 9732  17.063   5.793  27.026
 8869W        W 9733  16.359   4.066  26.093
 8870W        W 9734  18.256   3.816  26.802
 8871W        W 9735  15.743   5.235  25.631
 8872W        W 9736  18.107   4.660  26.749
 8873W        W 9737  16.642   5.719  25.751
 8874W        W 9738  17.517   5.983  28.443
 8875W        W 9739  17.836   6.578  26.029
 8876W        W 9740  15.835   4.367  28.763
 8877W        W 9741  15.703   4.904  27.903
 8878W        W 9742  17.775   6.415  28.330
 8879W        W 9743  16.823   4.316  28.531
 8880W        W 9744  14.674   4.909  28.432
 8881W        W 9745  16.459   5.354  28.071
 8882W        W 9746  14.925   6.132  26.970
 8883W        W 9747  14.978   5.299  27.558
 8884W        W 9748  17.343   5.667  28.074
 8885W        W 9749  17.226   6.868  28.949
 8886W        W 9750  17.114   4.737  28.439
 8887W        W 9751  17.541   6.898  26.895
 8888W        W 9752  16.378   6.620  27.912
 8889W        W 9753  15.604   6.838  27.485
 8890W        W 9754  17.561   6.119  27.910
 8891W        W 9755  16.493   6.143  28.991
 8892W        W 9756  15.324   5.967  27.239
 8893W        W 9757  17.570   5.909  27.146
 8894W        W 9758  17.167   7.043  27.690
 8895W        W 9759  15.180   6.560  27.641
 8896W        W 9760  16.155   4.822  28.877
 8897W        W 9761  16.334   6.690  26.390
 8898W        W 9762  16.007   6.253  28.859
 8899W        W 9763  15.907   6.447  26.542
 8900W        W 9764  15.422   4.820  25.531
 8901W        W 9765  14.601  10.970   3.366
 8902W        W 9766  15.063   9.840   2.908
 8903W        W 9767  17.783   9.554   0.713
 8904W        W 9768  18.021  10.594   2.659
 8905W        W 9769  15.945  10.625   0.375
 8906W        W 9770  15.806   8.718   1.182
 8907W        W 9771  15.390   8.702   1.514
 8908W        W 9772  16.300   9.309   0.708
 8909W        W 9773  16.122  10.618   2.999
 8910W        W 9774  14.624   8.034   2.849
 8911W        W 9775  15.270   7.218   2.771
 8912W        W 9776  17.054   7.678   1.753
 8913W        W 9777  16.885   8.410   0.523
 8914W        W 9778  17.307   8.182   3.253
 8915W        W 9779  14.665   7.692   2.483
 8916W        W 9780  14.744  10.501   3.539
 8917W        W 9781  16.173   9.758   0.337
 8918W        W 9782  14.715   8.504   1.955
 8919W        W 9783  15.773   8.599   2.999
 8920W        W 9784  18.139   8.283   1.843
 8921W        W 9785  17.903   9.419   2.511
 8922W        W 9786  16.349   8.820   1.545
 8923W        W 9787  16.882  10.128   1.971
 8924W        W 9788  15.290   9.419   2.307
 8925W        W 9789  14.505   8.990   2.003
 8926W        W 9790  15.882   9.108   2.971
 8927W        W 9791  17.857   8.887   3.236
 8928W        W 9792  15.536  10.125   1.730
 8929W        W 9793  16.704   9.959   2.664
 8930W        W 9794  16.242   8.469   1.924
 8931W        W 9795  16.114   9.314   1.631
 8932W        W 9796  16.884  10.260   3.432
 8933W        W 9797  16.246   9.331   3.377
 8934W        W 9798  16.422   9.204   2.917
 8935W        W 9799  14.703   8.335   3.254
 8936W        W 9800  17.347  10.093   3.232
 8937W        W 9801  15.010   7.419   1.042
 8938W        W 9802  15.604   9.819   2.152
 8939W        W 9803  18.089   9.674   1.547
 8940W        W 9804  17.525   7.900   1.799
 8941W        W 9805  17.837   8.054  28.973
 8942W        W 9806  18.186   8.973   2.405
 8943W        W 9807  16.220  10.579   2.128
 8944W        W 9808  18.042   9.993   0.773
 8945W        W 9809  15.182  10.992   0.656
 8946W        W 9810  15.531  10.861   1.170
 8947W        W 9811  15.149   7.528   2.334
 8948W        W 9812  17.757   8.678   2.531
 8949W        W 9813  17.228   9.046   1.200
 8950W        W 9814  17.221   8.744   0.321
 8951W        W 9815  16.449   9.970   2.202
 8952W        W 9816  16.542   8.338   1.508
 8953W        W 9817  16.836  10.391   2.418
 8954W        W 9818  17.720   9.136   0.992
 8955W        W 9819  16.588   7.696   0.948
 8956W        W 9820  15.316  10.499   0.762
 8957W        W 9821  14.770   7.857   1.210
 8958W        W 9822  17.662   8.397   1.658
 8959W        W 9823  15.016  10.214   1.779
 8960W        W 9824  16.285  10.323   0.713
 8961W        W 9825  17.516   8.455  28.917
 8962W        W 9826  14.757  10.290   2.274
 8963W        W 9827  15.499   9.945   2.636
 8964W        W 9828  15.640   9.161   1.397
 8965W        W 9829  15.631   7.634   2.145
 8966W        W 9830  18.178   7.402   1.765
 8967W        W 9831  15.257   9.246   0.122
 8968W        W 9832  15.108   8.324   0.394
 8969W        W 9833  14.989  10.218   1.258
 8970W        W 9834  15.915   9.567   1.209
 8971W        W 9835  17.562  10.542   2.908
 8972W        W 9836  16.414   8.259   0.668
 8973W        W 9837  17.798  10.713   1.433
 8974W        W 9838  17.349   8.681   2.974
 8975W        W 9839  18.180  10.096   1.277
 8976W        W 9840  16.847   9.474   2.712
 8977W        W 9841  14.741   8.953   1.162
 8978W        W 9842  15.810   9.483   2.468
 8979W        W 9843  16.931   8.672   0.965
 8980W        W 9844  16.670   9.086   1.112
 8981W        W 9845  15.046   8.484   2.333
 8982W        W 9846  15.045   8.426   2.847
 8983W        W 9847  14.908   7.479   1.537
 8984W        W 9848  16.779   7.747   2.188
 8985W        W 9849  16.421   7.860   3.171
 8986W        W 9850  16.939   7.909   0.638
 8987W        W 9851  18.105  10.420   3.170
 8988W        W 9852  16.815   7.472   3.130
 8989W        W 9853  17.843   9.948   3.283
 8990W        W 9854  17.354   7.958   2.792
 8991W        W 9855  17.077   7.794   1.154
 8992W        W 9856  17.642   9.171   3.680
 8993W        W 9857  15.328  10.635   1.616
 8994W        W 9858  15.927   8.387   0.807
 8995W        W 9859  15.370   7.587   3.118
 8996W        W 9860  17.750   8.288   0.875
 8997W        W 9861  17.974   8.739   0.741
 8998W        W 9862  15.637  10.739   3.260
 8999W        W 9863  15.713   7.412   0.613
 9000W        W 9864  17.924   7.761   1.523
 9001W        W 9865  18.140  10.173   0.219
 9002W        W 9866  14.815   9.379   1.824
 9003W        W 9867  16.909   7.833   0.122
 9004W        W 9868  18.114  10.334   1.799
 9005W        W 9869  17.959   7.483   2.406
 9006W        W 9870  16.607   8.856   3.279
 9007W        W 9871  16.293   9.808   0.830
 9008W        W 9872  17.121   9.316   3.709
 9009W        W 9873  16.544   7.466   1.803
 9010W        W 9874  15.199   8.317   1.825
 9011W        W 9875  14.988   9.355   2.775
 9012W        W 9876  16.743  10.541   1.428
 9013W        W 9877  17.703   8.271   2.152
 9014W        W 9878  16.653  10.691   2.817
 9015W        W 9879  17.904   9.404   0.241
 9016W        W 9880  16.145   9.097   1.155
 9017W        W 9881  18.158   7.590   2.871
 9018W        W 9882  16.334   9.564   2.552
 9019W        W 9883  16.743   8.342   2.011
 9020W        W 9884  17.435   8.723   0.826
 9021W        W 9885  17.667   8.531   0.398
 9022W        W 9886  17.754  10.317   1.070
 9023W        W 9887  17.346   9.799   1.593
 9024W        W 9888  17.086   9.111   0.688
 9025W        W 9889  16.637   9.232   1.642
 9026W        W 9890  17.610   8.912   1.638
 9027W        W 9891  14.893   8.024   2.170
 9028W        W 9892  17.640   9.094   2.824
 9029W        W 9893  18.084  10.739   2.142
 9030W        W 9894  16.013   9.913   1.568
 9031W        W 9895  17.155  10.765   2.671
 9032W        W 9896  16.896   8.100   2.538
 9033W        W 9897  16.245  10.872   2.564
 9034W        W 9898  17.871   7.783   1.013
 9035W        W 9899  17.624   9.090   2.227
 9036W        W 9900  14.489   8.266   2.367
 9037W        W 9901  17.514   8.052   1.290
 9038W        W 9902  17.754   8.397   3.068
 9039W        W 9903  16.863   9.996   1.479
 9040W        W 9904  16.252  10.537   1.185
 9041W        W 9905  15.128   7.810   0.461
 9042W        W 9906  16.268   7.627   2.221
 9043W        W 9907  15.417  10.681   0.265
 9044W        W 9908  15.469   9.159   0.588
 9045W        W 9909  16.447   9.710   3.041
 9046W        W 9910  16.260   8.069   1.114
 9047W        W 9911  17.461   7.541   1.407
 9048W        W 9912  17.291  10.883   1.652
 9049W        W 9913  16.705  10.609   1.950
 9050W        W 9914  16.078   9.630   2.047
 9051W        W 9915  17.839  10.281   2.282
 9052W        W 9916  15.407   7.714   0.912
 9053W        W 9917  15.976  10.148   2.016
 9054W        W 9918  15.522   7.902   0.120
 9055W        W 9919  16.373   8.622   2.390
 9056W        W 9920  17.230   7.434   2.209
 9057W        W 9921  14.714   9.397   2.337
 9058W        W 9922  16.297   9.038   0.257
 9059W        W 9923  15.621   7.406   0.108
 9060W        W 9924  16.339   8.590   1.084
 9061W        W 9925  17.028   7.591   2.659
 9062W        W 9926  15.969   9.612   2.931
 9063W        W 9927  16.767   9.350   3.303
 9064W        W 9928  17.226   9.363   3.057
 9065W        W 9929  16.520   7.541   3.562
 9066W        W 9930  15.648   7.980   1.699
 9067W        W 9931  15.235   8.021   1.372
 9068W        W 9932  15.043  10.715   1.147
 9069W        W 9933  16.529  10.237   3.064
 9070W        W 9934  15.237   9.632   0.533
 9071W        W 9935  17.161   9.160   1.712
 9072W        W 9936  17.350   8.659   2.052
 9073W        W 9937  16.555   9.436   2.115
 9074W        W 9938  17.022   9.748   0.083
 9075W        W 9939  16.641   7.826   1.434
 9076W        W 9940  18.286   8.311   0.887
 9077W        W 9941  14.778  10.638   2.997
 9078W        W 9942  15.015   9.855   2.384
 9079W        W 9943  14.686  10.886   0.812
 9080W        W 9944  16.408   8.109   2.334
 9081W        W 9945  15.832  10.144   0.534
 9082W        W 9946  17.768  10.384   0.547
 9083W        W 9947  16.527   8.803   0.653
 9084W        W 9948  15.403   8.419   1.066
 9085W        W 9949  16.536   8.242   0.161
 9086W        W 9950  16.925   9.819   3.151
 9087W        W 9951  17.431   7.778   0.762
 9088W        W 9952  14.679   7.501   0.278
 9089W        W 9953  16.001   9.955   2.482
 9090W        W 9954  15.662   9.578   1.703
 9091W        W 9955  15.648   9.769   0.225
 9092W        W 9956  14.827  10.202   0.749
 9093W        W 9957  15.320   8.882   2.918
 9094W        W 9958  15.873   7.642   3.098
 9095W        W 9959  16.539   7.711   2.673
 9096W        W 9960  15.863   7.538   1.119
 9097W        W 9961  16.785   7.414   0.550
 9098W        W 9962  14.745   7.545   2.007
 9099W        W 9963  14.933   8.455   1.344
 9100W        W 9964  17.693   7.418   1.959
 9101W        W 9965  15.062   8.098   0.874
 9102W        W 9966  17.557   7.808   2.329
 9103W        W 9967  18.041   8.894   0.248
 9104W        W 9968  15.202   7.782   1.848
 9105W        W 9969  16.460   8.225   2.806
 9106W        W 9970  14.672   8.024   0.307
 9107W        W 9971  15.481   9.465   2.857
 9108W        W 9972  16.764   8.859   1.995
 9109W        W 9973  16.507  10.670   0.375
 9110W        W 9974  14.766   9.383   0.230
 9111W        W 9975  15.602   9.931   3.155
 9112W        W 9976  14.875   8.879   2.631
 9113W        W 9977  16.109   9.069   2.512
 9114W        W 9978  17.540   7.472   2.732
 9115W        W 9979  18.151   9.169   2.891
 9116W        W 9980  18.162   9.207   0.667
 9117W        W 9981  16.778   9.528   0.824
 9118W        W 9982  17.531  10.815   0.305
 9119W        W 9983  16.778   8.923   3.756
 9120W        W 9984  15.180   9.805   3.411
 9121W        W 9985  18.194   7.836   3.392
 9122W        W 9986  17.912   8.720   2.011
 9123W        W 9987  16.123  10.791   3.481
 9124W        W 9988  16.095   7.499   0.282
 9125W        W 9989  17.729   9.887   0.320
 9126W        W 9990  15.526   8.139   2.876
 9127W        W 9991  16.048  10.115   2.957
 9128W        W 9992  17.806   8.156   2.634
 9129W        W 9993  17.289  11.065   0.756
 9130W        W 9994  17.431   9.538   2.031
 9131W        W 9995  15.534   7.683   2.645
 9132W        W 9996  16.109   8.813   3.385
 9133W        W 9997  15.437   9.998   0.851
 9134W        W 9998  17.334   9.514   0.979
 9135W        W 9999  15.092   7.953   2.644
 9136W        W10000  16.405  10.056   1.261
 9137W        W10001  18.197   8.668   1.512
 9138W        W10002  16.313   7.391   3.020
 9139W        W10003  17.399  10.089   2.023
 9140W        W10004  17.637  10.546   1.895
 9141W        W10005  16.644   9.958   0.466
 9142W        W10006  14.715  10.029   3.274
 9143W        W10007  15.416   8.093   2.260
 9144W        W10008  15.407   7.532   1.409
 9145W        W10009  17.184   8.105   2.107
 9146W        W10010  15.897   9.335   0.343
 9147W        W10011  17.868   9.326   1.851
 9148W        W10012  15.144  10.293   3.139
 9149W        W10013  17.744  10.803   0.893
 9150W        W10014  15.733   8.035   1.162
 9151W        W10015  15.317   9.210   1.808
 9152W        W10016  15.865  10.996   2.247
 9153W        W10017  17.834  10.867   3.210
 9154W        W10018  17.030   9.251   2.206
 9155W        W10019  14.960   8.946   0.439
 9156W        W10020  18.198  10.469   0.861
 9157W        W10021  17.827   7.974   0.484
 9158W        W10022  15.829   7.274   2.701
 9159W        W10023  17.698  10.165   1.556
 9160W        W10024  17.790   8.679   1.214
 9161W        W10025  16.013   8.344   1.480
 9162W        W10026  16.272   8.709   2.889
 9163W        W10027  17.250   9.869   2.777
 9164W        W10028  15.986   8.338   2.596
 9165W        W10029  15.916  10.415   1.543
 9166W        W10030  15.132  10.776   3.342
 9167W        W10031  15.296  10.162   0.353
 9168W        W10032  17.731   9.804   1.182
 9169W        W10033  15.500   8.531   2.551
 9170W        W10034  18.144   8.387   0.389
 9171W        W10035  15.809   9.662   0.716
 9172W        W10036  16.908   8.988   2.884
 9173W        W10037  16.868   8.603   2.462
 9174W        W10038  15.577   9.032   2.502
 9175W        W10039  17.605  10.752   2.383
 9176W        W10040  17.331   7.598   3.206
 9177W        W10041  14.901   7.550   2.926
 9178W        W10042  15.423   8.747   2.041
 9179W        W10043  15.665   8.380   0.186
 9180W        W10044  14.674  10.169   2.781
 9181W        W10045  16.269   9.005   2.025
 9182W        W10046  16.053   8.036   0.227
 9183W        W10047  15.309   8.933   1.050
 9184W        W10048  14.871  10.833   2.521
 9185W        W10049  17.593   9.083   0.490
 9186W        W10050  17.766   7.870   3.089
 9187W        W10051  17.288  10.107   1.199
 9188W        W10052  14.843   8.838   3.156
 9189W        W10053  17.842   7.464   0.545
 9190W        W10054  17.492   9.980   0.753
 9191W        W10055  15.953   8.909   0.693
 9192W        W10056  17.460   7.670   0.235
 9193W        W10057  17.337   8.389   2.522
 9194W        W10058  14.932   8.899   1.651
 9195W        W10059  15.365   9.829   1.359
 9196W        W10060  17.305   8.542   1.312
 9197W        W10061  16.409   7.975   1.858
 9198W        W10062  18.144   9.874   2.413
 9199W        W10063  17.996   7.836   2.035
 9200W        W10064  14.788  10.635   1.584
 9201W        W10065  15.005   9.764   0.999
 9202W        W10066  15.057   7.573   3.532
 9203W        W10067  16.377  10.333   3.539
 9204W        W10068  18.062   9.157   1.387
 9205W        W10069  17.328   9.555   0.464
 9206W        W10070  16.761  10.908   2.361
 9207W        W10071  17.488   9.603   3.430
 9208W        W10072  16.220   7.397   0.771
 9209W        W10073  17.046   8.163   1.559
 9210W        W10074  14.673   9.858   1.958
 9211W        W10075  15.995   7.863   0.714
 9212W        W10076  15.718   9.456   3.358
 9213W        W10077  16.757   8.195   1.058
 9214W        W10078  17.056   9.784   2.316
 9215W        W10079  15.131  10.332   2.634
 9216W        W10080  15.878  10.321   3.407
 9217W        W10081  15.534   8.115   0.620
 9218W        W10082  17.238   8.247   0.887
 9219W        W10083  17.014  10.314   2.905
 9220W        W10084  15.864   8.805   1.714
 9221W        W10085  15.405  10.732   2.386
 9222W        W10086  18.047  10.695   0.227
 9223W        W10087  14.755   9.486   3.259
 9224W        W10088  16.947   9.619   1.843
 9225W        W10089  15.443   9.462   1.010
 9226W        W10090  15.854  10.472   2.471
 9227W        W10091  16.093   7.803   1.505
 9228W        W10092  14.659   9.670   0.644
 9229W        W10093  16.138   8.554   0.348
 9230W        W10094  15.077   9.326   1.355
 9231W        W10095  16.038   7.826   2.643
 9232W        W10096  17.935   7.540   0.043
 9233W        W10097  18.003   9.411   3.327
 9234W        W10098  16.648  10.710   3.321
 9235W        W10099  18.164   9.693   2.897
 9236W        W10100  17.656  10.442   3.423
 9237W        W10101  15.436  11.031   1.963
 9238W        W10102  18.172   9.560   1.054
 9239W        W10103  16.866   8.763   1.486
 9240W        W10104  16.332   7.385   1.312
 9241W        W10105  15.494  10.336   1.238
 9242W        W10106  15.938   8.070   2.134
 9243W        W10107  15.805   7.438   1.711
 9244W        W10108  14.902  10.614   0.431
 9245W        W10109  16.436   9.526   1.244
 9246W        W10110  15.606  10.382   2.903
 9247W        W10111  15.001   9.279   0.829
 9248W        W10112  14.776   8.055   1.675
 9249W        W10113  16.468   9.737   1.711
 9250W        W10114  14.693   7.706   0.736
 9251W        W10115  17.262   8.908   2.520
 9252W        W10116  17.333   8.146   0.376
 9253W        W10117  17.862   9.856   1.965
 9254W        W10118  16.406  10.246   1.739
 9255W        W10119  15.827  10.542   0.881
 9256W        W10120  17.080   7.321   0.141
 9257W        W10121  15.019  10.686   2.038
 9258W        W10122  16.912   8.451   3.506
 9259W        W10123  15.094   8.010   3.167
 9260W        W10124  14.950   8.603   0.831
 9261W        W10125  15.473   8.644   0.604
 9262W        W10126  17.121   8.932   3.362
 9263W        W10127  15.777   9.192   2.046
 9264W        W10128  16.880   7.347   1.394
 9265W        W10129  16.311  10.746   1.648
 9266W        W10130  17.354  10.295   2.497
 9267W        W10131  17.202  10.373   1.640
 9268W        W10132  16.965   9.491   1.337
 9269W        W10133  16.469   7.803   0.439
 9270W        W10134  18.139   7.378   1.240
 9271W        W10135  15.743   8.884   0.206
 9272W        W10136  18.017   8.218   1.321
 9273W        W10137  16.621   9.452   0.312
 9274W        W10138  17.665   9.610   2.933
 9275W        W10139  17.287  10.163   0.300
 9276W        W10140  16.008   8.145   3.078
 9277W        W10141  15.889   8.694   2.231
 9278W        W10142  17.819  10.110   2.794
 9279W        W10143  16.892   7.968   3.025
 9280W        W10144  14.539   8.540   2.806
 9281W        W10145  16.621   9.067   2.461
 9282W        W10146  14.856   9.780   1.485
 9283W        W10147  14.996   8.997   2.156
 9284W        W10148  17.357   9.417   2.552
 9285W        W10149  17.195  10.647   3.254
 9286W        W10150  16.872   8.482   2.983
 9287W        W10151  17.351  10.623   1.195
 9288W        W10152  16.344  10.341   2.581
 9289W        W10153  15.690  10.570   1.987
 9290W        W10154  17.613   9.835   2.418
 9291W        W10155  16.571   9.844   3.527
 9292W        W10156  15.187   9.733   1.878
 9293W        W10157  17.572   9.377   1.428
 9294W        W10158  17.182  10.632   2.118
 9295W        W10159  15.328  10.250   2.183
 9296W        W10160  16.423   8.381   3.277
 9297W        W10161  16.691  10.632   0.907
 9298W        W10162  16.082   9.842   3.395
 9299W        W10163  15.916  10.075   1.073
 9300W        W10164  15.264   8.713   0.097
 9301W        W10165  14.762  10.961   7.040
 9302W        W10166  15.103   9.817   6.614
 9303W        W10167  17.859   9.470   4.242
 9304W        W10168  17.944  10.681   6.404
 9305W        W10169  15.714  10.658   3.803
 9306W        W10170  16.159   8.872   4.563
 9307W        W10171  15.761   8.853   5.301
 9308W        W10172  16.510   9.285   4.318
 9309W        W10173  16.103  10.577   6.661
 9310W        W10174  14.593   8.057   6.668
 9311W        W10175  15.227   7.228   6.505
 9312W        W10176  17.271   7.673   5.305
 9313W        W10177  16.918   8.475   4.031
 9314W        W10178  17.218   8.206   6.910
 9315W        W10179  14.706   7.704   6.248
 9316W        W10180  14.939  10.504   7.227
 9317W        W10181  16.221  10.024   3.905
 9318W        W10182  14.712   8.475   5.730
 9319W        W10183  15.836   8.692   6.841
 9320W        W10184  18.066   8.232   5.403
 9321W        W10185  17.923   9.462   6.225
 9322W        W10186  16.465   8.612   5.430
 9323W        W10187  16.820  10.040   5.580
 9324W        W10188  15.173   9.433   5.937
 9325W        W10189  14.409   8.892   5.611
 9326W        W10190  15.747   9.061   6.476
 9327W        W10191  18.067   8.792   6.972
 9328W        W10192  15.444  10.384   5.276
 9329W        W10193  16.562  10.025   6.384
 9330W        W10194  15.996   8.553   5.661
 9331W        W10195  15.976   9.367   5.259
 9332W        W10196  17.038  10.288   7.146
 9333W        W10197  16.296   9.347   7.163
 9334W        W10198  16.243   9.227   6.653
 9335W        W10199  14.442   8.406   7.029
 9336W        W10200  17.374  10.019   6.868
 9337W        W10201  14.837   7.413   4.833
 9338W        W10202  15.532   9.880   5.858
 9339W        W10203  18.139   9.621   5.249
 9340W        W10204  17.072   7.895   5.722
 9341W        W10205  17.763   8.158   3.538
 9342W        W10206  16.252  10.614   5.792
 9343W        W10207  17.764   9.973   4.167
 9344W        W10208  15.043  10.956   4.298
 9345W        W10209  15.483  10.935   4.619
 9346W        W10210  15.141   7.511   5.950
 9347W        W10211  17.205   8.948   4.732
 9348W        W10212  17.277   8.844   3.873
 9349W        W10213  16.397   9.966   5.888
 9350W        W10214  16.600   8.100   5.346
 9351W        W10215  16.888  10.310   6.114
 9352W        W10216  17.631   9.266   4.648
 9353W        W10217  16.888   7.748   4.518
 9354W        W10218  15.396  10.555   4.255
 9355W        W10219  14.500   7.823   4.964
 9356W        W10220  17.345   8.702   5.259
 9357W        W10221  14.948  10.264   5.372
 9358W        W10222  16.217  10.599   3.959
 9359W        W10223  17.508   8.602   3.490
 9360W        W10224  14.796  10.314   5.913
 9361W        W10225  15.502  10.026   6.351
 9362W        W10226  16.241   9.337   4.786
 9363W        W10227  15.638   7.720   5.866
 9364W        W10228  18.170   7.374   5.505
 9365W        W10229  15.218   9.273   3.250
 9366W        W10230  14.869   8.049   3.684
 9367W        W10231  15.097  10.230   4.876
 9368W        W10232  16.123   9.795   5.000
 9369W        W10233  17.579  10.465   6.704
 9370W        W10234  16.597   8.161   4.372
 9371W        W10235  17.802  10.759   5.281
 9372W        W10236  17.617   8.594   6.795
 9373W        W10237  18.192  10.129   5.054
 9374W        W10238  16.799   9.550   6.442
 9375W        W10239  14.461   8.990   4.781
 9376W        W10240  15.670   9.434   6.102
 9377W        W10241  16.876   8.579   4.559
 9378W        W10242  16.952   9.370   4.582
 9379W        W10243  15.027   8.523   6.155
 9380W        W10244  15.011   8.476   6.688
 9381W        W10245  14.919   7.446   5.342
 9382W        W10246  16.568   7.774   5.792
 9383W        W10247  16.356   7.853   6.788
 9384W        W10248  16.899   7.936   4.010
 9385W        W10249  18.028  10.490   6.959
 9386W        W10250  16.838   7.593   6.739
 9387W        W10251  17.871   9.971   7.013
 9388W        W10252  17.398   7.685   6.657
 9389W        W10253  17.295   7.904   4.829
 9390W        W10254  17.651   8.962   7.234
 9391W        W10255  15.189  10.736   4.991
 9392W        W10256  16.196   8.123   4.007
 9393W        W10257  15.427   7.597   6.849
 9394W        W10258  17.646   8.240   4.474
 9395W        W10259  18.040   8.560   4.325
 9396W        W10260  15.758  10.760   6.994
 9397W        W10261  15.445   7.375   4.038
 9398W        W10262  17.949   7.768   5.240
 9399W        W10263  18.044  10.189   3.691
 9400W        W10264  15.045   9.407   5.426
 9401W        W10265  16.982   7.826   3.507
 9402W        W10266  18.091  10.380   5.501
 9403W        W10267  18.023   7.362   6.013
 9404W        W10268  16.633   8.858   6.720
 9405W        W10269  16.924   9.897   4.571
 9406W        W10270  17.182   9.223   7.210
 9407W        W10271  16.817   7.447   5.483
 9408W        W10272  15.111   8.275   5.463
 9409W        W10273  14.817   9.445   6.306
 9410W        W10274  16.714  10.537   5.137
 9411W        W10275  17.593   7.978   5.584
 9412W        W10276  16.592  10.563   6.469
 9413W        W10277  17.922   9.690   3.753
 9414W        W10278  16.639   8.994   4.760
 9415W        W10279  18.139   7.295   6.526
 9416W        W10280  16.323   9.572   6.250
 9417W        W10281  16.409   8.261   5.830
 9418W        W10282  17.338   8.656   4.338
 9419W        W10283  17.654   8.461   3.984
 9420W        W10284  17.538  10.363   4.464
 9421W        W10285  17.332   9.871   5.374
 9422W        W10286  17.330   9.226   4.242
 9423W        W10287  16.499   9.275   5.257
 9424W        W10288  17.468   9.184   5.120
 9425W        W10289  14.999   8.017   5.902
 9426W        W10290  17.479   9.122   6.779
 9427W        W10291  18.032  10.822   5.769
 9428W        W10292  15.941  10.294   5.150
 9429W        W10293  17.035  10.821   6.349
 9430W        W10294  16.804   8.084   6.119
 9431W        W10295  16.285  10.920   6.220
 9432W        W10296  17.805   7.804   4.713
 9433W        W10297  14.595   8.218   6.162
 9434W        W10298  17.637   8.170   5.102
 9435W        W10299  17.713   8.104   6.615
 9436W        W10300  16.893  10.041   5.084
 9437W        W10301  16.122  10.597   4.774
 9438W        W10302  14.965   7.619   4.059
 9439W        W10303  16.326   7.341   5.708
 9440W        W10304  15.152  10.794   3.837
 9441W        W10305  16.001   9.301   4.313
 9442W        W10306  16.375   9.709   6.740
 9443W        W10307  16.370   7.991   4.876
 9444W        W10308  17.632   7.438   5.038
 9445W        W10309  17.290  10.857   5.411
 9446W        W10310  16.734  10.537   5.652
 9447W        W10311  16.037   9.552   5.758
 9448W        W10312  17.938  10.343   6.019
 9449W        W10313  15.234   7.501   4.504
 9450W        W10314  15.953  10.191   5.731
 9451W        W10315  15.595   8.008   3.368
 9452W        W10316  16.402   8.751   5.949
 9453W        W10317  17.211   7.398   5.799
 9454W        W10318  14.665   9.347   5.805
 9455W        W10319  16.279   9.032   3.886
 9456W        W10320  15.608   7.531   3.568
 9457W        W10321  16.447   8.505   4.839
 9458W        W10322  17.061   7.623   6.253
 9459W        W10323  15.825   9.582   6.577
 9460W        W10324  16.741   9.352   6.912
 9461W        W10325  17.194   9.544   6.769
 9462W        W10326  16.398   7.583   7.246
 9463W        W10327  15.638   8.159   5.568
 9464W        W10328  15.010   7.874   5.064
 9465W        W10329  14.796  10.630   4.652
 9466W        W10330  16.440  10.235   6.859
 9467W        W10331  15.881   9.794   4.217
 9468W        W10332  16.965   9.126   5.148
 9469W        W10333  17.257   9.148   5.584
 9470W        W10334  16.522   9.405   5.809
 9471W        W10335  17.077   9.833   3.657
 9472W        W10336  16.826   7.715   5.048
 9473W        W10337  18.127   8.042   4.362
 9474W        W10338  14.909  10.772   6.586
 9475W        W10339  15.062   9.918   6.102
 9476W        W10340  14.210  10.663   4.260
 9477W        W10341  16.118   7.670   6.048
 9478W        W10342  15.837  10.291   4.143
 9479W        W10343  17.706  10.471   3.980
 9480W        W10344  16.906   8.970   4.246
 9481W        W10345  16.126   8.341   4.480
 9482W        W10346  16.549   8.052   3.648
 9483W        W10347  16.852   9.927   6.802
 9484W        W10348  17.403   7.686   4.370
 9485W        W10349  14.551   7.336   3.937
 9486W        W10350  15.948   9.887   6.149
 9487W        W10351  15.809   9.845   5.395
 9488W        W10352  15.707   9.947   3.730
 9489W        W10353  14.452  10.261   4.474
 9490W        W10354  15.344   8.976   6.816
 9491W        W10355  15.940   7.565   6.980
 9492W        W10356  16.548   7.625   6.324
 9493W        W10357  16.039   7.354   4.952
 9494W        W10358  16.908   7.428   4.101
 9495W        W10359  14.661   7.498   5.783
 9496W        W10360  14.687   8.290   5.150
 9497W        W10361  17.676   7.470   5.579
 9498W        W10362  14.850   7.869   4.557
 9499W        W10363  17.550   7.693   6.045
 9500W        W10364  17.982   8.756   3.723
 9501W        W10365  15.269   7.778   5.510
 9502W        W10366  16.319   8.077   6.325
 9503W        W10367  14.487   7.840   3.997
 9504W        W10368  15.312   9.369   6.461
 9505W        W10369  16.758   8.986   5.619
 9506W        W10370  16.722  10.633   3.827
 9507W        W10371  14.501   9.088   3.544
 9508W        W10372  15.556   9.998   6.850
 9509W        W10373  14.967   8.950   6.451
 9510W        W10374  16.095   9.141   6.100
 9511W        W10375  17.644   7.320   6.402
 9512W        W10376  18.230   9.132   6.507
 9513W        W10377  18.132   9.230   3.866
 9514W        W10378  16.966   9.611   4.127
 9515W        W10379  17.533  10.865   3.678
 9516W        W10380  16.750   8.927   7.224
 9517W        W10381  15.125   9.981   7.154
 9518W        W10382  18.262   7.850   7.173
 9519W        W10383  17.870   8.673   5.174
 9520W        W10384  16.254  10.687   7.153
 9521W        W10385  15.967   7.516   3.953
 9522W        W10386  17.544  10.046   3.708
 9523W        W10387  15.482   8.085   6.665
 9524W        W10388  16.009  10.070   6.621
 9525W        W10389  17.985   7.767   6.318
 9526W        W10390  17.315  10.801   4.137
 9527W        W10391  17.338   9.613   5.817
 9528W        W10392  15.418   7.689   6.338
 9529W        W10393  16.268   8.839   7.068
 9530W        W10394  15.477  10.051   4.447
 9531W        W10395  17.412   9.700   4.478
 9532W        W10396  15.039   8.045   6.417
 9533W        W10397  16.430  10.177   4.874
 9534W        W10398  18.343   8.799   4.944
 9535W        W10399  16.350   7.351   6.739
 9536W        W10400  17.274  10.119   5.832
 9537W        W10401  17.602  10.487   5.664
 9538W        W10402  16.741  10.119   3.939
 9539W        W10403  14.683   9.970   6.860
 9540W        W10404  15.447   8.189   6.138
 9541W        W10405  15.342   7.453   5.038
 9542W        W10406  16.882   8.419   5.671
 9543W        W10407  16.092   9.529   3.824
 9544W        W10408  17.718   9.445   5.497
 9545W        W10409  15.095  10.319   6.760
 9546W        W10410  17.700  10.860   4.512
 9547W        W10411  15.910   7.847   5.098
 9548W        W10412  15.549   9.447   5.587
 9549W        W10413  15.807  10.957   6.037
 9550W        W10414  17.720  10.878   7.032
 9551W        W10415  16.980   9.281   6.006
 9552W        W10416  14.493   8.581   3.644
 9553W        W10417  17.914  10.508   4.833
 9554W        W10418  17.721   7.945   4.031
 9555W        W10419  15.754   7.282   6.436
 9556W        W10420  17.696  10.208   5.212
 9557W        W10421  17.709   8.752   4.689
 9558W        W10422  16.113   8.315   5.212
 9559W        W10423  16.183   8.766   6.455
 9560W        W10424  17.185   9.932   6.381
 9561W        W10425  15.895   8.319   6.487
 9562W        W10426  15.729  10.779   5.106
 9563W        W10427  15.257  10.842   6.952
 9564W        W10428  15.374  10.354   3.584
 9565W        W10429  17.841  10.004   4.687
 9566W        W10430  15.455   8.593   6.482
 9567W        W10431  18.135   8.271   3.875
 9568W        W10432  16.328   9.767   4.498
 9569W        W10433  17.037   9.096   6.517
 9570W        W10434  16.597   8.497   6.351
 9571W        W10435  15.368   8.971   6.136
 9572W        W10436  17.597  10.878   6.048
 9573W        W10437  17.203   7.585   7.110
 9574W        W10438  14.912   7.589   6.717
 9575W        W10439  15.412   8.582   5.788
 9576W        W10440  15.981   8.338   3.568
 9577W        W10441  14.724  10.220   6.411
 9578W        W10442  16.197   9.044   5.591
 9579W        W10443  16.077   7.831   3.547
 9580W        W10444  15.782   9.118   4.844
 9581W        W10445  14.828  10.848   6.099
 9582W        W10446  17.747   8.954   4.158
 9583W        W10447  17.923   7.667   6.816
 9584W        W10448  17.353  10.052   4.858
 9585W        W10449  14.750   8.862   6.917
 9586W        W10450  17.821   7.406   4.030
 9587W        W10451  17.240  10.066   4.131
 9588W        W10452  16.487   8.671   4.243
 9589W        W10453  17.323   7.648   3.855
 9590W        W10454  17.244   8.099   6.388
 9591W        W10455  14.817   8.782   5.309
 9592W        W10456  15.567   9.989   4.966
 9593W        W10457  17.299   8.436   4.818
 9594W        W10458  16.107   7.928   5.582
 9595W        W10459  18.191   9.900   6.097
 9596W        W10460  18.089   7.817   5.770
 9597W        W10461  14.697  10.671   5.160
 9598W        W10462  15.186   9.732   4.734
 9599W        W10463  15.036   7.613   7.245
 9600W        W10464  15.951  10.277   7.102
 9601W        W10465  17.965   9.168   5.024
 9602W        W10466  17.456   9.614   3.952
 9603W        W10467  16.709  10.981   5.928
 9604W        W10468  17.563   9.558   7.134
 9605W        W10469  16.136   7.279   4.388
 9606W        W10470  17.133   8.177   5.266
 9607W        W10471  14.800   9.836   5.649
 9608W        W10472  16.141   7.811   4.439
 9609W        W10473  15.832   9.217   6.965
 9610W        W10474  16.848   8.167   4.836
 9611W        W10475  16.870   9.781   6.000
 9612W        W10476  15.175  10.443   6.263
 9613W        W10477  15.436  10.399   7.132
 9614W        W10478  15.706   7.961   3.879
 9615W        W10479  17.150   8.169   4.387
 9616W        W10480  17.056  10.377   6.623
 9617W        W10481  16.215   8.897   5.078
 9618W        W10482  15.321  10.819   5.943
 9619W        W10483  18.049  10.694   3.641
 9620W        W10484  14.901   9.359   6.810
 9621W        W10485  16.913   9.537   5.480
 9622W        W10486  15.774   9.613   4.679
 9623W        W10487  15.686  10.448   6.100
 9624W        W10488  16.365   7.626   5.266
 9625W        W10489  14.654   9.817   4.670
 9626W        W10490  16.438   8.544   3.752
 9627W        W10491  15.479   9.494   5.091
 9628W        W10492  15.905   7.793   6.508
 9629W        W10493  17.766   7.651   3.580
 9630W        W10494  17.946   9.315   6.896
 9631W        W10495  16.731  10.674   6.978
 9632W        W10496  18.201   9.691   6.602
 9633W        W10497  17.581  10.385   7.205
 9634W        W10498  15.360  10.909   5.448
 9635W        W10499  18.089   9.559   4.718
 9636W        W10500  16.869   8.618   5.098
 9637W        W10501  16.475   7.510   4.720
 9638W        W10502  15.586  10.455   4.747
 9639W        W10503  15.930   8.158   6.001
 9640W        W10504  15.884   7.474   5.452
 9641W        W10505  14.695  10.618   4.088
 9642W        W10506  16.631   9.637   4.922
 9643W        W10507  15.578  10.476   6.614
 9644W        W10508  14.850   9.359   4.876
 9645W        W10509  14.697   7.913   5.486
 9646W        W10510  16.407   9.742   5.421
 9647W        W10511  14.484   7.541   4.433
 9648W        W10512  16.927   8.771   6.076
 9649W        W10513  17.286   8.179   3.776
 9650W        W10514  17.828   9.943   5.651
 9651W        W10515  16.373  10.251   5.416
 9652W        W10516  15.884  10.756   4.348
 9653W        W10517  16.975   7.304   3.602
 9654W        W10518  14.921  10.711   5.613
 9655W        W10519  16.754   8.445   7.009
 9656W        W10520  15.052   8.032   6.943
 9657W        W10521  14.520   8.471   4.703
 9658W        W10522  16.009   8.613   4.039
 9659W        W10523  17.191   8.741   7.041
 9660W        W10524  15.722   9.018   5.776
 9661W        W10525  17.176   7.400   4.811
 9662W        W10526  16.218  10.741   5.287
 9663W        W10527  17.442  10.401   6.224
 9664W        W10528  17.172  10.365   5.382
 9665W        W10529  17.154   9.587   4.988
 9666W        W10530  16.454   7.673   4.058
 9667W        W10531  18.145   7.368   4.957
 9668W        W10532  15.598   8.930   3.365
 9669W        W10533  18.026   8.326   4.813
 9670W        W10534  16.611   9.416   3.804
 9671W        W10535  17.679   9.680   6.629
 9672W        W10536  17.224  10.452   3.754
 9673W        W10537  15.913   8.088   6.954
 9674W        W10538  15.811   8.664   6.123
 9675W        W10539  17.920  10.138   6.515
 9676W        W10540  16.776   8.098   6.629
 9677W        W10541  14.546   8.579   6.530
 9678W        W10542  16.575   9.108   6.272
 9679W        W10543  14.867   9.806   5.137
 9680W        W10544  14.989   8.935   5.784
 9681W        W10545  17.374   9.441   6.300
 9682W        W10546  17.238  10.742   6.952
 9683W        W10547  17.055   8.566   6.572
 9684W        W10548  17.404  10.561   4.958
 9685W        W10549  16.189  10.341   6.211
 9686W        W10550  15.769  10.654   5.608
 9687W        W10551  17.647   9.903   6.141
 9688W        W10552  16.532   9.813   7.210
 9689W        W10553  15.292   9.884   5.408
 9690W        W10554  17.669   9.657   5.020
 9691W        W10555  17.166  10.666   5.870
 9692W        W10556  15.295  10.328   5.764
 9693W        W10557  16.307   8.387   6.785
 9694W        W10558  16.343  10.290   4.352
 9695W        W10559  15.973   9.746   7.057
 9696W        W10560  15.955  10.115   4.636
 9697W        W10561  15.342   8.468   3.262
 9698W        W10562  14.634  10.997  10.759
 9699W        W10563  15.034   9.952  10.222
 9700W        W10564  17.608   9.264   8.163
 9701W        W10565  18.029  10.615  10.027
 9702W        W10566  15.721  10.609   7.493
 9703W        W10567  16.115   8.650   8.413
 9704W        W10568  15.442   8.771   8.929
 9705W        W10569  16.474   8.896   8.134
 9706W        W10570  16.112  10.596  10.481
 9707W        W10571  14.632   8.085  10.286
 9708W        W10572  15.350   7.346  10.154
 9709W        W10573  17.156   7.695   9.000
 9710W        W10574  17.005   8.457   7.447
 9711W        W10575  17.257   8.178  10.631
 9712W        W10576  14.695   7.779   9.888
 9713W        W10577  14.819  10.531  10.890
 9714W        W10578  16.124   9.993   7.520
 9715W        W10579  14.683   8.483   9.329
 9716W        W10580  15.775   8.657  10.488
 9717W        W10581  17.862   8.268   9.051
 9718W        W10582  17.782   9.292   9.933
 9719W        W10583  16.386   8.598   8.886
 9720W        W10584  16.902  10.063   9.276
 9721W        W10585  15.209   9.425   9.589
 9722W        W10586  14.476   8.970   9.283
 9723W        W10587  15.786   9.049  10.099
 9724W        W10588  17.969   8.702  10.672
 9725W        W10589  15.566  10.138   9.037
 9726W        W10590  16.549  10.011  10.046
 9727W        W10591  15.988   8.557   9.264
 9728W        W10592  16.174   9.336   9.008
 9729W        W10593  16.940  10.254  10.779
 9730W        W10594  16.245   9.367  10.824
 9731W        W10595  16.282   9.220  10.269
 9732W        W10596  14.256   8.271  10.577
 9733W        W10597  17.338   9.971  10.544
 9734W        W10598  15.062   7.520   8.444
 9735W        W10599  15.622   9.882   9.526
 9736W        W10600  17.932   9.778   8.893
 9737W        W10601  17.446   8.076   9.267
 9738W        W10602  17.589   7.917   7.102
 9739W        W10603  18.136   8.754   9.751
 9740W        W10604  16.262  10.574   9.477
 9741W        W10605  18.004  10.085   7.933
 9742W        W10606  15.158  10.958   7.980
 9743W        W10607  15.507  10.882   8.368
 9744W        W10608  15.303   7.647   9.718
 9745W        W10609  17.731   8.345  10.023
 9746W        W10610  17.301   9.041   8.543
 9747W        W10611  17.311   8.834   7.593
 9748W        W10612  16.459  10.080   9.550
 9749W        W10613  16.341   8.066   8.738
 9750W        W10614  16.913  10.239   9.762
 9751W        W10615  17.818   9.053   8.615
 9752W        W10616  16.765   7.479   8.188
 9753W        W10617  15.344  10.494   8.066
 9754W        W10618  14.700   7.884   8.530
 9755W        W10619  17.238   8.469   8.973
 9756W        W10620  15.041  10.210   9.130
 9757W        W10621  16.178  10.490   7.668
 9758W        W10622  17.514   8.417   7.282
 9759W        W10623  14.801  10.301   9.593
 9760W        W10624  15.550  10.044  10.005
 9761W        W10625  16.021   9.465   8.512
 9762W        W10626  15.784   7.781   9.568
 9763W        W10627  18.138   7.398   9.172
 9764W        W10628  15.408   9.521   6.947
 9765W        W10629  15.027   8.061   7.488
 9766W        W10630  15.130  10.227   8.617
 9767W        W10631  16.099   9.828   8.925
 9768W        W10632  17.538  10.544  10.274
 9769W        W10633  16.730   8.056   7.619
 9770W        W10634  17.748  10.665   9.088
 9771W        W10635  17.513   8.598  10.413
 9772W        W10636  18.216  10.190   8.692
 9773W        W10637  16.777   9.455  10.123
 9774W        W10638  14.564   8.993   8.467
 9775W        W10639  15.739   9.415   9.689
 9776W        W10640  16.949   8.732   8.216
 9777W        W10641  16.820   9.192   8.422
 9778W        W10642  15.064   8.522   9.740
 9779W        W10643  14.987   8.477  10.248
 9780W        W10644  14.993   7.420   8.938
 9781W        W10645  16.643   7.835   9.157
 9782W        W10646  16.428   7.904  10.460
 9783W        W10647  17.068   7.772   7.900
 9784W        W10648  18.098  10.421  10.510
 9785W        W10649  16.883   7.402  10.351
 9786W        W10650  17.849   9.853  10.693
 9787W        W10651  17.420   7.951  10.185
 9788W        W10652  17.176   7.825   8.411
 9789W        W10653  17.557   8.990  10.841
 9790W        W10654  15.342  10.600   8.921
 9791W        W10655  16.225   8.146   7.720
 9792W        W10656  15.448   7.690  10.532
 9793W        W10657  17.530   8.219   8.251
 9794W        W10658  17.919   8.593   8.211
 9795W        W10659  15.642  10.680  10.705
 9796W        W10660  15.526   7.351   7.870
 9797W        W10661  17.926   7.778   8.865
 9798W        W10662  18.080  10.212   7.420
 9799W        W10663  14.769   9.359   9.062
 9800W        W10664  16.826   7.937   7.124
 9801W        W10665  18.043  10.237   9.189
 9802W        W10666  17.939   7.410   9.656
 9803W        W10667  16.635   8.695  10.374
 9804W        W10668  16.356   9.702   8.196
 9805W        W10669  17.094   9.197  10.956
 9806W        W10670  16.759   7.343   9.069
 9807W        W10671  15.152   8.310   9.115
 9808W        W10672  14.901   9.517   9.986
 9809W        W10673  16.723  10.501   8.735
 9810W        W10674  17.765   8.441   9.519
 9811W        W10675  16.672  10.708  10.255
 9812W        W10676  17.950   9.343   7.434
 9813W        W10677  16.377   9.049   8.623
 9814W        W10678  18.077   7.370  10.161
 9815W        W10679  16.340   9.564   9.887
 9816W        W10680  16.451   8.300   9.290
 9817W        W10681  17.443   8.752   8.129
 9818W        W10682  17.614   8.421   7.784
 9819W        W10683  17.614  10.316   8.249
 9820W        W10684  17.386   9.817   9.033
 9821W        W10685  17.143   9.147   7.982
 9822W        W10686  16.699   9.190   9.006
 9823W        W10687  17.667   9.297   9.054
 9824W        W10688  14.990   8.056   9.539
 9825W        W10689  17.542   9.097  10.341
 9826W        W10690  18.129  10.657   9.472
 9827W        W10691  16.005  10.329   8.843
 9828W        W10692  17.148  10.799  10.024
 9829W        W10693  16.857   8.073   9.857
 9830W        W10694  16.294  11.001   9.906
 9831W        W10695  17.791   7.757   8.334
 9832W        W10696  17.683   8.959   9.555
 9833W        W10697  14.589   8.305   9.815
 9834W        W10698  17.483   8.048   8.751
 9835W        W10699  17.840   8.214  10.511
 9836W        W10700  16.862   9.929   8.785
 9837W        W10701  16.253  10.581   8.473
 9838W        W10702  15.078   7.625   7.755
 9839W        W10703  16.329   7.448   9.365
 9840W        W10704  15.248  10.824   7.488
 9841W        W10705  16.125   9.269   8.004
 9842W        W10706  16.345   9.706  10.400
 9843W        W10707  16.326   7.687   8.360
 9844W        W10708  17.525   7.496   8.684
 9845W        W10709  17.233  10.801   9.060
 9846W        W10710  16.753  10.564   9.260
 9847W        W10711  16.128   9.641   9.430
 9848W        W10712  17.916  10.217   9.704
 9849W        W10713  15.516   7.700   8.280
 9850W        W10714  16.004  10.145   9.327
 9851W        W10715  15.482   7.965   7.215
 9852W        W10716  16.371   8.623   9.670
 9853W        W10717  17.192   7.366   9.450
 9854W        W10718  14.697   9.334   9.568
 9855W        W10719  16.376   9.058   7.588
 9856W        W10720  15.553   7.475   7.354
 9857W        W10721  16.590   8.448   8.449
 9858W        W10722  17.096   7.612   9.929
 9859W        W10723  15.894   9.574  10.159
 9860W        W10724  16.698   9.375  10.623
 9861W        W10725  17.163   9.450  10.465
 9862W        W10726  16.481   7.550  10.868
 9863W        W10727  15.663   8.160   9.224
 9864W        W10728  15.200   7.951   8.698
 9865W        W10729  15.021  10.721   8.436
 9866W        W10730  16.499  10.254  10.493
 9867W        W10731  15.381   9.795   7.791
 9868W        W10732  17.202   9.029   9.082
 9869W        W10733  17.289   8.645   9.438
 9870W        W10734  16.575   9.309   9.501
 9871W        W10735  17.077   9.746   7.231
 9872W        W10736  16.739   7.730   8.666
 9873W        W10737  18.029   8.099   8.037
 9874W        W10738  14.836  10.759  10.313
 9875W        W10739  15.126   9.922   9.712
 9876W        W10740  14.674  10.964   8.113
 9877W        W10741  16.429   7.891   9.618
 9878W        W10742  15.729  10.205   7.818
 9879W        W10743  17.938  10.600   7.977
 9880W        W10744  16.815   8.853   7.731
 9881W        W10745  16.212   8.170   8.232
 9882W        W10746  16.362   8.107   7.228
 9883W        W10747  16.841   9.861  10.441
 9884W        W10748  17.394   7.452   8.157
 9885W        W10749  14.681   7.308   7.610
 9886W        W10750  16.038   9.974   9.822
 9887W        W10751  15.712   9.544   9.141
 9888W        W10752  15.621   9.966   7.366
 9889W        W10753  14.833  10.295   8.184
 9890W        W10754  15.369   8.997  10.433
 9891W        W10755  15.959   7.538  10.754
 9892W        W10756  16.598   7.667  10.032
 9893W        W10757  15.914   7.398   8.460
 9894W        W10758  17.052   7.226   7.826
 9895W        W10759  14.909   7.561   9.424
 9896W        W10760  14.733   8.353   8.810
 9897W        W10761  17.633   7.499   9.201
 9898W        W10762  15.051   7.955   8.151
 9899W        W10763  17.496   7.738   9.643
 9900W        W10764  17.976   8.591   7.441
 9901W        W10765  15.305   7.800   9.195
 9902W        W10766  16.421   8.258  10.051
 9903W        W10767  14.596   7.814   7.659
 9904W        W10768  15.386   9.368  10.069
 9905W        W10769  16.794   8.710   9.249
 9906W        W10770  16.612  10.795   7.552
 9907W        W10771  14.596   9.148   7.321
 9908W        W10772  15.468   9.735  10.396
 9909W        W10773  15.033   8.973  10.026
 9910W        W10774  16.149   9.104   9.732
 9911W        W10775  17.557   7.419  10.070
 9912W        W10776  18.078   9.011  10.256
 9913W        W10777  18.095   9.079   8.163
 9914W        W10778  16.656   9.337   7.950
 9915W        W10779  17.459  10.824   7.487
 9916W        W10780  16.665   8.927  10.877
 9917W        W10781  15.154   9.933  10.749
 9918W        W10782  18.176   7.844  10.758
 9919W        W10783  17.659   8.763   9.079
 9920W        W10784  16.109  10.649  10.999
 9921W        W10785  16.006   7.328   7.613
 9922W        W10786  17.739   9.830   7.543
 9923W        W10787  15.473   8.215  10.380
 9924W        W10788  16.018  10.101  10.306
 9925W        W10789  17.872   7.834   9.955
 9926W        W10790  17.437  10.750   8.021
 9927W        W10791  17.468   9.419   9.507
 9928W        W10792  15.614   7.826  10.072
 9929W        W10793  16.223   8.877  10.639
 9930W        W10794  15.452  10.025   8.236
 9931W        W10795  17.169   9.551   8.286
 9932W        W10796  15.121   8.020  10.049
 9933W        W10797  16.398  10.076   8.567
 9934W        W10798  18.079   8.650   8.793
 9935W        W10799  16.360   7.401  10.392
 9936W        W10800  17.279   9.887   9.550
 9937W        W10801  17.525  10.282   9.334
 9938W        W10802  16.549  10.312   7.351
 9939W        W10803  14.690  10.129  10.577
 9940W        W10804  15.506   8.208   9.739
 9941W        W10805  15.469   7.503   8.783
 9942W        W10806  16.960   8.224   9.371
 9943W        W10807  15.955   9.495   7.530
 9944W        W10808  17.981   9.389   9.461
 9945W        W10809  15.165  10.390  10.476
 9946W        W10810  17.712  11.014   8.357
 9947W        W10811  15.855   7.839   8.744
 9948W        W10812  15.281   9.225   9.127
 9949W        W10813  15.892  10.972   9.582
 9950W        W10814  17.771  10.884  10.578
 9951W        W10815  17.037   9.074   9.591
 9952W        W10816  14.919   8.467   7.200
 9953W        W10817  17.974  10.602   8.518
 9954W        W10818  17.564   7.900   7.869
 9955W        W10819  15.855   7.410  10.271
 9956W        W10820  17.699  10.225   8.808
 9957W        W10821  17.574   8.584   8.607
 9958W        W10822  15.918   8.355   8.802
 9959W        W10823  16.184   8.730  10.136
 9960W        W10824  17.177   9.841  10.060
 9961W        W10825  15.893   8.303  10.112
 9962W        W10826  15.822  10.806   8.775
 9963W        W10827  15.169  10.859  10.686
 9964W        W10828  15.262  10.290   7.597
 9965W        W10829  17.876   9.920   8.408
 9966W        W10830  15.456   8.625  10.072
 9967W        W10831  17.878   8.074   7.502
 9968W        W10832  15.871   9.743   8.003
 9969W        W10833  17.036   8.986  10.266
 9970W        W10834  16.887   8.587   9.762
 9971W        W10835  15.439   8.993   9.714
 9972W        W10836  17.660  10.668   9.680
 9973W        W10837  17.318   7.603  10.593
 9974W        W10838  14.932   7.605  10.327
 9975W        W10839  15.464   8.601   9.406
 9976W        W10840  15.990   8.457   7.310
 9977W        W10841  14.682  10.314  10.098
 9978W        W10842  16.321   8.933   9.267
 9979W        W10843  15.959   7.819   7.428
 9980W        W10844  15.607   9.254   8.730
 9981W        W10845  14.892  10.831   9.807
 9982W        W10846  17.777   8.948   7.771
 9983W        W10847  17.806   7.707  10.447
 9984W        W10848  17.339   9.976   8.536
 9985W        W10849  14.867   8.897  10.543
 9986W        W10850  17.825   7.460   7.865
 9987W        W10851  17.540   9.816   8.035
 9988W        W10852  16.602   8.433   7.941
 9989W        W10853  17.401   7.517   7.579
 9990W        W10854  17.321   8.241   9.754
 9991W        W10855  14.868   8.856   8.939
 9992W        W10856  15.433   9.769   8.711
 9993W        W10857  17.098   8.332   8.488
 9994W        W10858  16.118   7.921   9.193
 9995W        W10859  18.190   9.769   9.751
 9996W        W10860  17.961   7.885   9.406
 9997W        W10861  14.799  10.590   8.875
 9998W        W10862  15.012   9.790   8.344
 9999W        W10863  15.003   7.651  10.911
10000W        W10864  16.091  10.169  10.815
10001W        W10865  18.187   9.348   8.980
10002W        W10866  17.474   9.362   7.638
10003W        W10867  16.697  10.722   9.742
10004W        W10868  17.496   9.516  10.836
10005W        W10869  16.263   7.248   8.081
10006W        W10870  16.788   8.253   8.887
10007W        W10871  14.758   9.810   9.357
10008W        W10872  15.957   7.687   7.989
10009W        W10873  15.824   9.209  10.580
10010W        W10874  16.721   8.006   8.206
10011W        W10875  16.808   9.729   9.691
10012W        W10876  15.176  10.413   9.960
10013W        W10877  15.613  10.169  10.617
10014W        W10878  15.531   7.857   7.731
10015W        W10879  17.115   8.299   7.939
10016W        W10880  17.037  10.319  10.260
10017W        W10881  15.952   8.885   8.862
10018W        W10882  15.409  10.805   9.689
10019W        W10883  17.954  10.698   7.465
10020W        W10884  15.032   9.424  10.469
10021W        W10885  17.020   9.511   9.280
10022W        W10886  15.478   9.508   8.272
10023W        W10887  15.817  10.441   9.735
10024W        W10888  16.278   7.558   8.863
10025W        W10889  14.532   9.519   7.735
10026W        W10890  16.487   8.547   7.453
10027W        W10891  15.097   9.351   8.642
10028W        W10892  16.114   7.826  10.034
10029W        W10893  17.871   7.571   7.353
10030W        W10894  17.918   9.328  10.623
10031W        W10895  16.577  10.698  10.765
10032W        W10896  18.114   9.615  10.229
10033W        W10897  17.649  10.333  10.739
10034W        W10898  15.469  11.009   9.223
10035W        W10899  18.099   9.474   8.490
10036W        W10900  16.876   8.773   8.736
10037W        W10901  16.523   7.217   8.576
10038W        W10902  15.610  10.403   8.530
10039W        W10903  16.041   8.213   9.635
10040W        W10904  15.850   7.456   9.162
10041W        W10905  14.860  10.595   7.748
10042W        W10906  16.519   9.554   8.667
10043W        W10907  15.655  10.493  10.220
10044W        W10908  14.821   9.338   8.136
10045W        W10909  14.804   7.896   9.035
10046W        W10910  16.555   9.700   9.159
10047W        W10911  14.679   7.581   8.109
10048W        W10912  17.375   8.767   9.934
10049W        W10913  17.235   7.999   7.463
10050W        W10914  17.777   9.837   9.368
10051W        W10915  16.449  10.206   9.059
10052W        W10916  15.873  10.593   8.122
10053W        W10917  16.860   7.558   7.481
10054W        W10918  15.021  10.696   9.324
10055W        W10919  16.737   8.293  10.676
10056W        W10920  15.041   8.043  10.577
10057W        W10921  14.732   8.377   8.290
10058W        W10922  16.135   8.656   7.821
10059W        W10923  17.105   8.702  10.708
10060W        W10924  15.784   9.044   9.322
10061W        W10925  17.048   7.319   8.595
10062W        W10926  16.303  10.736   8.980
10063W        W10927  17.420  10.258   9.872
10064W        W10928  17.192  10.307   8.931
10065W        W10929  17.092   9.457   8.782
10066W        W10930  16.444   7.667   7.805
10067W        W10931  18.241   7.379   8.660
10068W        W10932  15.907   8.968   7.414
10069W        W10933  17.932   8.208   8.556
10070W        W10934  16.750   9.392   7.443
10071W        W10935  17.609   9.606  10.314
10072W        W10936  17.603  10.328   7.710
10073W        W10937  15.906   7.976  10.516
10074W        W10938  15.849   8.678   9.741
10075W        W10939  17.796  10.098  10.235
10076W        W10940  16.929   7.916  10.345
10077W        W10941  14.483   8.620  10.248
10078W        W10942  16.620   9.001   9.932
10079W        W10943  14.922   9.802   8.847
10080W        W10944  14.993   8.930   9.441
10081W        W10945  17.269   9.345   9.968
10082W        W10946  17.142  10.745  10.569
10083W        W10947  17.062   8.418  10.217
10084W        W10948  17.464  10.641   8.624
10085W        W10949  16.281  10.455   9.994
10086W        W10950  15.773  10.595   9.240
10087W        W10951  17.671   9.781   9.853
10088W        W10952  16.534   9.856  10.847
10089W        W10953  15.253   9.750   9.210
10090W        W10954  17.583   9.526   8.603
10091W        W10955  17.180  10.615   9.537
10092W        W10956  15.376  10.333   9.486
10093W        W10957  16.237   8.380  10.527
10094W        W10958  16.177  10.180   8.091
10095W        W10959  15.903   9.715  10.669
10096W        W10960  15.895   9.968   8.477
10097W        W10961  15.416   8.451   7.015
10098W        W10962  14.546  11.043  14.349
10099W        W10963  15.030   9.856  13.823
10100W        W10964  17.880   9.510  11.674
10101W        W10965  17.920  10.656  13.620
10102W        W10966  15.657  10.665  11.234
10103W        W10967  15.921   8.855  12.042
10104W        W10968  15.396   8.669  12.587
10105W        W10969  16.491   9.391  11.671
10106W        W10970  16.099  10.553  13.910
10107W        W10971  14.680   8.062  13.906
10108W        W10972  15.254   7.319  13.757
10109W        W10973  17.135   7.786  12.606
10110W        W10974  16.875   8.504  11.131
10111W        W10975  17.326   8.089  14.220
10112W        W10976  14.773   7.675  13.542
10113W        W10977  14.761  10.596  14.476
10114W        W10978  16.144   9.769  11.150
10115W        W10979  14.691   8.490  13.004
10116W        W10980  15.838   8.554  14.132
10117W        W10981  18.029   8.243  12.748
10118W        W10982  17.925   9.371  13.576
10119W        W10983  16.313   8.842  12.598
10120W        W10984  16.815  10.148  13.056
10121W        W10985  15.214   9.324  13.125
10122W        W10986  14.534   8.973  12.975
10123W        W10987  15.682   8.910  13.788
10124W        W10988  18.023   8.698  14.154
10125W        W10989  15.480  10.098  12.654
10126W        W10990  16.719   9.959  13.595
10127W        W10991  15.989   8.558  12.900
10128W        W10992  16.143   9.325  12.685
10129W        W10993  16.936  10.264  14.322
10130W        W10994  16.428   9.397  14.424
10131W        W10995  16.376   9.205  13.944
10132W        W10996  14.273   8.230  14.226
10133W        W10997  17.401  10.083  14.075
10134W        W10998  14.960   7.502  12.056
10135W        W10999  15.494   9.762  13.212
10136W        W11000  18.021   9.780  12.520
10137W        W11001  17.557   8.052  12.854
10138W        W11002  17.633   7.942  10.883
10139W        W11003  18.398   8.983  13.367
10140W        W11004  16.185  10.436  13.052
10141W        W11005  18.011  10.192  11.716
10142W        W11006  15.096  10.890  11.699
10143W        W11007  15.518  10.854  12.083
10144W        W11008  15.279   7.596  13.323
10145W        W11009  17.938   8.733  13.447
10146W        W11010  17.267   9.048  12.185
10147W        W11011  17.281   8.805  11.258
10148W        W11012  16.373   9.897  13.113
10149W        W11013  16.356   8.153  12.380
10150W        W11014  16.725  10.459  13.446
10151W        W11015  17.773   9.126  12.051
10152W        W11016  16.665   7.712  11.769
10153W        W11017  15.283  10.444  11.847
10154W        W11018  14.616   7.881  12.184
10155W        W11019  17.356   8.479  12.634
10156W        W11020  14.954  10.208  12.745
10157W        W11021  15.989  10.239  11.329
10158W        W11022  17.553   8.479  10.910
10159W        W11023  14.706  10.271  13.203
10160W        W11024  15.447  10.138  13.620
10161W        W11025  15.769   9.374  12.274
10162W        W11026  15.705   7.759  13.039
10163W        W11027  18.096   7.399  12.745
10164W        W11028  15.442   9.469  10.824
10165W        W11029  14.926   8.122  11.086
10166W        W11030  15.126  10.171  12.266
10167W        W11031  15.808   9.892  12.312
10168W        W11032  17.529  10.578  13.952
10169W        W11033  16.550   8.491  11.530
10170W        W11034  17.821  10.734  12.608
10171W        W11035  17.534   8.538  14.024
10172W        W11036  18.279  10.086  12.162
10173W        W11037  16.847   9.460  13.672
10174W        W11038  14.635   8.945  12.064
10175W        W11039  15.605   9.358  13.491
10176W        W11040  16.877   8.728  11.836
10177W        W11041  16.763   9.161  12.076
10178W        W11042  15.050   8.454  13.408
10179W        W11043  15.168   8.455  13.956
10180W        W11044  14.905   7.385  12.561
10181W        W11045  16.653   7.912  12.824
10182W        W11046  16.484   7.950  14.080
10183W        W11047  16.709   8.049  11.321
10184W        W11048  18.056  10.580  14.112
10185W        W11049  16.973   7.420  14.013
10186W        W11050  17.837   9.898  14.306
10187W        W11051  17.451   8.072  13.718
10188W        W11052  17.126   7.910  12.016
10189W        W11053  17.619   8.907  14.384
10190W        W11054  15.290  10.590  12.579
10191W        W11055  16.162   8.177  11.421
10192W        W11056  15.488   7.617  14.105
10193W        W11057  17.548   8.204  11.861
10194W        W11058  17.889   8.667  11.783
10195W        W11059  15.751  10.853  14.172
10196W        W11060  15.457   7.377  11.529
10197W        W11061  17.896   7.803  12.484
10198W        W11062  18.129  10.158  10.984
10199W        W11063  14.837   9.334  12.759
10200W        W11064  16.911   7.843  10.864
10201W        W11065  18.075  10.286  12.765
10202W        W11066  17.996   7.432  13.350
10203W        W11067  16.664   8.764  14.044
10204W        W11068  16.335   9.908  11.605
10205W        W11069  17.220   9.170  14.578
10206W        W11070  16.755   7.428  12.651
10207W        W11071  15.132   8.313  12.839
10208W        W11072  15.075   9.393  13.600
10209W        W11073  16.795  10.596  12.445
10210W        W11074  17.907   8.227  13.287
10211W        W11075  16.659  10.745  13.853
10212W        W11076  17.843   9.305  11.154
10213W        W11077  16.265   9.193  12.205
10214W        W11078  18.107   7.383  13.863
10215W        W11079  16.364   9.575  13.513
10216W        W11080  16.478   8.409  12.819
10217W        W11081  17.376   8.707  11.770
10218W        W11082  17.606   8.416  11.410
10219W        W11083  17.543  10.326  11.884
10220W        W11084  17.257   9.803  12.694
10221W        W11085  17.117   9.160  11.676
10222W        W11086  16.660   9.228  12.582
10223W        W11087  17.610   8.996  12.630
10224W        W11088  14.881   8.014  13.176
10225W        W11089  17.732   8.995  13.858
10226W        W11090  18.009  10.713  13.082
10227W        W11091  15.995  10.301  12.572
10228W        W11092  17.156  10.809  13.636
10229W        W11093  16.934   8.102  13.417
10230W        W11094  16.294  10.762  13.467
10231W        W11095  17.842   7.776  11.963
10232W        W11096  17.654   9.082  13.192
10233W        W11097  14.502   8.268  13.424
10234W        W11098  17.479   8.076  12.348
10235W        W11099  17.932   8.330  13.799
10236W        W11100  16.847  10.046  12.356
10237W        W11101  16.102  10.584  12.143
10238W        W11102  14.990   7.622  11.433
10239W        W11103  16.403   7.494  13.060
10240W        W11104  15.158  10.846  11.192
10241W        W11105  15.991   9.231  11.671
10242W        W11106  16.458   9.711  13.991
10243W        W11107  16.218   7.787  12.028
10244W        W11108  17.481   7.561  12.284
10245W        W11109  17.312  10.824  12.738
10246W        W11110  16.653  10.631  12.968
10247W        W11111  15.998   9.503  13.146
10248W        W11112  17.950  10.254  13.296
10249W        W11113  15.396   7.723  11.903
10250W        W11114  15.882  10.013  12.985
10251W        W11115  15.444   8.054  10.890
10252W        W11116  16.387   8.573  13.308
10253W        W11117  17.112   7.492  13.051
10254W        W11118  14.690   9.396  13.257
10255W        W11119  16.282   9.072  11.250
10256W        W11120  15.491   7.508  11.015
10257W        W11121  16.566   8.626  12.225
10258W        W11122  17.139   7.623  13.557
10259W        W11123  15.968   9.534  13.851
10260W        W11124  16.847   9.280  14.146
10261W        W11125  17.346   9.234  14.084
10262W        W11126  16.442   7.530  14.541
10263W        W11127  15.631   8.193  12.757
10264W        W11128  15.103   7.944  12.330
10265W        W11129  14.974  10.673  12.184
10266W        W11130  16.532  10.254  13.991
10267W        W11131  15.804   9.741  11.549
10268W        W11132  17.158   9.243  12.763
10269W        W11133  17.250   8.793  13.019
10270W        W11134  16.534   9.373  13.069
10271W        W11135  17.025   9.712  10.903
10272W        W11136  16.708   7.797  12.288
10273W        W11137  18.041   8.159  11.670
10274W        W11138  14.801  10.704  13.942
10275W        W11139  14.987   9.835  13.316
10276W        W11140  14.612  10.764  11.819
10277W        W11141  16.404   8.060  13.277
10278W        W11142  15.497  10.208  11.458
10279W        W11143  17.735  10.340  11.303
10280W        W11144  16.761   8.951  11.382
10281W        W11145  16.206   8.401  11.920
10282W        W11146  16.338   8.049  10.942
10283W        W11147  16.958   9.802  14.069
10284W        W11148  17.408   7.592  11.717
10285W        W11149  14.591   7.322  11.309
10286W        W11150  15.904   9.885  13.480
10287W        W11151  15.680   9.594  12.744
10288W        W11152  15.644   9.914  11.063
10289W        W11153  14.782  10.283  11.873
10290W        W11154  15.423   8.881  14.229
10291W        W11155  15.992   7.506  14.246
10292W        W11156  16.609   7.718  13.610
10293W        W11157  15.813   7.431  12.041
10294W        W11158  16.818   7.546  11.296
10295W        W11159  14.860   7.506  13.063
10296W        W11160  14.757   8.308  12.494
10297W        W11161  17.593   7.526  12.819
10298W        W11162  14.934   7.976  11.798
10299W        W11163  17.550   7.771  13.290
10300W        W11164  17.887   8.780  11.190
10301W        W11165  15.230   7.807  12.819
10302W        W11166  16.573   8.330  13.734
10303W        W11167  14.529   7.830  11.290
10304W        W11168  15.432   9.334  13.967
10305W        W11169  16.700   8.867  12.975
10306W        W11170  16.488  10.792  11.312
10307W        W11171  14.625   9.023  11.006
10308W        W11172  15.582   9.828  14.001
10309W        W11173  15.081   8.949  13.849
10310W        W11174  16.067   9.156  13.533
10311W        W11175  17.595   7.444  13.743
10312W        W11176  18.228   9.141  13.951
10313W        W11177  18.134   9.074  11.544
10314W        W11178  16.923   9.628  11.856
10315W        W11179  17.460  10.729  11.011
10316W        W11180  16.751   8.969  14.530
10317W        W11181  15.179   9.841  14.313
10318W        W11182  18.248   7.913  14.508
10319W        W11183  17.744   8.611  12.969
10320W        W11184  16.097  10.770  14.540
10321W        W11185  15.927   7.350  11.253
10322W        W11186  17.887   9.807  11.249
10323W        W11187  15.571   8.119  14.002
10324W        W11188  16.055  10.042  13.932
10325W        W11189  17.922   7.845  13.640
10326W        W11190  17.400  10.696  11.538
10327W        W11191  17.407   9.536  13.117
10328W        W11192  15.656   7.819  13.585
10329W        W11193  16.271   8.893  14.369
10330W        W11194  15.456   9.956  11.924
10331W        W11195  17.426   9.486  11.912
10332W        W11196  15.162   7.987  13.693
10333W        W11197  16.321  10.096  12.196
10334W        W11198  18.040   8.710  12.484
10335W        W11199  16.462   7.450  14.030
10336W        W11200  17.300  10.045  13.146
10337W        W11201  17.593  10.425  12.958
10338W        W11202  16.483  10.297  11.125
10339W        W11203  14.726  10.106  14.244
10340W        W11204  15.382   8.096  13.234
10341W        W11205  15.368   7.507  12.389
10342W        W11206  16.965   8.358  12.964
10343W        W11207  15.838   9.363  11.147
10344W        W11208  17.835   9.423  12.857
10345W        W11209  15.141  10.309  14.025
10346W        W11210  17.716  10.825  11.934
10347W        W11211  15.796   7.761  12.499
10348W        W11212  15.339   9.212  12.641
10349W        W11213  15.913  10.882  13.146
10350W        W11214  17.728  10.942  14.269
10351W        W11215  17.013   9.170  13.265
10352W        W11216  14.722   8.429  10.695
10353W        W11217  17.921  10.435  12.211
10354W        W11218  17.673   7.907  11.402
10355W        W11219  15.791   7.312  13.799
10356W        W11220  17.623  10.141  12.504
10357W        W11221  17.607   8.655  12.222
10358W        W11222  15.958   8.474  12.401
10359W        W11223  16.207   8.736  13.802
10360W        W11224  17.222   9.847  13.622
10361W        W11225  16.041   8.248  13.756
10362W        W11226  15.793  10.778  12.532
10363W        W11227  15.225  10.767  14.260
10364W        W11228  15.308  10.379  10.986
10365W        W11229  17.798   9.874  12.063
10366W        W11230  15.539   8.428  13.601
10367W        W11231  17.997   8.258  11.062
10368W        W11232  16.107   9.639  11.979
10369W        W11233  17.027   8.981  13.763
10370W        W11234  16.906   8.637  13.394
10371W        W11235  15.342   8.913  13.417
10372W        W11236  17.547  10.839  13.288
10373W        W11237  17.337   7.574  14.363
10374W        W11238  14.924   7.599  14.025
10375W        W11239  15.507   8.569  13.087
10376W        W11240  15.888   8.341  10.904
10377W        W11241  14.658  10.227  13.739
10378W        W11242  16.198   8.995  13.073
10379W        W11243  15.873   7.867  11.119
10380W        W11244  15.416   9.000  12.182
10381W        W11245  14.716  10.843  13.421
10382W        W11246  17.619   9.081  11.552
10383W        W11247  17.778   7.757  14.140
10384W        W11248  17.302   9.925  12.158
10385W        W11249  14.709   8.922  14.199
10386W        W11250  17.895   7.444  11.507
10387W        W11251  17.536   9.904  11.605
10388W        W11252  16.393   8.901  11.797
10389W        W11253  17.322   7.612  11.144
10390W        W11254  17.389   8.323  13.260
10391W        W11255  14.882   8.854  12.511
10392W        W11256  15.333   9.681  12.354
10393W        W11257  17.156   8.430  12.135
10394W        W11258  16.121   8.026  12.834
10395W        W11259  18.220   9.867  13.484
10396W        W11260  17.989   7.807  13.015
10397W        W11261  14.728  10.677  12.648
10398W        W11262  14.950   9.781  11.956
10399W        W11263  15.071   7.620  14.593
10400W        W11264  16.098  10.286  14.376
10401W        W11265  18.078   9.234  12.458
10402W        W11266  17.373   9.487  11.337
10403W        W11267  16.755  10.962  13.346
10404W        W11268  17.387   9.645  14.386
10405W        W11269  16.203   7.340  11.710
10406W        W11270  16.856   8.248  12.482
10407W        W11271  14.649   9.802  12.927
10408W        W11272  15.865   7.729  11.620
10409W        W11273  15.886   9.160  14.180
10410W        W11274  16.696   8.207  11.956
10411W        W11275  16.925   9.677  13.211
10412W        W11276  15.057  10.475  13.535
10413W        W11277  15.654  10.319  14.127
10414W        W11278  15.421   7.883  11.383
10415W        W11279  17.081   8.305  11.613
10416W        W11280  17.041  10.329  13.817
10417W        W11281  15.814   8.953  12.564
10418W        W11282  15.444  10.739  13.324
10419W        W11283  17.987  10.646  10.967
10420W        W11284  14.927   9.413  14.102
10421W        W11285  16.723   9.729  12.737
10422W        W11286  15.389   9.443  11.901
10423W        W11287  15.837  10.446  13.458
10424W        W11288  16.294   7.639  12.540
10425W        W11289  14.585   9.499  11.341
10426W        W11290  16.344   8.561  11.051
10427W        W11291  14.979   9.309  12.258
10428W        W11292  16.114   7.734  13.782
10429W        W11293  17.834   7.493  10.987
10430W        W11294  17.834   9.357  14.258
10431W        W11295  16.574  10.674  14.354
10432W        W11296  18.143   9.666  13.950
10433W        W11297  17.669  10.383  14.405
10434W        W11298  15.466  10.967  12.886
10435W        W11299  18.203   9.553  12.077
10436W        W11300  16.957   8.789  12.526
10437W        W11301  16.489   7.343  12.151
10438W        W11302  15.623  10.369  12.223
10439W        W11303  15.885   8.200  13.263
10440W        W11304  15.948   7.374  12.821
10441W        W11305  14.969  10.428  11.410
10442W        W11306  16.549   9.623  12.250
10443W        W11307  15.463  10.646  13.809
10444W        W11308  14.885   9.308  11.747
10445W        W11309  14.722   7.849  12.705
10446W        W11310  16.208   9.815  12.624
10447W        W11311  14.560   7.591  11.755
10448W        W11312  17.416   8.754  13.530
10449W        W11313  17.237   8.132  11.156
10450W        W11314  17.757   9.918  12.944
10451W        W11315  16.491  10.236  12.677
10452W        W11316  15.782  10.584  11.724
10453W        W11317  16.957   7.322  10.857
10454W        W11318  15.032  10.661  13.039
10455W        W11319  16.838   8.316  14.307
10456W        W11320  15.121   8.013  14.224
10457W        W11321  14.701   8.428  12.002
10458W        W11322  16.045   8.683  11.487
10459W        W11323  17.135   8.767  14.253
10460W        W11324  15.680   9.081  13.047
10461W        W11325  17.010   7.391  12.193
10462W        W11326  16.306  10.751  12.608
10463W        W11327  17.481  10.350  13.504
10464W        W11328  17.155  10.315  12.697
10465W        W11329  17.049   9.505  12.337
10466W        W11330  16.319   7.693  11.345
10467W        W11331  18.175   7.425  12.220
10468W        W11332  15.871   8.857  11.000
10469W        W11333  17.935   8.264  12.215
10470W        W11334  16.652   9.424  11.150
10471W        W11335  17.616   9.650  13.906
10472W        W11336  17.440   9.980  11.064
10473W        W11337  16.003   8.007  14.233
10474W        W11338  15.898   8.707  13.380
10475W        W11339  17.866  10.147  13.828
10476W        W11340  16.959   7.950  13.908
10477W        W11341  14.692   8.584  13.793
10478W        W11342  16.566   9.033  13.489
10479W        W11343  14.826   9.769  12.450
10480W        W11344  15.086   8.846  12.969
10481W        W11345  17.390   9.320  13.582
10482W        W11346  17.088  10.747  14.166
10483W        W11347  17.070   8.447  13.840
10484W        W11348  17.414  10.581  12.307
10485W        W11349  16.289  10.224  13.517
10486W        W11350  15.672  10.485  12.937
10487W        W11351  17.700   9.826  13.439
10488W        W11352  16.513   9.955  14.433
10489W        W11353  15.161   9.737  12.832
10490W        W11354  17.581   9.493  12.406
10491W        W11355  17.131  10.571  13.160
10492W        W11356  15.284  10.224  13.135
10493W        W11357  16.328   8.411  14.204
10494W        W11358  16.320  10.425  11.678
10495W        W11359  16.034   9.729  14.330
10496W        W11360  15.934  10.128  11.863
10497W        W11361  15.248   8.541  10.697
10498W        W11362  14.584  11.059  18.011
10499W        W11363  14.931   9.872  17.638
10500W        W11364  17.802   9.481  15.593
10501W        W11365  18.153  10.607  17.341
10502W        W11366  15.609  10.567  14.578
10503W        W11367  15.926   8.770  15.976
10504W        W11368  15.551   8.500  16.245
10505W        W11369  16.525   9.159  15.381
10506W        W11370  16.088  10.675  17.684
10507W        W11371  14.650   7.966  17.641
10508W        W11372  15.695   7.323  17.195
10509W        W11373  17.198   7.701  16.301
10510W        W11374  17.029   8.599  14.753
10511W        W11375  17.383   8.173  17.914
10512W        W11376  14.721   7.704  17.157
10513W        W11377  14.824  10.628  18.165
10514W        W11378  16.114   9.965  14.788
10515W        W11379  14.690   8.389  16.697
10516W        W11380  15.620   8.536  17.940
10517W        W11381  17.823   8.382  16.375
10518W        W11382  17.838   9.382  17.281
10519W        W11383  16.288   8.802  16.342
10520W        W11384  16.830  10.054  16.535
10521W        W11385  15.192   9.291  16.941
10522W        W11386  14.458   8.837  16.627
10523W        W11387  15.748   8.841  17.559
10524W        W11388  17.941   8.878  17.968
10525W        W11389  15.508  10.158  16.386
10526W        W11390  16.636   9.958  17.375
10527W        W11391  15.999   8.496  16.636
10528W        W11392  16.140   9.288  16.459
10529W        W11393  17.014  10.305  18.052
10530W        W11394  16.246   9.346  18.111
10531W        W11395  16.376   9.144  17.656
10532W        W11396  14.282   8.297  18.284
10533W        W11397  17.444  10.170  17.771
10534W        W11398  14.964   7.459  15.697
10535W        W11399  15.828  10.020  16.769
10536W        W11400  18.092   9.774  16.402
10537W        W11401  17.432   8.191  16.668
10538W        W11402  17.588   7.940  14.631
10539W        W11403  18.250   8.840  17.157
10540W        W11404  16.408  10.683  16.892
10541W        W11405  18.023  10.221  15.252
10542W        W11406  15.124  10.783  15.321
10543W        W11407  15.411  10.702  15.777
10544W        W11408  15.218   7.522  17.193
10545W        W11409  17.776   8.820  17.340
10546W        W11410  17.138   8.944  15.926
10547W        W11411  17.345   8.904  15.033
10548W        W11412  16.523   9.808  16.854
10549W        W11413  16.390   7.971  16.082
10550W        W11414  16.774  10.301  17.014
10551W        W11415  17.574   9.176  16.013
10552W        W11416  16.697   7.719  15.465
10553W        W11417  15.200  10.303  15.518
10554W        W11418  14.515   7.752  16.102
10555W        W11419  17.258   8.541  16.306
10556W        W11420  14.977  10.206  16.509
10557W        W11421  15.939  10.491  14.949
10558W        W11422  17.468   8.451  14.546
10559W        W11423  14.763  10.248  16.987
10560W        W11424  15.644  10.129  17.272
10561W        W11425  15.756   9.296  16.100
10562W        W11426  15.561   7.716  16.864
10563W        W11427  18.129   7.435  16.419
10564W        W11428  15.572   9.517  14.423
10565W        W11429  14.996   8.124  14.708
10566W        W11430  15.140  10.151  16.018
10567W        W11431  15.850   9.808  16.060
10568W        W11432  17.719  10.590  17.627
10569W        W11433  16.725   8.249  15.057
10570W        W11434  17.879  10.663  16.311
10571W        W11435  17.507   8.680  17.756
10572W        W11436  18.297  10.104  16.063
10573W        W11437  16.855   9.253  17.465
10574W        W11438  14.625   8.934  15.803
10575W        W11439  15.574   9.653  17.059
10576W        W11440  16.771   8.717  15.652
10577W        W11441  16.765   9.330  15.802
10578W        W11442  15.035   8.442  17.102
10579W        W11443  14.735   8.321  18.030
10580W        W11444  14.929   7.409  16.241
10581W        W11445  16.688   7.835  16.494
10582W        W11446  16.474   7.866  17.875
10583W        W11447  16.789   7.752  14.895
10584W        W11448  18.165  10.428  17.868
10585W        W11449  16.884   7.469  17.822
10586W        W11450  17.913   9.961  18.010
10587W        W11451  17.418   7.940  17.453
10588W        W11452  17.136   7.872  15.782
10589W        W11453  17.515   9.033  18.205
10590W        W11454  15.223  10.601  16.268
10591W        W11455  16.216   8.135  15.051
10592W        W11456  15.422   7.553  17.663
10593W        W11457  17.530   8.093  15.545
10594W        W11458  17.683   8.570  15.403
10595W        W11459  15.737  10.697  18.059
10596W        W11460  15.464   7.234  15.238
10597W        W11461  17.856   7.867  16.337
10598W        W11462  18.076  10.190  14.678
10599W        W11463  14.809   9.280  16.551
10600W        W11464  16.868   7.779  14.384
10601W        W11465  18.142  10.263  16.547
10602W        W11466  18.015   7.506  16.931
10603W        W11467  16.725   8.758  17.618
10604W        W11468  16.385   9.646  15.544
10605W        W11469  17.042   9.136  18.331
10606W        W11470  16.848   7.332  16.373
10607W        W11471  15.147   8.313  16.515
10608W        W11472  14.915   9.520  17.279
10609W        W11473  16.438  10.805  15.944
10610W        W11474  17.778   8.593  16.855
10611W        W11475  16.775  10.809  17.323
10612W        W11476  17.691   9.241  14.769
10613W        W11477  16.399   8.981  15.878
10614W        W11478  18.071   7.461  17.615
10615W        W11479  16.429   9.488  17.263
10616W        W11480  16.465   8.335  16.451
10617W        W11481  17.121   8.514  15.302
10618W        W11482  17.484   8.276  15.030
10619W        W11483  17.610  10.395  15.498
10620W        W11484  17.306   9.832  16.394
10621W        W11485  17.035   9.077  15.421
10622W        W11486  16.644   9.188  16.295
10623W        W11487  17.507   9.359  16.473
10624W        W11488  15.097   7.972  16.914
10625W        W11489  17.614   9.184  17.708
10626W        W11490  18.102  10.703  16.798
10627W        W11491  16.006  10.247  16.277
10628W        W11492  17.276  10.778  17.437
10629W        W11493  17.009   8.080  17.147
10630W        W11494  16.266  10.950  17.285
10631W        W11495  17.900   7.689  15.593
10632W        W11496  17.565   9.096  16.929
10633W        W11497  14.584   8.192  17.177
10634W        W11498  17.454   8.108  16.113
10635W        W11499  17.766   8.294  17.558
10636W        W11500  16.679   9.698  16.190
10637W        W11501  16.059  10.494  15.815
10638W        W11502  15.058   7.567  15.152
10639W        W11503  16.446   7.417  16.712
10640W        W11504  15.160  10.759  14.776
10641W        W11505  16.077   8.918  15.478
10642W        W11506  16.376   9.682  17.728
10643W        W11507  16.294   7.541  15.760
10644W        W11508  17.636   7.510  16.018
10645W        W11509  17.283  10.826  16.405
10646W        W11510  16.830  10.576  16.587
10647W        W11511  16.066   9.551  16.908
10648W        W11512  17.914  10.289  17.026
10649W        W11513  15.421   7.653  15.542
10650W        W11514  16.315  10.242  16.684
10651W        W11515  15.545   7.913  14.519
10652W        W11516  16.386   8.488  16.985
10653W        W11517  17.146   7.363  16.811
10654W        W11518  14.635   9.192  17.004
10655W        W11519  16.391   9.085  14.866
10656W        W11520  15.604   7.405  14.617
10657W        W11521  16.395   8.459  15.920
10658W        W11522  17.087   7.578  17.304
10659W        W11523  15.943   9.670  17.425
10660W        W11524  16.738   9.364  17.963
10661W        W11525  17.197   9.513  17.787
10662W        W11526  16.451   7.601  18.327
10663W        W11527  15.638   8.146  16.610
10664W        W11528  15.023   7.868  16.009
10665W        W11529  14.899  10.576  15.868
10666W        W11530  16.491  10.221  17.835
10667W        W11531  15.732  10.027  15.129
10668W        W11532  17.112   9.022  16.450
10669W        W11533  17.267   8.691  16.804
10670W        W11534  16.534   9.301  16.793
10671W        W11535  16.893   9.588  14.557
10672W        W11536  16.745   7.637  15.990
10673W        W11537  18.017   8.158  15.373
10674W        W11538  14.823  10.760  17.655
10675W        W11539  15.153   9.958  17.177
10676W        W11540  14.626  10.696  15.462
10677W        W11541  16.505   7.969  16.994
10678W        W11542  15.382  10.380  15.023
10679W        W11543  17.838  10.694  15.116
10680W        W11544  16.717   8.770  15.113
10681W        W11545  16.289   8.029  15.577
10682W        W11546  16.456   8.043  14.593
10683W        W11547  16.850   9.867  17.838
10684W        W11548  17.390   7.571  15.452
10685W        W11549  14.710   7.298  14.873
10686W        W11550  16.174  10.037  17.143
10687W        W11551  15.722   9.587  16.527
10688W        W11552  15.645  10.036  14.557
10689W        W11553  14.688  10.186  15.563
10690W        W11554  15.286   8.923  17.762
10691W        W11555  15.969   7.397  18.153
10692W        W11556  16.570   7.622  17.423
10693W        W11557  15.800   7.360  15.725
10694W        W11558  16.927   7.354  15.191
10695W        W11559  14.959   7.494  16.756
10696W        W11560  14.749   8.269  16.169
10697W        W11561  17.616   7.466  16.547
10698W        W11562  14.680   7.900  15.627
10699W        W11563  17.506   7.749  16.973
10700W        W11564  17.789   8.707  14.861
10701W        W11565  15.252   7.809  16.455
10702W        W11566  16.585   8.269  17.437
10703W        W11567  14.629   7.807  14.940
10704W        W11568  15.481   9.283  17.407
10705W        W11569  16.687   8.804  16.687
10706W        W11570  16.408  10.827  14.993
10707W        W11571  14.312   8.846  14.539
10708W        W11572  15.453   9.769  17.607
10709W        W11573  14.950   9.007  17.376
10710W        W11574  16.027   9.161  17.274
10711W        W11575  17.603   7.450  17.393
10712W        W11576  18.188   9.143  17.570
10713W        W11577  17.890   9.084  15.229
10714W        W11578  16.886   9.567  15.354
10715W        W11579  17.494  10.775  14.712
10716W        W11580  16.631   8.871  18.122
10717W        W11581  15.205   9.931  18.070
10718W        W11582  18.212   7.873  18.113
10719W        W11583  17.636   8.869  16.439
10720W        W11584  16.272  10.784  18.149
10721W        W11585  15.925   7.329  15.029
10722W        W11586  17.698   9.770  14.805
10723W        W11587  15.503   8.047  17.773
10724W        W11588  16.038  10.161  17.614
10725W        W11589  17.927   7.862  17.296
10726W        W11590  17.386  10.901  15.255
10727W        W11591  17.361   9.606  16.870
10728W        W11592  15.684   7.839  17.340
10729W        W11593  16.108   8.824  17.976
10730W        W11594  15.455   9.857  15.648
10731W        W11595  17.297   9.490  15.671
10732W        W11596  15.128   7.971  17.425
10733W        W11597  16.320   9.986  15.947
10734W        W11598  18.124   8.779  16.242
10735W        W11599  16.382   7.347  17.858
10736W        W11600  17.236  10.111  16.851
10737W        W11601  17.587  10.479  16.683
10738W        W11602  16.426  10.376  14.757
10739W        W11603  14.699  10.146  18.001
10740W        W11604  15.499   8.253  17.099
10741W        W11605  15.400   7.509  16.049
10742W        W11606  16.923   8.317  16.670
10743W        W11607  15.981   9.313  14.662
10744W        W11608  17.891   9.494  16.783
10745W        W11609  15.128  10.357  17.772
10746W        W11610  17.755  10.884  15.618
10747W        W11611  15.897   7.837  15.897
10748W        W11612  15.322   9.280  16.450
10749W        W11613  15.938  10.969  16.892
10750W        W11614  17.863  10.937  17.983
10751W        W11615  17.013   9.125  16.958
10752W        W11616  14.761   8.398  14.299
10753W        W11617  18.007  10.491  15.843
10754W        W11618  17.712   7.818  15.123
10755W        W11619  15.941   7.469  17.626
10756W        W11620  17.753  10.175  16.212
10757W        W11621  17.644   8.658  15.951
10758W        W11622  15.993   8.259  16.193
10759W        W11623  16.230   8.671  17.462
10760W        W11624  17.187   9.890  17.417
10761W        W11625  15.827   8.329  17.496
10762W        W11626  15.724  10.670  16.192
10763W        W11627  15.252  10.854  17.944
10764W        W11628  15.173  10.298  14.542
10765W        W11629  17.896  10.003  15.740
10766W        W11630  15.299   8.459  17.539
10767W        W11631  17.968   8.201  14.847
10768W        W11632  15.876   9.499  15.637
10769W        W11633  17.125   9.020  17.828
10770W        W11634  16.879   8.587  17.128
10771W        W11635  15.381   8.832  17.187
10772W        W11636  17.681  10.760  17.108
10773W        W11637  17.339   7.665  18.056
10774W        W11638  14.890   7.489  17.586
10775W        W11639  15.480   8.633  16.739
10776W        W11640  16.002   8.336  14.612
10777W        W11641  14.685  10.284  17.493
10778W        W11642  16.169   8.943  16.825
10779W        W11643  16.002   7.763  14.712
10780W        W11644  15.358   8.942  16.076
10781W        W11645  14.820  10.901  17.164
10782W        W11646  17.511   9.019  15.549
10783W        W11647  17.786   7.838  17.817
10784W        W11648  17.388  10.037  15.869
10785W        W11649  14.750   8.965  17.878
10786W        W11650  17.866   7.316  15.085
10787W        W11651  17.605   9.885  15.325
10788W        W11652  16.389   8.499  15.396
10789W        W11653  17.295   7.619  14.915
10790W        W11654  17.438   8.387  17.179
10791W        W11655  14.870   8.801  16.284
10792W        W11656  15.368   9.705  16.153
10793W        W11657  17.200   8.433  15.800
10794W        W11658  16.163   7.933  16.580
10795W        W11659  18.146   9.843  17.095
10796W        W11660  17.917   8.063  16.812
10797W        W11661  14.636  10.600  16.313
10798W        W11662  14.943   9.741  15.800
10799W        W11663  15.135   7.264  17.968
10800W        W11664  16.066  10.287  18.145
10801W        W11665  17.981   9.280  16.292
10802W        W11666  17.397   9.400  15.173
10803W        W11667  16.777  11.034  16.863
10804W        W11668  17.557   9.549  18.139
10805W        W11669  16.288   7.223  15.375
10806W        W11670  16.888   8.169  16.140
10807W        W11671  14.765   9.738  16.823
10808W        W11672  15.937   7.708  15.378
10809W        W11673  15.872   9.292  17.768
10810W        W11674  16.776   8.207  15.606
10811W        W11675  16.908   9.609  17.103
10812W        W11676  15.119  10.486  17.276
10813W        W11677  15.611  10.191  17.886
10814W        W11678  15.549   7.709  15.019
10815W        W11679  17.115   7.974  15.254
10816W        W11680  16.961  10.350  17.524
10817W        W11681  15.775   8.927  16.446
10818W        W11682  15.504  10.749  17.061
10819W        W11683  18.001  10.700  14.637
10820W        W11684  15.086   9.396  17.755
10821W        W11685  16.941   9.520  16.598
10822W        W11686  15.365   9.366  15.770
10823W        W11687  15.962  10.529  17.184
10824W        W11688  16.211   7.523  16.261
10825W        W11689  14.613   9.683  15.398
10826W        W11690  16.507   8.544  14.681
10827W        W11691  14.942   9.281  16.062
10828W        W11692  16.174   7.945  17.464
10829W        W11693  17.908   7.552  14.628
10830W        W11694  18.014   9.416  17.969
10831W        W11695  16.723  10.681  17.855
10832W        W11696  18.164   9.682  17.573
10833W        W11697  17.706  10.450  18.136
10834W        W11698  15.443  10.941  16.597
10835W        W11699  18.185   9.601  15.934
10836W        W11700  16.775   8.685  16.185
10837W        W11701  16.649   7.147  15.815
10838W        W11702  15.623  10.256  15.903
10839W        W11703  15.992   8.141  17.021
10840W        W11704  15.747   7.708  16.369
10841W        W11705  14.850  10.405  15.066
10842W        W11706  16.256   9.463  16.003
10843W        W11707  15.572  10.575  17.557
10844W        W11708  14.903   9.285  15.548
10845W        W11709  14.749   7.906  16.534
10846W        W11710  16.213   9.795  16.438
10847W        W11711  14.571   7.463  15.354
10848W        W11712  17.256   8.873  17.339
10849W        W11713  17.109   8.097  14.713
10850W        W11714  17.710   9.967  16.681
10851W        W11715  16.529  10.360  16.224
10852W        W11716  15.703  10.460  15.425
10853W        W11717  16.973   7.321  14.654
10854W        W11718  15.016  10.675  16.745
10855W        W11719  16.704   8.336  17.943
10856W        W11720  15.055   7.825  17.950
10857W        W11721  14.632   8.431  15.682
10858W        W11722  16.119   8.671  14.995
10859W        W11723  17.113   8.592  18.080
10860W        W11724  15.686   9.162  16.889
10861W        W11725  17.157   7.322  15.920
10862W        W11726  16.208  10.718  16.406
10863W        W11727  17.445  10.327  17.266
10864W        W11728  17.236  10.324  16.336
10865W        W11729  17.129   9.426  16.138
10866W        W11730  16.344   7.633  15.076
10867W        W11731  18.123   7.318  15.910
10868W        W11732  15.807   8.817  14.581
10869W        W11733  17.920   8.118  15.895
10870W        W11734  16.889   9.233  14.958
10871W        W11735  17.651   9.698  17.653
10872W        W11736  17.617  10.278  14.923
10873W        W11737  15.961   7.882  17.944
10874W        W11738  15.857   8.653  17.097
10875W        W11739  17.923  10.134  17.515
10876W        W11740  16.942   7.948  17.659
10877W        W11741  14.743   8.531  17.556
10878W        W11742  16.537   8.970  17.179
10879W        W11743  14.897   9.730  16.320
10880W        W11744  14.995   8.843  16.783
10881W        W11745  17.333   9.383  17.318
10882W        W11746  17.300  10.734  17.934
10883W        W11747  17.100   8.421  17.567
10884W        W11748  17.499  10.593  15.972
10885W        W11749  16.431  10.440  17.376
10886W        W11750  15.801  10.524  16.679
10887W        W11751  17.647   9.863  17.179
10888W        W11752  16.406   9.854  18.217
10889W        W11753  15.266   9.790  16.676
10890W        W11754  17.686   9.667  16.082
10891W        W11755  17.185  10.708  16.936
10892W        W11756  15.364  10.294  16.854
10893W        W11757  16.207   8.325  17.848
10894W        W11758  16.242  10.372  15.334
10895W        W11759  15.941   9.786  17.969
10896W        W11760  15.958  10.016  15.590
10897W        W11761  15.428   8.402  14.421
10898W        W11762  14.630  10.967  21.706
10899W        W11763  15.176   9.869  21.195
10900W        W11764  17.813   9.428  18.928
10901W        W11765  18.023  10.622  20.914
10902W        W11766  15.652  10.630  18.564
10903W        W11767  15.940   8.771  19.271
10904W        W11768  15.273   8.818  19.925
10905W        W11769  16.346   9.360  18.999
10906W        W11770  16.155  10.587  21.338
10907W        W11771  14.596   8.099  21.218
10908W        W11772  15.325   7.451  21.107
10909W        W11773  17.203   7.846  19.937
10910W        W11774  16.796   8.431  18.451
10911W        W11775  17.278   8.233  21.577
10912W        W11776  14.694   7.749  20.823
10913W        W11777  14.844  10.510  21.813
10914W        W11778  16.159  10.047  18.658
10915W        W11779  14.655   8.508  20.282
10916W        W11780  15.792   8.605  21.343
10917W        W11781  18.049   8.267  20.007
10918W        W11782  17.913   9.381  20.750
10919W        W11783  16.445   8.671  19.862
10920W        W11784  16.847  10.028  20.157
10921W        W11785  15.149   9.420  20.567
10922W        W11786  14.366   8.979  20.263
10923W        W11787  15.808   9.046  21.049
10924W        W11788  17.915   8.825  21.458
10925W        W11789  15.470  10.162  19.927
10926W        W11790  16.702   9.978  20.990
10927W        W11791  16.081   8.496  20.197
10928W        W11792  16.087   9.393  19.890
10929W        W11793  17.050  10.344  21.669
10930W        W11794  16.344   9.388  21.731
10931W        W11795  16.445   9.213  21.215
10932W        W11796  14.199   8.278  21.528
10933W        W11797  17.432  10.096  21.364
10934W        W11798  15.022   7.599  19.352
10935W        W11799  15.584   9.779  20.605
10936W        W11800  17.965   9.647  19.777
10937W        W11801  17.592   8.186  20.228
10938W        W11802  17.706   8.035  18.294
10939W        W11803  18.301   8.814  20.689
10940W        W11804  16.244  10.539  20.475
10941W        W11805  18.020   9.952  18.961
10942W        W11806  15.061  10.909  18.967
10943W        W11807  15.420  10.874  19.335
10944W        W11808  15.230   7.660  20.663
10945W        W11809  17.805   8.685  20.928
10946W        W11810  17.248   8.929  19.433
10947W        W11811  17.235   8.678  18.564
10948W        W11812  16.489   9.975  20.520
10949W        W11813  16.361   8.138  19.824
10950W        W11814  16.909  10.263  20.637
10951W        W11815  17.732   9.032  19.248
10952W        W11816  16.746   7.626  19.166
10953W        W11817  15.268  10.437  19.062
10954W        W11818  14.626   7.895  19.512
10955W        W11819  17.296   8.472  19.899
10956W        W11820  14.974  10.212  20.072
10957W        W11821  16.153  10.565  18.617
10958W        W11822  17.604   8.539  18.231
10959W        W11823  14.745  10.278  20.562
10960W        W11824  15.575  10.145  20.974
10961W        W11825  15.979   9.301  19.386
10962W        W11826  15.686   7.780  20.436
10963W        W11827  18.212   7.498  20.205
10964W        W11828  15.519   9.519  18.079
10965W        W11829  14.924   7.992  18.423
10966W        W11830  15.092  10.188  19.560
10967W        W11831  15.863   9.778  19.608
10968W        W11832  17.582  10.583  21.181
10969W        W11833  16.530   8.277  18.854
10970W        W11834  17.883  10.838  19.814
10971W        W11835  17.450   8.674  21.298
10972W        W11836  18.159  10.013  19.470
10973W        W11837  16.894   9.490  21.058
10974W        W11838  14.566   9.005  19.482
10975W        W11839  15.760   9.292  20.592
10976W        W11840  16.917   8.587  18.991
10977W        W11841  16.764   9.089  19.153
10978W        W11842  15.011   8.521  20.686
10979W        W11843  15.048   8.501  21.198
10980W        W11844  14.976   7.478  19.857
10981W        W11845  16.696   7.885  20.173
10982W        W11846  16.407   7.939  21.418
10983W        W11847  16.837   7.831  18.679
10984W        W11848  18.043  10.575  21.442
10985W        W11849  16.902   7.394  21.275
10986W        W11850  17.873   9.889  21.550
10987W        W11851  17.395   8.036  21.103
10988W        W11852  17.185   7.864  19.391
10989W        W11853  17.500   9.075  21.617
10990W        W11854  15.244  10.619  19.838
10991W        W11855  16.032   8.220  18.776
10992W        W11856  15.530   7.709  21.505
10993W        W11857  17.624   8.154  19.194
10994W        W11858  17.943   8.576  19.081
10995W        W11859  15.731  10.734  21.652
10996W        W11860  15.354   7.454  18.989
10997W        W11861  18.013   7.788  19.819
10998W        W11862  18.108  10.233  18.419
10999W        W11863  14.698   9.343  20.082
11000W        W11864  16.887   7.907  18.175
11001W        W11865  18.100  10.235  19.956
11002W        W11866  17.951   7.510  20.650
11003W        W11867  16.669   8.769  21.330
11004W        W11868  16.417   9.895  19.119
11005W        W11869  17.104   9.165  21.918
11006W        W11870  16.796   7.389  20.024
11007W        W11871  15.107   8.333  20.096
11008W        W11872  14.883   9.494  21.017
11009W        W11873  16.559  10.463  19.692
11010W        W11874  17.946   8.481  20.478
11011W        W11875  16.712  10.755  21.158
11012W        W11876  17.922   9.256  18.443
11013W        W11877  16.376   8.985  19.456
11014W        W11878  18.114   7.408  21.136
11015W        W11879  16.449   9.572  20.833
11016W        W11880  16.600   8.373  20.237
11017W        W11881  17.429   8.623  19.062
11018W        W11882  17.660   8.371  18.697
11019W        W11883  17.632  10.228  19.194
11020W        W11884  17.285   9.875  19.913
11021W        W11885  17.186   9.037  18.897
11022W        W11886  16.562   9.184  19.902
11023W        W11887  17.433   9.115  20.074
11024W        W11888  14.885   8.061  20.475
11025W        W11889  17.634   9.131  21.124
11026W        W11890  18.105  10.654  20.273
11027W        W11891  15.948  10.303  19.790
11028W        W11892  17.191  10.789  20.899
11029W        W11893  16.960   8.064  20.798
11030W        W11894  16.276  10.904  20.878
11031W        W11895  17.951   7.760  19.298
11032W        W11896  17.693   8.971  20.506
11033W        W11897  14.498   8.265  20.724
11034W        W11898  17.597   8.098  19.710
11035W        W11899  17.786   8.297  21.309
11036W        W11900  16.822   9.835  19.674
11037W        W11901  16.124  10.672  19.476
11038W        W11902  15.111   7.499  18.409
11039W        W11903  16.434   7.526  20.434
11040W        W11904  15.201  10.882  18.472
11041W        W11905  15.845   9.242  18.878
11042W        W11906  16.440   9.712  21.331
11043W        W11907  16.316   7.815  19.413
11044W        W11908  17.555   7.591  19.617
11045W        W11909  17.363  10.879  19.992
11046W        W11910  16.712  10.534  20.200
11047W        W11911  16.123   9.603  20.417
11048W        W11912  17.897  10.268  20.546
11049W        W11913  15.551   7.752  19.389
11050W        W11914  15.866  10.008  20.209
11051W        W11915  15.523   7.675  18.145
11052W        W11916  16.364   8.614  20.620
11053W        W11917  17.081   7.618  20.395
11054W        W11918  14.644   9.298  20.603
11055W        W11919  16.239   9.092  18.565
11056W        W11920  15.609   7.389  18.555
11057W        W11921  16.337   8.435  19.383
11058W        W11922  17.146   7.615  20.903
11059W        W11923  15.957   9.625  20.932
11060W        W11924  16.811   9.386  21.555
11061W        W11925  17.294   9.516  21.415
11062W        W11926  16.546   7.575  21.843
11063W        W11927  15.646   8.198  20.131
11064W        W11928  15.128   7.967  19.700
11065W        W11929  14.946  10.674  19.427
11066W        W11930  16.554  10.258  21.433
11067W        W11931  15.539   9.687  18.763
11068W        W11932  16.998   8.905  19.896
11069W        W11933  17.251   8.705  20.341
11070W        W11934  16.581   9.349  20.401
11071W        W11935  17.057   9.650  18.285
11072W        W11936  16.759   7.781  19.673
11073W        W11937  18.238   8.108  19.024
11074W        W11938  14.860  10.706  21.255
11075W        W11939  15.066   9.908  20.708
11076W        W11940  14.580  10.777  19.071
11077W        W11941  16.467   8.085  20.628
11078W        W11942  15.698  10.188  18.848
11079W        W11943  17.987  10.466  18.920
11080W        W11944  16.724   8.918  18.647
11081W        W11945  15.927   8.113  19.280
11082W        W11946  16.398   8.102  18.351
11083W        W11947  16.941   9.894  21.421
11084W        W11948  17.508   7.615  19.076
11085W        W11949  14.615   7.383  18.523
11086W        W11950  16.020  10.085  20.688
11087W        W11951  15.670   9.543  20.135
11088W        W11952  15.677  10.004  18.362
11089W        W11953  14.737  10.277  19.150
11090W        W11954  15.352   8.918  21.234
11091W        W11955  16.057   7.643  21.693
11092W        W11956  16.602   7.708  20.963
11093W        W11957  15.965   7.431  19.579
11094W        W11958  17.109   7.380  18.846
11095W        W11959  14.845   7.557  20.357
11096W        W11960  14.683   8.356  19.772
11097W        W11961  17.674   7.661  20.183
11098W        W11962  14.916   7.691  18.843
11099W        W11963  17.500   7.862  20.621
11100W        W11964  18.041   8.734  18.448
11101W        W11965  15.241   7.835  20.178
11102W        W11966  16.549   8.312  21.079
11103W        W11967  14.419   7.850  18.629
11104W        W11968  15.449   9.436  20.984
11105W        W11969  16.696   8.864  20.307
11106W        W11970  16.562  10.923  18.585
11107W        W11971  14.528   9.343  18.289
11108W        W11972  15.658   9.767  21.325
11109W        W11973  14.920   8.981  20.964
11110W        W11974  16.230   9.126  20.745
11111W        W11975  17.623   7.560  21.050
11112W        W11976  18.174   9.105  21.106
11113W        W11977  18.144   9.037  18.887
11114W        W11978  16.962   9.493  18.845
11115W        W11979  17.495  10.941  18.362
11116W        W11980  16.639   8.950  21.825
11117W        W11981  15.299   9.907  21.688
11118W        W11982  18.274   7.919  21.791
11119W        W11983  17.723   8.683  20.059
11120W        W11984  16.212  10.813  21.824
11121W        W11985  16.102   7.382  18.650
11122W        W11986  17.834   9.770  18.511
11123W        W11987  15.493   8.191  21.300
11124W        W11988  16.082  10.083  21.202
11125W        W11989  17.909   7.983  20.921
11126W        W11990  17.570  10.752  18.834
11127W        W11991  17.404   9.565  20.317
11128W        W11992  15.622   7.855  20.946
11129W        W11993  16.180   8.930  21.559
11130W        W11994  15.486   9.964  19.266
11131W        W11995  17.354   9.403  19.194
11132W        W11996  15.091   8.031  20.993
11133W        W11997  16.330   9.996  19.623
11134W        W11998  18.124   8.686  19.729
11135W        W11999  16.403   7.424  21.364
11136W        W12000  17.314  10.091  20.363
11137W        W12001  17.639  10.440  20.108
11138W        W12002  16.553  10.384  18.324
11139W        W12003  14.755  10.036  21.584
11140W        W12004  15.374   8.153  20.580
11141W        W12005  15.494   7.537  19.847
11142W        W12006  17.087   8.199  20.314
11143W        W12007  15.993   9.583  18.493
11144W        W12008  17.898   9.384  20.221
11145W        W12009  15.149  10.325  21.412
11146W        W12010  17.804  10.901  19.272
11147W        W12011  15.895   7.887  19.791
11148W        W12012  15.215   9.308  20.078
11149W        W12013  15.896  10.937  20.514
11150W        W12014  17.729  10.973  21.493
11151W        W12015  17.075   9.178  20.455
11152W        W12016  14.470   8.801  18.322
11153W        W12017  18.027  10.492  19.453
11154W        W12018  17.825   7.905  18.787
11155W        W12019  15.895   7.481  21.206
11156W        W12020  17.683  10.105  19.691
11157W        W12021  17.655   8.597  19.535
11158W        W12022  15.929   8.403  19.713
11159W        W12023  16.215   8.727  21.084
11160W        W12024  17.212   9.889  20.957
11161W        W12025  16.028   8.187  21.112
11162W        W12026  15.734  10.796  19.781
11163W        W12027  15.213  10.827  21.608
11164W        W12028  15.305  10.416  18.253
11165W        W12029  17.741   9.726  19.334
11166W        W12030  15.516   8.523  20.909
11167W        W12031  18.143   8.236  18.499
11168W        W12032  15.939   9.720  19.072
11169W        W12033  17.097   9.059  21.266
11170W        W12034  16.879   8.546  20.672
11171W        W12035  15.378   8.982  20.720
11172W        W12036  17.661  10.738  20.551
11173W        W12037  17.422   7.729  21.520
11174W        W12038  14.869   7.641  21.304
11175W        W12039  15.435   8.612  20.378
11176W        W12040  15.917   8.303  18.277
11177W        W12041  14.740  10.152  21.089
11178W        W12042  16.197   9.012  20.247
11179W        W12043  15.934   7.820  18.458
11180W        W12044  15.586   9.230  19.718
11181W        W12045  14.866  10.818  20.759
11182W        W12046  17.659   8.927  18.728
11183W        W12047  17.922   7.795  21.423
11184W        W12048  17.264   9.880  19.397
11185W        W12049  14.890   8.902  21.491
11186W        W12050  17.956   7.419  18.851
11187W        W12051  17.471   9.819  18.896
11188W        W12052  16.373   8.767  18.977
11189W        W12053  17.372   7.732  18.578
11190W        W12054  17.417   8.376  20.711
11191W        W12055  14.761   8.862  19.924
11192W        W12056  15.373   9.698  19.712
11193W        W12057  17.195   8.368  19.418
11194W        W12058  16.138   7.957  20.257
11195W        W12059  18.163   9.821  20.655
11196W        W12060  18.055   7.958  20.417
11197W        W12061  14.719  10.659  19.925
11198W        W12062  14.997   9.739  19.329
11199W        W12063  15.076   7.690  21.808
11200W        W12064  16.080  10.330  21.780
11201W        W12065  17.846   9.112  19.758
11202W        W12066  17.421   9.384  18.601
11203W        W12067  16.718  10.753  20.655
11204W        W12068  17.565   9.520  21.865
11205W        W12069  16.240   7.384  19.138
11206W        W12070  16.852   8.264  19.803
11207W        W12071  14.728   9.796  20.330
11208W        W12072  15.838   7.701  18.959
11209W        W12073  15.985   9.387  21.382
11210W        W12074  16.751   8.140  19.294
11211W        W12075  16.942   9.699  20.561
11212W        W12076  15.133  10.400  20.893
11213W        W12077  15.670  10.244  21.488
11214W        W12078  15.418   7.852  18.653
11215W        W12079  17.184   8.140  18.927
11216W        W12080  17.035  10.354  21.147
11217W        W12081  15.988   8.904  19.782
11218W        W12082  15.448  10.729  20.664
11219W        W12083  17.985  10.748  18.460
11220W        W12084  15.260   9.402  21.454
11221W        W12085  16.960   9.491  20.059
11222W        W12086  15.498   9.456  19.256
11223W        W12087  15.899  10.548  20.881
11224W        W12088  16.331   7.621  19.919
11225W        W12089  14.485   9.779  19.126
11226W        W12090  16.315   8.599  18.449
11227W        W12091  15.042   9.278  19.601
11228W        W12092  16.099   7.761  20.777
11229W        W12093  17.854   7.572  18.377
11230W        W12094  17.925   9.366  21.478
11231W        W12095  16.692  10.749  21.657
11232W        W12096  18.196   9.723  21.165
11233W        W12097  17.567  10.502  21.673
11234W        W12098  15.427  10.945  20.185
11235W        W12099  18.223   9.543  19.279
11236W        W12100  16.790   8.675  19.479
11237W        W12101  16.527   7.337  19.554
11238W        W12102  15.565  10.415  19.481
11239W        W12103  15.889   8.244  20.618
11240W        W12104  15.909   7.448  20.136
11241W        W12105  14.887  10.515  18.683
11242W        W12106  16.447   9.503  19.503
11243W        W12107  15.494  10.629  21.194
11244W        W12108  14.739   9.318  19.105
11245W        W12109  14.705   7.908  20.020
11246W        W12110  16.471   9.697  20.035
11247W        W12111  14.497   7.481  19.036
11248W        W12112  17.281   8.866  20.832
11249W        W12113  17.240   8.193  18.412
11250W        W12114  17.768   9.910  20.176
11251W        W12115  16.339  10.201  20.095
11252W        W12116  15.810  10.642  19.067
11253W        W12117  16.944   7.411  18.339
11254W        W12118  15.050  10.635  20.329
11255W        W12119  16.753   8.335  21.593
11256W        W12120  15.044   8.090  21.508
11257W        W12121  14.413   8.548  19.340
11258W        W12122  15.903   8.733  18.728
11259W        W12123  17.090   8.718  21.662
11260W        W12124  15.677   9.018  20.180
11261W        W12125  17.063   7.371  19.556
11262W        W12126  16.204  10.715  19.993
11263W        W12127  17.431  10.323  20.788
11264W        W12128  17.147  10.388  19.920
11265W        W12129  16.957   9.338  19.565
11266W        W12130  16.342   7.798  18.834
11267W        W12131  18.251   7.397  19.548
11268W        W12132  15.805   9.123  18.287
11269W        W12133  18.041   8.237  19.490
11270W        W12134  16.614   9.422  18.470
11271W        W12135  17.680   9.661  21.134
11272W        W12136  17.632  10.248  18.630
11273W        W12137  15.892   8.115  21.614
11274W        W12138  15.871   8.773  20.610
11275W        W12139  17.863  10.144  21.070
11276W        W12140  16.934   7.916  21.328
11277W        W12141  14.544   8.624  21.179
11278W        W12142  16.743   9.024  20.833
11279W        W12143  14.902   9.758  19.853
11280W        W12144  14.970   8.946  20.387
11281W        W12145  17.350   9.411  20.814
11282W        W12146  17.202  10.819  21.451
11283W        W12147  17.039   8.435  21.154
11284W        W12148  17.503  10.589  19.576
11285W        W12149  16.418  10.390  20.927
11286W        W12150  15.757  10.525  20.231
11287W        W12151  17.644   9.842  20.672
11288W        W12152  16.568   9.861  21.811
11289W        W12153  15.242   9.803  20.226
11290W        W12154  17.464   9.456  19.693
11291W        W12155  17.195  10.602  20.397
11292W        W12156  15.384  10.245  20.456
11293W        W12157  16.269   8.437  21.519
11294W        W12158  16.368  10.458  19.077
11295W        W12159  16.066   9.833  21.658
11296W        W12160  15.983  10.186  19.283
11297W        W12161  15.390   8.172  18.248
11298W        W12162  14.802  10.769  25.483
11299W        W12163  15.005   9.758  24.901
11300W        W12164  17.900   9.385  22.866
11301W        W12165  18.207  10.475  24.695
11302W        W12166  15.672  10.644  22.181
11303W        W12167  15.934   8.820  23.174
11304W        W12168  15.438   8.527  23.537
11305W        W12169  16.447   9.412  22.809
11306W        W12170  16.101  10.574  24.866
11307W        W12171  14.618   8.094  25.032
11308W        W12172  15.272   7.287  24.945
11309W        W12173  17.078   7.738  23.590
11310W        W12174  16.865   8.533  22.098
11311W        W12175  17.289   8.245  25.232
11312W        W12176  14.691   7.766  24.655
11313W        W12177  15.010  10.297  25.575
11314W        W12178  16.203  10.052  22.206
11315W        W12179  14.584   8.423  24.029
11316W        W12180  15.698   8.576  25.185
11317W        W12181  17.759   8.356  23.697
11318W        W12182  17.746   9.354  24.548
11319W        W12183  16.279   8.816  23.600
11320W        W12184  16.858  10.147  23.988
11321W        W12185  15.143   9.395  24.157
11322W        W12186  14.515   8.904  23.816
11323W        W12187  15.680   8.985  24.858
11324W        W12188  17.819   8.832  25.125
11325W        W12189  15.483  10.175  23.682
11326W        W12190  16.602  10.011  24.712
11327W        W12191  15.856   8.437  24.005
11328W        W12192  16.088   9.309  23.758
11329W        W12193  16.561  10.362  25.633
11330W        W12194  16.162   9.382  25.463
11331W        W12195  16.244   9.242  24.974
11332W        W12196  14.451   8.416  25.408
11333W        W12197  17.441  10.172  25.127
11334W        W12198  15.011   7.525  23.029
11335W        W12199  15.566   9.908  24.232
11336W        W12200  18.048   9.718  23.685
11337W        W12201  17.399   8.104  23.998
11338W        W12202  17.726   8.094  21.808
11339W        W12203  18.129   8.729  24.395
11340W        W12204  16.149  10.644  24.051
11341W        W12205  18.124   9.855  22.873
11342W        W12206  15.029  10.851  22.681
11343W        W12207  15.420  10.849  23.058
11344W        W12208  15.179   7.614  24.547
11345W        W12209  17.670   8.815  24.620
11346W        W12210  17.153   8.883  23.313
11347W        W12211  17.139   8.890  22.373
11348W        W12212  16.417   9.917  24.209
11349W        W12213  16.364   8.159  23.383
11350W        W12214  16.906  10.345  24.444
11351W        W12215  17.663   9.031  23.151
11352W        W12216  16.735   7.691  22.735
11353W        W12217  15.281  10.411  22.808
11354W        W12218  14.695   7.918  23.158
11355W        W12219  17.259   8.498  23.694
11356W        W12220  14.944  10.249  23.749
11357W        W12221  16.162  10.568  22.296
11358W        W12222  17.582   8.594  21.808
11359W        W12223  14.778  10.252  24.238
11360W        W12224  15.477   9.973  24.729
11361W        W12225  15.761   9.377  23.365
11362W        W12226  15.541   7.746  24.209
11363W        W12227  18.067   7.456  23.823
11364W        W12228  15.665   9.529  21.781
11365W        W12229  14.931   8.140  22.027
11366W        W12230  15.142  10.206  23.278
11367W        W12231  15.817   9.942  23.385
11368W        W12232  17.733  10.600  24.909
11369W        W12233  16.577   8.515  22.561
11370W        W12234  17.802  10.936  23.493
11371W        W12235  17.338   8.704  25.007
11372W        W12236  18.175  10.090  23.338
11373W        W12237  16.770   9.505  24.814
11374W        W12238  14.452   9.034  22.888
11375W        W12239  15.520   9.485  24.504
11376W        W12240  16.889   8.812  22.835
11377W        W12241  16.752   9.178  23.176
11378W        W12242  15.048   8.544  24.380
11379W        W12243  14.989   8.467  25.117
11380W        W12244  14.821   7.536  23.509
11381W        W12245  16.595   7.883  23.769
11382W        W12246  16.407   7.954  25.220
11383W        W12247  16.730   8.075  22.356
11384W        W12248  18.152  10.565  25.214
11385W        W12249  16.982   7.406  25.052
11386W        W12250  17.912  10.042  25.287
11387W        W12251  17.356   7.994  24.784
11388W        W12252  17.137   7.885  23.046
11389W        W12253  17.499   9.136  25.486
11390W        W12254  15.263  10.643  23.553
11391W        W12255  16.211   8.166  22.468
11392W        W12256  15.550   7.668  25.161
11393W        W12257  17.519   8.225  22.825
11394W        W12258  17.884   8.624  22.879
11395W        W12259  15.764  10.790  25.204
11396W        W12260  15.423   7.428  22.498
11397W        W12261  17.905   7.866  23.575
11398W        W12262  17.989  10.269  21.875
11399W        W12263  14.807   9.333  23.751
11400W        W12264  16.921   7.970  21.888
11401W        W12265  18.069  10.231  23.837
11402W        W12266  17.961   7.420  24.533
11403W        W12267  16.568   8.808  25.069
11404W        W12268  16.441   9.937  22.814
11405W        W12269  16.995   9.185  25.629
11406W        W12270  16.691   7.369  23.725
11407W        W12271  15.074   8.391  23.872
11408W        W12272  14.896   9.364  24.603
11409W        W12273  16.722  10.532  23.450
11410W        W12274  17.722   8.236  24.400
11411W        W12275  16.628  10.661  24.754
11412W        W12276  17.570   9.049  22.134
11413W        W12277  16.250   9.205  23.275
11414W        W12278  18.423   7.306  24.911
11415W        W12279  16.316   9.588  24.595
11416W        W12280  16.407   8.400  23.861
11417W        W12281  17.389   8.730  22.817
11418W        W12282  17.634   8.562  22.382
11419W        W12283  17.729  10.167  23.026
11420W        W12284  17.234   9.905  23.742
11421W        W12285  16.944   9.292  22.676
11422W        W12286  16.614   9.196  23.692
11423W        W12287  17.575   8.908  23.659
11424W        W12288  15.027   8.023  24.223
11425W        W12289  17.499   9.192  24.972
11426W        W12290  18.100  10.744  24.138
11427W        W12291  15.967  10.375  23.597
11428W        W12292  17.136  10.762  24.640
11429W        W12293  16.925   8.082  24.498
11430W        W12294  16.246  10.919  24.491
11431W        W12295  17.769   7.778  22.939
11432W        W12296  17.422   9.083  24.244
11433W        W12297  14.626   8.266  24.511
11434W        W12298  17.430   8.070  23.425
11435W        W12299  17.718   8.354  24.912
11436W        W12300  16.813  10.019  23.481
11437W        W12301  16.099  10.625  23.157
11438W        W12302  15.008   7.683  22.316
11439W        W12303  16.280   7.579  24.056
11440W        W12304  15.155  10.805  22.155
11441W        W12305  15.937   9.246  22.860
11442W        W12306  16.298   9.756  25.079
11443W        W12307  16.251   7.872  22.950
11444W        W12308  17.511   7.550  23.333
11445W        W12309  17.305  10.948  23.662
11446W        W12310  16.675  10.646  23.976
11447W        W12311  15.980   9.617  24.202
11448W        W12312  17.855  10.277  24.305
11449W        W12313  15.471   7.765  22.899
11450W        W12314  15.968  10.157  24.058
11451W        W12315  15.438   8.076  21.862
11452W        W12316  16.227   8.488  24.358
11453W        W12317  17.001   7.757  24.094
11454W        W12318  14.588   9.276  24.211
11455W        W12319  16.174   9.039  22.072
11456W        W12320  15.525   7.565  22.009
11457W        W12321  16.609   8.603  23.218
11458W        W12322  17.054   7.586  24.582
11459W        W12323  15.853   9.597  24.872
11460W        W12324  16.644   9.401  25.302
11461W        W12325  17.173   9.547  25.213
11462W        W12326  16.496   7.585  25.577
11463W        W12327  15.525   8.078  23.810
11464W        W12328  15.110   8.031  23.473
11465W        W12329  14.896  10.659  23.167
11466W        W12330  16.431  10.278  25.126
11467W        W12331  15.984   9.749  22.607
11468W        W12332  17.125   9.114  23.792
11469W        W12333  17.076   8.727  24.128
11470W        W12334  16.402   9.338  24.158
11471W        W12335  17.076   9.701  21.869
11472W        W12336  16.673   7.763  23.259
11473W        W12337  18.047   8.149  22.704
11474W        W12338  14.850  10.604  24.994
11475W        W12339  15.064   9.856  24.401
11476W        W12340  14.538  10.716  22.748
11477W        W12341  16.474   8.045  24.241
11478W        W12342  15.761  10.209  22.466
11479W        W12343  18.102  10.537  22.349
11480W        W12344  16.617   8.979  22.369
11481W        W12345  16.208   8.411  22.943
11482W        W12346  16.386   8.060  21.925
11483W        W12347  16.784   9.898  25.193
11484W        W12348  17.203   7.903  22.522
11485W        W12349  14.612   7.362  22.229
11486W        W12350  16.002  10.006  24.553
11487W        W12351  15.677   9.656  23.795
11488W        W12352  15.716  10.026  21.981
11489W        W12353  14.765  10.250  22.856
11490W        W12354  15.279   8.891  25.222
11491W        W12355  16.037   7.598  25.340
11492W        W12356  16.560   7.709  24.622
11493W        W12357  15.887   7.513  23.086
11494W        W12358  16.885   7.584  22.241
11495W        W12359  14.801   7.567  24.201
11496W        W12360  14.675   8.360  23.531
11497W        W12361  17.548   7.614  23.857
11498W        W12362  15.014   7.979  22.744
11499W        W12363  17.506   7.730  24.362
11500W        W12364  18.018   8.783  21.986
11501W        W12365  15.178   7.665  23.857
11502W        W12366  16.441   8.208  24.755
11503W        W12367  14.526   7.869  22.222
11504W        W12368  15.297   9.319  24.931
11505W        W12369  16.572   8.854  24.095
11506W        W12370  16.585  10.867  22.175
11507W        W12371  14.505   9.153  21.929
11508W        W12372  15.441   9.748  25.188
11509W        W12373  14.956   8.897  24.815
11510W        W12374  15.993   9.193  24.504
11511W        W12375  17.492   7.483  24.828
11512W        W12376  18.123   9.100  24.801
11513W        W12377  17.929   8.996  22.508
11514W        W12378  16.854   9.679  23.026
11515W        W12379  17.450  10.927  21.940
11516W        W12380  16.558   8.919  25.571
11517W        W12381  14.952   9.773  25.416
11518W        W12382  18.318   7.640  25.322
11519W        W12383  17.597   8.625  24.105
11520W        W12384  16.235  10.711  25.387
11521W        W12385  15.989   7.401  22.163
11522W        W12386  17.480  10.037  21.877
11523W        W12387  15.390   8.165  25.113
11524W        W12388  15.908  10.102  25.044
11525W        W12389  17.861   7.876  24.728
11526W        W12390  17.492  10.906  22.455
11527W        W12391  17.294   9.544  24.083
11528W        W12392  15.575   7.904  24.705
11529W        W12393  16.075   8.899  25.323
11530W        W12394  15.520   9.960  22.953
11531W        W12395  17.267   9.353  23.101
11532W        W12396  15.085   8.144  24.708
11533W        W12397  16.326  10.117  23.307
11534W        W12398  17.997   8.697  23.402
11535W        W12399  16.439   7.451  25.061
11536W        W12400  17.344  10.236  24.141
11537W        W12401  17.656  10.574  23.869
11538W        W12402  16.555  10.370  21.967
11539W        W12403  14.655  10.149  25.228
11540W        W12404  15.486   8.266  24.333
11541W        W12405  15.397   7.597  23.393
11542W        W12406  16.889   8.267  24.006
11543W        W12407  16.065   9.565  22.119
11544W        W12408  17.791   9.362  24.000
11545W        W12409  15.159  10.198  25.090
11546W        W12410  17.738  10.928  22.948
11547W        W12411  15.801   7.949  23.363
11548W        W12412  15.326   9.272  23.686
11549W        W12413  15.821  11.005  24.208
11550W        W12414  17.914  11.030  25.171
11551W        W12415  16.899   9.248  24.237
11552W        W12416  14.691   8.435  21.632
11553W        W12417  18.036  10.569  23.186
11554W        W12418  17.691   8.014  22.357
11555W        W12419  15.745   7.386  24.758
11556W        W12420  17.656  10.144  23.536
11557W        W12421  17.537   8.549  23.269
11558W        W12422  15.951   8.427  23.510
11559W        W12423  16.142   8.768  24.783
11560W        W12424  17.136   9.889  24.809
11561W        W12425  15.880   8.317  24.765
11562W        W12426  15.755  10.825  23.501
11563W        W12427  15.287  10.657  25.322
11564W        W12428  15.355  10.400  21.874
11565W        W12429  17.774   9.702  23.250
11566W        W12430  15.382   8.568  24.774
11567W        W12431  18.066   8.301  22.149
11568W        W12432  16.107   9.670  23.097
11569W        W12433  16.993   9.097  25.078
11570W        W12434  16.726   8.554  24.473
11571W        W12435  15.316   9.006  24.465
11572W        W12436  17.614  10.740  24.393
11573W        W12437  17.332   7.736  25.264
11574W        W12438  15.047   7.757  25.028
11575W        W12439  15.432   8.733  24.027
11576W        W12440  15.881   8.591  21.851
11577W        W12441  14.702  10.142  24.727
11578W        W12442  16.072   8.905  24.077
11579W        W12443  15.910   7.920  22.105
11580W        W12444  15.420   8.992  23.265
11581W        W12445  14.854  10.863  24.510
11582W        W12446  17.469   9.190  22.656
11583W        W12447  17.824   7.921  25.223
11584W        W12448  17.291   9.876  23.240
11585W        W12449  14.735   8.862  25.338
11586W        W12450  17.844   7.530  22.459
11587W        W12451  17.497   9.702  22.788
11588W        W12452  16.378   8.908  22.867
11589W        W12453  17.371   7.764  22.043
11590W        W12454  17.280   8.459  24.537
11591W        W12455  14.977   8.847  23.550
11592W        W12456  15.353   9.724  23.400
11593W        W12457  17.095   8.407  23.087
11594W        W12458  16.077   8.009  23.826
11595W        W12459  18.009   9.728  24.328
11596W        W12460  17.993   7.838  24.205
11597W        W12461  14.622  10.656  23.635
11598W        W12462  15.025   9.803  22.996
11599W        W12463  15.143   7.570  25.484
11600W        W12464  16.075  10.244  25.516
11601W        W12465  17.970   9.216  23.528
11602W        W12466  17.249   9.472  22.297
11603W        W12467  16.749  10.976  24.352
11604W        W12468  17.612   9.647  25.484
11605W        W12469  16.299   7.389  22.755
11606W        W12470  16.872   8.207  23.486
11607W        W12471  14.692   9.778  24.004
11608W        W12472  15.897   7.697  22.585
11609W        W12473  15.707   9.285  25.256
11610W        W12474  16.680   8.168  22.923
11611W        W12475  16.916   9.780  24.360
11612W        W12476  15.129  10.397  24.612
11613W        W12477  15.561  10.221  25.406
11614W        W12478  15.457   7.932  22.382
11615W        W12479  17.085   8.400  22.565
11616W        W12480  16.963  10.341  24.964
11617W        W12481  15.759   8.920  23.660
11618W        W12482  15.374  10.778  24.364
11619W        W12483  17.939  10.777  21.936
11620W        W12484  14.828   9.325  25.133
11621W        W12485  16.725   9.658  23.893
11622W        W12486  15.430   9.441  22.974
11623W        W12487  15.820  10.498  24.431
11624W        W12488  16.220   7.658  23.472
11625W        W12489  14.487   9.828  22.605
11626W        W12490  16.364   8.556  22.044
11627W        W12491  14.991   9.338  23.265
11628W        W12492  16.078   7.801  24.834
11629W        W12493  17.870   7.622  21.950
11630W        W12494  17.963   9.319  25.270
11631W        W12495  16.727  10.700  25.264
11632W        W12496  18.124   9.624  24.861
11633W        W12497  17.700  10.505  25.443
11634W        W12498  15.385  11.025  23.900
11635W        W12499  18.250   9.520  23.246
11636W        W12500  16.801   8.705  23.672
11637W        W12501  16.485   7.262  23.258
11638W        W12502  15.618  10.404  23.218
11639W        W12503  15.966   8.015  24.344
11640W        W12504  15.779   7.595  23.761
11641W        W12505  14.816  10.471  22.360
11642W        W12506  16.508   9.618  23.404
11643W        W12507  15.564  10.461  24.882
11644W        W12508  14.764   9.417  22.780
11645W        W12509  14.725   7.939  23.810
11646W        W12510  16.180   9.809  23.741
11647W        W12511  14.629   7.638  22.684
11648W        W12512  17.076   8.926  24.609
11649W        W12513  17.303   8.266  22.107
11650W        W12514  17.681   9.888  23.979
11651W        W12515  16.412  10.258  23.795
11652W        W12516  15.784  10.636  22.747
11653W        W12517  17.040   7.494  21.755
11654W        W12518  14.985  10.701  24.009
11655W        W12519  16.662   8.377  25.404
11656W        W12520  14.943   8.065  25.440
11657W        W12521  14.713   8.471  23.031
11658W        W12522  16.108   8.701  22.477
11659W        W12523  17.028   8.717  25.416
11660W        W12524  15.653   9.210  24.090
11661W        W12525  17.019   7.389  23.205
11662W        W12526  16.304  10.772  23.598
11663W        W12527  17.401  10.317  24.638
11664W        W12528  17.179  10.423  23.681
11665W        W12529  16.998   9.513  23.497
11666W        W12530  16.371   7.703  22.329
11667W        W12531  18.031   7.435  23.264
11668W        W12532  15.675   9.034  21.613
11669W        W12533  17.895   8.205  23.200
11670W        W12534  16.696   9.421  22.107
11671W        W12535  17.611   9.690  24.958
11672W        W12536  17.601  10.469  22.184
11673W        W12537  15.871   8.068  25.244
11674W        W12538  15.753   8.712  24.433
11675W        W12539  17.872  10.092  24.779
11676W        W12540  16.878   7.912  24.981
11677W        W12541  14.561   8.586  24.895
11678W        W12542  16.548   9.060  24.588
11679W        W12543  14.862   9.783  23.506
11680W        W12544  14.961   8.929  24.061
11681W        W12545  17.233   9.425  24.603
11682W        W12546  17.260  10.740  25.128
11683W        W12547  16.906   8.431  24.935
11684W        W12548  17.496  10.583  23.294
11685W        W12549  16.357  10.379  24.426
11686W        W12550  15.647  10.587  23.945
11687W        W12551  17.518   9.842  24.462
11688W        W12552  16.409   9.836  25.565
11689W        W12553  15.192   9.816  23.891
11690W        W12554  17.494   9.444  23.590
11691W        W12555  17.166  10.728  24.120
11692W        W12556  15.277  10.301  24.139
11693W        W12557  16.211   8.434  25.173
11694W        W12558  16.377  10.454  22.759
11695W        W12559  15.870   9.785  25.464
11696W        W12560  15.983  10.168  22.932
11697W        W12561  15.343   8.560  21.627
11698W        W12562  14.722  10.945  28.847
11699W        W12563  15.090   9.847  28.499
11700W        W12564  17.684   9.231  26.324
11701W        W12565  17.998  10.577  28.271
11702W        W12566  15.741  10.614  25.690
11703W        W12567  15.859   8.813  26.576
11704W        W12568  15.337   8.631  26.872
11705W        W12569  16.285   9.226  26.277
11706W        W12570  16.102  10.625  28.427
11707W        W12571  14.778   8.123  28.472
11708W        W12572  15.241   7.399  28.213
11709W        W12573  17.228   7.751  27.310
11710W        W12574  16.700   8.503  25.918
11711W        W12575  17.334   7.955  28.807
11712W        W12576  14.851   7.774  28.085
11713W        W12577  14.915  10.455  28.946
11714W        W12578  16.100   9.603  25.946
11715W        W12579  14.829   8.513  27.507
11716W        W12580  15.654   8.658  28.756
11717W        W12581  17.974   8.371  27.318
11718W        W12582  17.929   9.336  28.014
11719W        W12583  16.233   8.707  27.166
11720W        W12584  16.877  10.200  27.637
11721W        W12585  15.233   9.433  27.830
11722W        W12586  14.505   8.963  27.427
11723W        W12587  15.757   9.036  28.400
11724W        W12588  18.000   8.707  28.759
11725W        W12589  15.477  10.143  27.194
11726W        W12590  16.701  10.090  28.184
11727W        W12591  16.001   8.381  27.503
11728W        W12592  16.104   9.324  27.206
11729W        W12593  16.816  10.259   0.069
11730W        W12594  16.209   9.431  28.920
11731W        W12595  16.311   9.233  28.440
11732W        W12596  14.652   8.392  28.916
11733W        W12597  17.359  10.051  28.796
11734W        W12598  15.072   7.585  26.712
11735W        W12599  15.603   9.837  27.731
11736W        W12600  18.096   9.739  27.103
11737W        W12601  17.375   8.071  27.696
11738W        W12602  17.628   8.152  25.625
11739W        W12603  18.410   8.837  27.927
11740W        W12604  16.129  10.645  27.655
11741W        W12605  18.126  10.007  26.118
11742W        W12606  15.116  10.980  26.260
11743W        W12607  15.472  10.835  26.602
11744W        W12608  15.436   7.666  27.835
11745W        W12609  17.999   8.646  28.195
11746W        W12610  17.078   8.988  26.842
11747W        W12611  17.139   8.775  25.930
11748W        W12612  16.457   9.926  27.742
11749W        W12613  16.235   8.163  27.071
11750W        W12614  17.043  10.469  28.053
11751W        W12615  17.582   9.095  26.804
11752W        W12616  16.805   7.782  26.491
11753W        W12617  15.231  10.488  26.330
11754W        W12618  14.763   7.976  26.733
11755W        W12619  17.182   8.690  27.267
11756W        W12620  14.965  10.198  27.255
11757W        W12621  16.167  10.520  25.945
11758W        W12622  17.525   8.629  25.523
11759W        W12623  14.757  10.294  27.832
11760W        W12624  15.513   9.895  28.220
11761W        W12625  15.997   9.313  26.700
11762W        W12626  15.959   7.652  27.874
11763W        W12627  18.177   7.489  27.389
11764W        W12628  15.241   9.346  25.476
11765W        W12629  15.048   8.166  25.936
11766W        W12630  15.125  10.187  26.748
11767W        W12631  15.972   9.834  26.818
11768W        W12632  17.531  10.473  28.520
11769W        W12633  16.540   8.222  26.316
11770W        W12634  17.810  10.949  27.016
11771W        W12635  17.567   8.694  28.473
11772W        W12636  18.243   9.952  26.655
11773W        W12637  16.822   9.392  28.288
11774W        W12638  14.548   9.134  26.537
11775W        W12639  15.736   9.441  28.028
11776W        W12640  16.782   8.707  26.501
11777W        W12641  16.711   9.247  26.581
11778W        W12642  15.238   8.544  27.828
11779W        W12643  15.074   8.520  28.650
11780W        W12644  14.975   7.401  27.161
11781W        W12645  16.866   7.906  27.644
11782W        W12646  16.399   7.854  28.833
11783W        W12647  16.859   7.984  25.999
11784W        W12648  18.097  10.344  28.728
11785W        W12649  16.916   7.520  28.696
11786W        W12650  17.862   9.891  28.835
11787W        W12651  17.550   8.132  28.350
11788W        W12652  17.184   7.941  26.817
11789W        W12653  17.595   9.007  28.965
11790W        W12654  15.255  10.591  27.065
11791W        W12655  16.073   8.242  26.111
11792W        W12656  15.502   7.643  28.663
11793W        W12657  17.552   8.229  26.563
11794W        W12658  17.893   8.605  26.375
11795W        W12659  15.725  10.762  28.842
11796W        W12660  15.632   7.358  26.154
11797W        W12661  18.012   7.905  27.108
11798W        W12662  18.139  10.324  25.679
11799W        W12663  14.818   9.362  27.294
11800W        W12664  16.881   7.914  25.486
11801W        W12665  18.183  10.260  27.492
11802W        W12666  18.116   7.471  27.887
11803W        W12667  16.644   8.490  28.718
11804W        W12668  16.321   9.720  26.420
11805W        W12669  17.087   9.217   0.145
11806W        W12670  16.877   7.418  27.481
11807W        W12671  15.318   8.330  27.323
11808W        W12672  14.904   9.443  28.226
11809W        W12673  16.824  10.612  27.266
11810W        W12674  17.837   8.245  27.909
11811W        W12675  16.626  10.629  28.307
11812W        W12676  17.862   9.353  25.834
11813W        W12677  16.347   8.905  26.707
11814W        W12678  18.222   7.444  28.382
11815W        W12679  16.406   9.492  28.010
11816W        W12680  16.545   8.349  27.430
11817W        W12681  17.409   8.724  26.468
11818W        W12682  17.485   8.407  26.066
11819W        W12683  17.804  10.167  26.508
11820W        W12684  17.155   9.734  27.444
11821W        W12685  17.152   9.122  26.327
11822W        W12686  16.610   9.133  27.107
11823W        W12687  17.615   8.992  27.327
11824W        W12688  15.069   8.065  27.700
11825W        W12689  17.699   9.186  28.470
11826W        W12690  18.033  10.680  27.773
11827W        W12691  15.969  10.291  27.118
11828W        W12692  17.125  10.796  28.456
11829W        W12693  17.040   8.092  28.110
11830W        W12694  16.292  10.944  28.053
11831W        W12695  17.907   7.836  26.569
11832W        W12696  17.623   8.936  27.999
11833W        W12697  14.752   8.332  27.995
11834W        W12698  17.531   8.142  27.161
11835W        W12699  18.022   8.249  28.521
11836W        W12700  16.763   9.997  27.164
11837W        W12701  16.060  10.588  26.681
11838W        W12702  15.276   7.702  25.968
11839W        W12703  16.365   7.429  27.523
11840W        W12704  15.269  10.798  25.813
11841W        W12705  15.768   9.167  26.212
11842W        W12706  16.424   9.744  28.473
11843W        W12707  16.308   7.864  26.621
11844W        W12708  17.605   7.620  26.962
11845W        W12709  17.347  11.025  27.249
11846W        W12710  16.642  10.656  27.771
11847W        W12711  16.061   9.589  27.649
11848W        W12712  17.867  10.203  27.873
11849W        W12713  15.462   7.775  26.454
11850W        W12714  15.994  10.133  27.610
11851W        W12715  15.445   7.982  25.578
11852W        W12716  16.328   8.631  27.818
11853W        W12717  17.233   7.574  27.825
11854W        W12718  14.676   9.354  27.789
11855W        W12719  16.104   9.035  25.836
11856W        W12720  15.624   7.499  25.644
11857W        W12721  16.154   8.389  26.622
11858W        W12722  17.245   7.695  28.348
11859W        W12723  15.924   9.567  28.480
11860W        W12724  16.717   9.401  28.800
11861W        W12725  17.198   9.285  28.632
11862W        W12726  16.559   7.427   0.072
11863W        W12727  15.786   7.965  27.294
11864W        W12728  15.300   8.055  26.885
11865W        W12729  14.934  10.722  26.683
11866W        W12730  16.431  10.262  28.652
11867W        W12731  15.374   9.520  26.130
11868W        W12732  17.106   9.198  27.322
11869W        W12733  17.195   8.902  27.743
11870W        W12734  16.380   9.168  27.605
11871W        W12735  16.923   9.694  25.656
11872W        W12736  16.637   7.819  27.183
11873W        W12737  18.202   8.175  26.278
11874W        W12738  14.838  10.618  28.454
11875W        W12739  15.030   9.875  27.973
11876W        W12740  14.611  10.992  26.352
11877W        W12741  16.551   8.170  27.924
11878W        W12742  15.834  10.049  25.934
11879W        W12743  17.957  10.546  26.121
11880W        W12744  16.707   9.000  26.083
11881W        W12745  15.624   8.354  26.518
11882W        W12746  16.422   8.074  25.746
11883W        W12747  16.975   9.795  28.555
11884W        W12748  17.293   7.860  26.304
11885W        W12749  14.754   7.523  25.854
11886W        W12750  16.030   9.885  28.082
11887W        W12751  15.741   9.709  27.250
11888W        W12752  15.400   9.819  25.703
11889W        W12753  14.758  10.318  26.385
11890W        W12754  15.276   9.000  28.655
11891W        W12755  16.015   7.485  28.780
11892W        W12756  16.670   7.738  28.219
11893W        W12757  15.913   7.456  26.667
11894W        W12758  16.975   7.496  26.077
11895W        W12759  14.947   7.555  27.642
11896W        W12760  14.876   8.396  26.998
11897W        W12761  17.712   7.705  27.490
11898W        W12762  15.104   8.269  26.452
11899W        W12763  17.677   7.753  28.010
11900W        W12764  17.970   8.895  25.603
11901W        W12765  15.315   7.796  27.359
11902W        W12766  16.375   8.194  28.411
11903W        W12767  14.537   8.036  25.778
11904W        W12768  15.392   9.426  28.408
11905W        W12769  16.739   8.832  27.516
11906W        W12770  16.575  10.875  25.907
11907W        W12771  14.730   9.317  25.647
11908W        W12772  15.553   9.815  28.729
11909W        W12773  15.016   8.922  28.198
11910W        W12774  16.080   9.060  28.005
11911W        W12775  17.586   7.324  28.281
11912W        W12776  18.224   9.085  28.352
11913W        W12777  18.128   8.979  26.086
11914W        W12778  16.872   9.515  26.158
11915W        W12779  17.511  10.978  25.491
11916W        W12780  16.728   8.767   0.151
11917W        W12781  15.146   9.756   0.039
11918W        W12782  18.249   7.813  28.741
11919W        W12783  17.560   8.542  27.572
11920W        W12784  16.225  10.683  28.930
11921W        W12785  16.074   7.418  25.862
11922W        W12786  18.140   9.753  25.643
11923W        W12787  15.452   8.180  28.656
11924W        W12788  15.832  10.197  28.487
11925W        W12789  18.136   7.900  28.180
11926W        W12790  17.629  10.989  25.990
11927W        W12791  17.476   9.364  27.654
11928W        W12792  15.672   7.905  28.244
11929W        W12793  16.089   8.933  28.799
11930W        W12794  15.460  10.025  26.336
11931W        W12795  17.338   9.515  26.613
11932W        W12796  15.218   8.148  28.189
11933W        W12797  16.375  10.155  26.820
11934W        W12798  18.154   8.754  27.018
11935W        W12799  16.454   7.371  28.545
11936W        W12800  17.370  10.148  27.748
11937W        W12801  17.698  10.475  27.433
11938W        W12802  16.355  10.054  26.024
11939W        W12803  14.725   9.963  28.830
11940W        W12804  15.585   8.154  27.755
11941W        W12805  15.532   7.590  26.970
11942W        W12806  16.977   8.423  27.712
11943W        W12807  15.693   9.382  25.750
11944W        W12808  17.973   9.480  27.528
11945W        W12809  15.339  10.288  28.687
11946W        W12810  17.795  11.035  26.486
11947W        W12811  15.833   7.968  26.776
11948W        W12812  15.336   9.314  27.130
11949W        W12813  15.785  10.893  27.943
11950W        W12814  17.856  10.797  28.735
11951W        W12815  16.896   9.320  27.775
11952W        W12816  15.076   8.929  25.755
11953W        W12817  18.031  10.612  26.666
11954W        W12818  17.751   7.983  26.090
11955W        W12819  15.796   7.388  28.324
11956W        W12820  17.963  10.221  27.021
11957W        W12821  17.632   8.610  26.962
11958W        W12822  15.788   8.439  27.024
11959W        W12823  16.274   8.708  28.354
11960W        W12824  17.318  10.088  28.258
11961W        W12825  15.877   8.369  28.399
11962W        W12826  15.737  10.750  27.045
11963W        W12827  15.235  10.809  28.703
11964W        W12828  15.397  10.302  25.896
11965W        W12829  17.847   9.568  26.689
11966W        W12830  15.432   8.619  28.299
11967W        W12831  17.965   8.458  25.882
11968W        W12832  15.807   9.658  26.366
11969W        W12833  16.717   8.955  28.556
11970W        W12834  16.761   8.534  28.206
11971W        W12835  15.482   8.998  27.939
11972W        W12836  17.631  10.980  27.687
11973W        W12837  17.430   7.420  28.769
11974W        W12838  14.997   7.669  28.568
11975W        W12839  15.432   8.826  27.423
11976W        W12840  15.764   8.376  25.651
11977W        W12841  14.705  10.137  28.325
11978W        W12842  15.941   8.898  27.535
11979W        W12843  15.936   7.901  25.746
11980W        W12844  15.377   8.803  26.373
11981W        W12845  14.825  10.823  27.989
11982W        W12846  17.626   8.888  25.970
11983W        W12847  17.785   7.722  28.549
11984W        W12848  17.546   9.940  26.916
11985W        W12849  14.813   8.916  28.895
11986W        W12850  18.060   7.589  26.095
11987W        W12851  17.677   9.732  26.205
11988W        W12852  16.300   8.702  26.218
11989W        W12853  17.294   7.804  25.785
11990W        W12854  17.363   8.490  28.041
11991W        W12855  14.976   8.886  27.150
11992W        W12856  15.452   9.773  26.815
11993W        W12857  17.153   8.456  26.814
11994W        W12858  16.260   7.929  27.542
11995W        W12859  18.163   9.794  27.960
11996W        W12860  18.181   7.953  27.640
11997W        W12861  14.670  10.613  27.120
11998W        W12862  15.050   9.702  26.486
11999W        W12863  15.131   7.527   0.046
12000W        W12864  16.266  10.242   0.190
12001W        W12865  17.995   9.237  27.069
12002W        W12866  17.357   9.392  25.931
12003W        W12867  17.200  10.981  27.983
12004W        W12868  17.491   9.541  28.973
12005W        W12869  16.222   7.254  26.321
12006W        W12870  17.003   8.206  27.238
12007W        W12871  14.744   9.816  27.535
12008W        W12872  15.939   7.767  26.254
12009W        W12873  15.694   9.297  28.856
12010W        W12874  16.697   8.182  26.804
12011W        W12875  17.045   9.776  27.957
12012W        W12876  15.186  10.316  28.192
12013W        W12877  15.728  10.274   0.037
12014W        W12878  15.564   8.124  26.066
12015W        W12879  17.057   8.316  26.331
12016W        W12880  16.967  10.313  28.564
12017W        W12881  15.744   8.984  27.045
12018W        W12882  15.320  10.714  27.892
12019W        W12883  18.056  10.856  25.688
12020W        W12884  14.911   9.403  28.732
12021W        W12885  16.640   9.560  27.402
12022W        W12886  15.460   9.282  26.614
12023W        W12887  15.707  10.326  27.983
12024W        W12888  16.148   7.655  27.084
12025W        W12889  14.652   9.521  26.153
12026W        W12890  16.231   8.550  25.701
12027W        W12891  14.955   9.272  26.796
12028W        W12892  16.163   7.745  28.339
12029W        W12893  17.777   7.662  25.658
12030W        W12894  18.086   9.210  28.823
12031W        W12895  16.730  10.694  28.814
12032W        W12896  18.036   9.591  28.454
12033W        W12897  17.691  10.368   0.032
12034W        W12898  15.387  10.958  27.428
12035W        W12899  18.356   9.455  26.749
12036W        W12900  16.721   8.640  27.025
12037W        W12901  16.465   7.388  26.778
12038W        W12902  15.616  10.333  26.725
12039W        W12903  16.054   8.148  27.977
12040W        W12904  15.844   7.444  27.426
12041W        W12905  14.823  10.642  25.988
12042W        W12906  16.441   9.572  26.892
12043W        W12907  15.576  10.643  28.359
12044W        W12908  15.024   9.176  26.292
12045W        W12909  14.845   7.918  27.231
12046W        W12910  16.245   9.862  27.255
12047W        W12911  14.867   7.803  26.271
12048W        W12912  17.132   8.898  28.267
12049W        W12913  17.131   8.305  25.712
12050W        W12914  17.719   9.934  27.426
12051W        W12915  16.426  10.320  27.397
12052W        W12916  15.737  10.537  26.235
12053W        W12917  17.010   7.405  25.560
12054W        W12918  14.980  10.650  27.517
12055W        W12919  17.025   8.337   0.020
12056W        W12920  15.046   8.043  28.944
12057W        W12921  14.897   8.746  26.593
12058W        W12922  15.790   8.666  26.076
12059W        W12923  17.137   8.810  28.812
12060W        W12924  15.639   9.304  27.539
12061W        W12925  16.962   7.483  26.953
12062W        W12926  16.247  10.751  27.165
12063W        W12927  17.543  10.567  28.001
12064W        W12928  17.251  10.224  27.255
12065W        W12929  16.958   9.531  26.971
12066W        W12930  16.439   7.702  26.116
12067W        W12931  18.180   7.473  26.872
12068W        W12932  15.626   8.886  25.615
12069W        W12933  18.011   8.305  26.784
12070W        W12934  16.530   9.381  25.808
12071W        W12935  17.517   9.673  28.478
12072W        W12936  17.717  10.058  25.786
12073W        W12937  15.905   7.975  28.732
12074W        W12938  15.809   8.604  27.942
12075W        W12939  17.826  10.075  28.358
12076W        W12940  16.840   8.019  28.619
12077W        W12941  14.631   8.614  28.409
12078W        W12942  16.608   8.995  28.045
12079W        W12943  14.946   9.756  26.993
12080W        W12944  15.005   8.986  27.666
12081W        W12945  17.317   9.353  28.129
12082W        W12946  17.229  10.565  28.932
12083W        W12947  17.149   8.403  28.516
12084W        W12948  17.555  10.503  26.918
12085W        W12949  16.274  10.340  28.031
12086W        W12950  15.653  10.528  27.504
12087W        W12951  17.624   9.754  27.968
12088W        W12952  16.535   9.848  28.965
12089W        W12953  15.231   9.739  27.409
12090W        W12954  17.539   9.487  27.151
12091W        W12955  17.223  10.632  27.593
12092W        W12956  15.266  10.229  27.677
12093W        W12957  16.140   8.417  28.848
12094W        W12958  16.445  10.469  26.371
12095W        W12959  16.045   9.911  28.852
12096W        W12960  16.012  10.145  26.412
12097W        W12961  15.267   8.477  25.552
12098W        W12962  14.731  14.614   3.289
12099W        W12963  15.025  13.457   2.827
12100W        W12964  17.682  13.252   0.709
12101W        W12965  18.158  14.258   2.575
12102W        W12966  15.939  14.268   0.236
12103W        W12967  15.770  12.426   1.090
12104W        W12968  15.362  12.303   1.421
12105W        W12969  16.363  13.101   0.705
12106W        W12970  16.213  14.224   3.069
12107W        W12971  14.670  11.747   2.876
12108W        W12972  15.260  10.761   2.865
12109W        W12973  17.113  11.368   1.571
12110W        W12974  16.796  12.217   0.452
12111W        W12975  17.544  11.590   3.471
12112W        W12976  14.752  11.365   2.545
12113W        W12977  14.882  14.145   3.452
12114W        W12978  16.295  13.352   0.251
12115W        W12979  14.700  12.214   2.020
12116W        W12980  15.892  12.124   3.028
12117W        W12981  17.964  11.817   1.844
12118W        W12982  17.843  13.021   2.429
12119W        W12983  16.309  12.531   1.453
12120W        W12984  16.832  13.735   1.934
12121W        W12985  15.270  13.060   2.083
12122W        W12986  14.503  12.687   1.941
12123W        W12987  15.803  12.590   2.806
12124W        W12988  17.950  12.386   3.026
12125W        W12989  15.554  13.759   1.654
12126W        W12990  16.677  13.598   2.679
12127W        W12991  16.194  12.240   1.870
12128W        W12992  16.112  13.016   1.495
12129W        W12993  16.980  13.835   3.451
12130W        W12994  16.302  12.955   3.453
12131W        W12995  16.259  12.863   2.892
12132W        W12996  14.592  12.017   3.310
12133W        W12997  17.399  13.546   3.194
12134W        W12998  15.128  11.219   1.125
12135W        W12999  15.557  13.496   2.133
12136W        W13000  17.890  13.375   1.483
12137W        W13001  17.535  11.517   1.806
12138W        W13002  17.776  11.649   0.051
12139W        W13003  18.157  12.339   2.362
12140W        W13004  16.224  14.156   2.116
12141W        W13005  17.806  13.732   0.542
12142W        W13006  15.320  14.484   0.622
12143W        W13007  15.633  14.298   1.085
12144W        W13008  15.264  11.201   2.585
12145W        W13009  17.772  12.103   2.604
12146W        W13010  17.273  12.654   1.282
12147W        W13011  17.266  12.355   0.285
12148W        W13012  16.427  13.623   2.209
12149W        W13013  16.519  12.055   1.466
12150W        W13014  16.865  13.988   2.408
12151W        W13015  17.742  12.845   1.031
12152W        W13016  16.553  11.418   0.920
12153W        W13017  15.148  13.980   0.715
12154W        W13018  14.771  11.567   1.226
12155W        W13019  17.526  12.027   1.659
12156W        W13020  15.010  13.882   1.615
12157W        W13021  16.186  14.102   0.660
12158W        W13022  17.529  12.080  28.879
12159W        W13023  14.782  13.958   2.239
12160W        W13024  15.485  13.591   2.637
12161W        W13025  15.668  12.898   1.280
12162W        W13026  15.839  11.391   1.890
12163W        W13027  18.167  10.974   1.689
12164W        W13028  15.246  12.867   0.068
12165W        W13029  15.149  11.963   0.372
12166W        W13030  14.840  13.893   1.121
12167W        W13031  16.007  13.520   1.459
12168W        W13032  17.680  14.255   2.837
12169W        W13033  16.452  11.894   0.662
12170W        W13034  17.867  14.352   1.538
12171W        W13035  17.368  12.169   2.905
12172W        W13036  17.928  13.602   1.021
12173W        W13037  16.803  13.075   2.736
12174W        W13038  14.771  12.623   1.155
12175W        W13039  15.649  13.099   2.461
12176W        W13040  16.893  12.397   0.960
12177W        W13041  16.651  12.823   1.103
12178W        W13042  15.017  12.183   2.424
12179W        W13043  15.026  12.125   2.939
12180W        W13044  15.050  11.078   1.619
12181W        W13045  16.667  11.466   1.932
12182W        W13046  16.533  11.539   3.314
12183W        W13047  16.926  11.625   0.591
12184W        W13048  18.093  14.113   3.111
12185W        W13049  16.918  11.084   3.050
12186W        W13050  17.917  13.431   3.241
12187W        W13051  17.380  11.569   2.976
12188W        W13052  17.045  11.459   1.073
12189W        W13053  17.492  12.618   3.154
12190W        W13054  15.370  14.258   1.550
12191W        W13055  15.976  12.050   0.778
12192W        W13056  15.403  11.185   3.101
12193W        W13057  17.666  12.000   0.920
12194W        W13058  18.027  12.431   0.839
12195W        W13059  15.762  14.349   3.309
12196W        W13060  15.713  11.013   0.698
12197W        W13061  17.938  11.396   1.520
12198W        W13062  18.192  13.745   0.206
12199W        W13063  14.844  13.021   1.721
12200W        W13064  16.888  11.484   0.100
12201W        W13065  18.099  13.904   1.696
12202W        W13066  17.951  11.130   2.439
12203W        W13067  16.624  12.545   3.027
12204W        W13068  16.365  13.609   0.750
12205W        W13069  17.163  12.792   3.559
12206W        W13070  16.741  11.033   1.668
12207W        W13071  15.089  11.998   1.773
12208W        W13072  15.134  13.036   2.561
12209W        W13073  16.756  14.124   1.426
12210W        W13074  17.600  11.805   2.225
12211W        W13075  16.693  14.279   2.821
12212W        W13076  17.907  13.267   0.255
12213W        W13077  16.132  12.788   1.030
12214W        W13078  18.167  11.046   2.882
12215W        W13079  16.345  13.224   2.531
12216W        W13080  16.680  11.983   1.942
12217W        W13081  17.438  12.477   0.814
12218W        W13082  17.730  12.225   0.446
12219W        W13083  17.609  14.013   0.933
12220W        W13084  17.306  13.519   1.627
12221W        W13085  17.018  12.699   0.574
12222W        W13086  16.617  12.902   1.610
12223W        W13087  17.572  12.547   1.694
12224W        W13088  14.910  11.729   2.184
12225W        W13089  17.638  12.615   2.667
12226W        W13090  18.087  14.288   2.053
12227W        W13091  15.952  14.022   1.484
12228W        W13092  17.185  14.399   2.670
12229W        W13093  16.738  11.698   2.392
12230W        W13094  16.268  14.489   2.544
12231W        W13095  17.866  11.490   1.013
12232W        W13096  17.534  12.720   2.161
12233W        W13097  14.513  11.954   2.419
12234W        W13098  17.465  11.667   1.296
12235W        W13099  17.817  11.886   3.087
12236W        W13100  16.788  13.597   1.441
12237W        W13101  16.156  14.324   1.128
12238W        W13102  15.208  11.465   0.458
12239W        W13103  16.363  11.067   2.069
12240W        W13104  15.431  14.253   0.126
12241W        W13105  15.447  12.739   0.532
12242W        W13106  16.414  13.326   3.037
12243W        W13107  16.263  11.770   1.126
12244W        W13108  17.516  11.148   1.243
12245W        W13109  17.065  14.509   1.630
12246W        W13110  16.722  14.230   1.943
12247W        W13111  16.040  13.217   2.101
12248W        W13112  17.857  13.912   2.347
12249W        W13113  15.572  11.429   0.990
12250W        W13114  15.974  13.723   1.951
12251W        W13115  15.564  11.766   0.055
12252W        W13116  16.340  12.046   2.320
12253W        W13117  17.086  11.163   2.049
12254W        W13118  14.743  13.083   2.226
12255W        W13119  16.253  12.821   0.260
12256W        W13120  15.638  11.267   0.248
12257W        W13121  16.375  12.280   1.015
12258W        W13122  17.074  11.283   2.581
12259W        W13123  15.933  13.270   2.852
12260W        W13124  16.766  12.977   3.269
12261W        W13125  17.214  13.044   3.048
12262W        W13126  16.500  11.111   3.642
12263W        W13127  15.598  11.929   1.686
12264W        W13128  15.239  11.685   1.391
12265W        W13129  15.115  14.333   1.101
12266W        W13130  16.567  13.851   3.119
12267W        W13131  15.262  13.251   0.423
12268W        W13132  17.111  12.784   1.764
12269W        W13133  17.134  12.274   1.910
12270W        W13134  16.587  13.014   2.131
12271W        W13135  17.056  13.331  28.992
12272W        W13136  16.639  11.529   1.417
12273W        W13137  18.196  11.925   0.894
12274W        W13138  14.891  14.329   2.884
12275W        W13139  15.059  13.509   2.302
12276W        W13140  14.713  14.432   0.751
12277W        W13141  16.239  11.529   2.273
12278W        W13142  15.940  13.664   0.468
12279W        W13143  17.919  14.236   0.580
12280W        W13144  16.512  12.612   0.647
12281W        W13145  15.597  11.935   1.115
12282W        W13146  16.532  11.869   0.155
12283W        W13147  16.897  13.453   3.112
12284W        W13148  17.424  11.566   0.758
12285W        W13149  14.698  11.122   0.333
12286W        W13150  15.979  13.591   2.462
12287W        W13151  15.677  13.196   1.728
12288W        W13152  15.715  13.340   0.120
12289W        W13153  14.641  13.914   0.635
12290W        W13154  15.318  12.597   2.979
12291W        W13155  15.899  11.178   3.217
12292W        W13156  16.552  11.284   2.642
12293W        W13157  15.976  11.131   1.161
12294W        W13158  16.769  11.068   0.622
12295W        W13159  14.972  11.200   2.125
12296W        W13160  14.881  12.089   1.289
12297W        W13161  17.714  11.050   1.923
12298W        W13162  15.148  11.769   0.881
12299W        W13163  17.497  11.316   2.307
12300W        W13164  18.027  12.586   0.219
12301W        W13165  15.320  11.531   1.900
12302W        W13166  16.400  11.773   2.766
12303W        W13167  14.735  11.644   0.321
12304W        W13168  15.448  13.152   2.946
12305W        W13169  16.650  12.505   1.958
12306W        W13170  16.591  14.371   0.403
12307W        W13171  14.779  13.066   0.184
12308W        W13172  15.615  13.620   3.133
12309W        W13173  14.905  12.602   2.689
12310W        W13174  16.081  12.790   2.417
12311W        W13175  17.565  11.085   2.784
12312W        W13176  18.168  12.728   2.686
12313W        W13177  18.076  12.902   0.620
12314W        W13178  16.838  13.258   0.849
12315W        W13179  17.645  14.470   0.218
12316W        W13180  16.595  12.405   3.577
12317W        W13181  15.179  13.422   3.320
12318W        W13182  18.312  11.334   3.300
12319W        W13183  17.756  12.249   2.067
12320W        W13184  16.216  14.388   3.565
12321W        W13185  16.110  11.107   0.376
12322W        W13186  17.458  13.549   0.229
12323W        W13187  15.594  11.617   2.885
12324W        W13188  16.082  13.740   2.969
12325W        W13189  17.792  11.577   2.656
12326W        W13190  17.433  14.538   0.720
12327W        W13191  17.371  13.196   2.037
12328W        W13192  15.648  11.477   2.366
12329W        W13193  16.161  12.505   3.242
12330W        W13194  15.514  13.592   0.747
12331W        W13195  17.275  12.987   0.908
12332W        W13196  15.157  11.715   2.629
12333W        W13197  16.366  13.839   1.208
12334W        W13198  18.072  12.293   1.613
12335W        W13199  16.380  11.081   3.083
12336W        W13200  17.295  13.728   2.103
12337W        W13201  17.633  14.089   1.914
12338W        W13202  16.771  13.534   0.413
12339W        W13203  14.724  13.680   3.231
12340W        W13204  15.412  11.927   2.221
12341W        W13205  15.505  11.264   1.489
12342W        W13206  17.123  11.714   2.043
12343W        W13207  15.869  13.068   0.526
12344W        W13208  17.866  13.104   1.922
12345W        W13209  15.161  13.905   3.053
12346W        W13210  17.839  14.494   1.027
12347W        W13211  15.878  11.591   1.404
12348W        W13212  15.344  12.791   1.658
12349W        W13213  15.776  14.697   2.385
12350W        W13214  17.788  14.536   3.256
12351W        W13215  17.020  12.712   2.257
12352W        W13216  14.943  12.606   0.414
12353W        W13217  18.076  14.057   1.186
12354W        W13218  17.863  11.727   0.546
12355W        W13219  15.742  10.913   2.765
12356W        W13220  17.654  13.852   1.435
12357W        W13221  17.727  12.376   1.250
12358W        W13222  16.004  12.100   1.409
12359W        W13223  16.253  12.326   2.737
12360W        W13224  17.204  13.495   2.721
12361W        W13225  15.930  11.865   2.592
12362W        W13226  15.849  14.517   1.503
12363W        W13227  15.268  14.420   3.215
12364W        W13228  15.309  13.756   0.272
12365W        W13229  17.472  13.397   1.161
12366W        W13230  15.489  12.143   2.697
12367W        W13231  18.254  12.177   0.451
12368W        W13232  15.950  13.302   0.988
12369W        W13233  17.085  12.597   2.762
12370W        W13234  16.837  12.223   2.369
12371W        W13235  15.405  12.602   2.451
12372W        W13236  17.651  14.394   2.349
12373W        W13237  17.400  11.130   3.266
12374W        W13238  14.910  11.147   2.983
12375W        W13239  15.405  12.370   1.960
12376W        W13240  15.803  12.152   0.289
12377W        W13241  14.731  13.855   2.744
12378W        W13242  16.199  12.752   1.917
12379W        W13243  16.040  11.625   0.212
12380W        W13244  15.286  12.621   1.018
12381W        W13245  14.896  14.476   2.396
12382W        W13246  17.570  12.811   0.428
12383W        W13247  17.846  11.376   3.120
12384W        W13248  17.181  13.839   1.196
12385W        W13249  14.812  12.510   3.214
12386W        W13250  17.780  11.217   0.582
12387W        W13251  17.298  13.621   0.722
12388W        W13252  15.945  12.549   0.607
12389W        W13253  17.378  11.331   0.273
12390W        W13254  17.206  11.815   2.560
12391W        W13255  14.928  12.498   1.646
12392W        W13256  15.511  13.401   1.281
12393W        W13257  17.263  12.149   1.223
12394W        W13258  16.251  11.733   1.753
12395W        W13259  18.094  13.455   2.325
12396W        W13260  18.135  11.365   2.032
12397W        W13261  14.737  14.291   1.447
12398W        W13262  15.058  13.459   0.937
12399W        W13263  15.029  11.243   3.481
12400W        W13264  15.955  13.901   3.461
12401W        W13265  17.969  12.817   1.487
12402W        W13266  17.196  13.184   0.458
12403W        W13267  16.759  14.534   2.371
12404W        W13268  17.569  13.074   3.411
12405W        W13269  16.236  10.863   0.789
12406W        W13270  17.009  11.873   1.559
12407W        W13271  14.693  13.530   1.900
12408W        W13272  16.047  11.479   0.744
12409W        W13273  15.844  12.922   3.203
12410W        W13274  16.789  11.901   1.057
12411W        W13275  16.941  13.365   2.306
12412W        W13276  15.193  14.032   2.557
12413W        W13277  15.429  13.997   3.477
12414W        W13278  15.619  11.742   0.574
12415W        W13279  17.186  12.039   0.732
12416W        W13280  17.072  13.944   2.951
12417W        W13281  15.807  12.527   1.621
12418W        W13282  15.375  14.396   2.228
12419W        W13283  18.133  14.261   0.108
12420W        W13284  14.963  12.992   3.045
12421W        W13285  16.915  13.253   1.815
12422W        W13286  15.469  13.105   0.873
12423W        W13287  15.696  14.004   2.375
12424W        W13288  16.244  11.252   1.599
12425W        W13289  14.646  13.367   0.613
12426W        W13290  16.293  12.297   0.301
12427W        W13291  15.114  13.048   1.271
12428W        W13292  16.033  11.344   2.718
12429W        W13293  17.856  11.157   0.080
12430W        W13294  17.942  12.897   3.113
12431W        W13295  16.692  14.340   3.336
12432W        W13296  18.188  13.251   2.798
12433W        W13297  17.620  14.005   3.297
12434W        W13298  15.499  14.684   1.838
12435W        W13299  18.157  13.146   1.092
12436W        W13300  16.851  12.434   1.478
12437W        W13301  16.484  11.004   1.220
12438W        W13302  15.357  13.873   1.181
12439W        W13303  15.898  11.870   2.088
12440W        W13304  15.835  10.919   1.638
12441W        W13305  14.963  14.270   0.321
12442W        W13306  16.436  13.295   1.204
12443W        W13307  15.627  14.079   2.888
12444W        W13308  14.987  12.971   0.765
12445W        W13309  14.820  11.533   1.729
12446W        W13310  16.410  13.357   1.756
12447W        W13311  14.800  11.374   0.759
12448W        W13312  17.342  12.291   2.388
12449W        W13313  17.390  11.839   0.320
12450W        W13314  17.757  13.595   1.929
12451W        W13315  16.398  13.865   1.715
12452W        W13316  15.639  14.069   0.597
12453W        W13317  17.019  10.969   0.176
12454W        W13318  14.976  14.336   1.897
12455W        W13319  16.867  11.952   3.439
12456W        W13320  15.107  11.616   3.130
12457W        W13321  14.958  12.262   0.802
12458W        W13322  15.475  12.237   0.693
12459W        W13323  17.044  12.397   3.248
12460W        W13324  15.705  12.784   2.057
12461W        W13325  16.992  10.977   1.211
12462W        W13326  16.327  14.359   1.619
12463W        W13327  17.384  13.953   2.539
12464W        W13328  17.187  14.015   1.681
12465W        W13329  17.021  13.129   1.334
12466W        W13330  16.476  11.445   0.420
12467W        W13331  18.123  11.052   1.165
12468W        W13332  15.778  12.685   0.121
12469W        W13333  17.944  11.885   1.339
12470W        W13334  16.714  13.034   0.328
12471W        W13335  17.650  13.224   2.861
12472W        W13336  17.386  14.077   0.455
12473W        W13337  16.059  11.657   3.131
12474W        W13338  15.846  12.327   2.329
12475W        W13339  17.742  13.738   2.849
12476W        W13340  16.864  11.601   2.923
12477W        W13341  14.544  12.259   2.840
12478W        W13342  16.578  12.658   2.513
12479W        W13343  14.808  13.453   1.395
12480W        W13344  14.982  12.633   2.152
12481W        W13345  17.312  13.025   2.531
12482W        W13346  17.281  14.386   3.196
12483W        W13347  16.837  12.104   2.866
12484W        W13348  17.413  14.319   1.302
12485W        W13349  16.338  13.975   2.593
12486W        W13350  15.734  14.200   1.908
12487W        W13351  17.597  13.469   2.413
12488W        W13352  16.568  13.427   3.515
12489W        W13353  15.194  13.410   1.730
12490W        W13354  17.501  13.041   1.541
12491W        W13355  17.199  14.274   2.138
12492W        W13356  15.276  13.923   2.052
12493W        W13357  16.413  12.063   3.187
12494W        W13358  16.625  14.208   0.926
12495W        W13359  16.033  13.388   3.379
12496W        W13360  15.887  13.831   1.006
12497W        W13361  15.353  12.384   0.183
12498W        W13362  14.489  14.633   7.041
12499W        W13363  15.053  13.571   6.581
12500W        W13364  17.658  12.938   4.346
12501W        W13365  18.017  14.267   6.333
12502W        W13366  15.763  14.259   3.814
12503W        W13367  15.944  12.492   4.738
12504W        W13368  15.532  12.308   5.263
12505W        W13369  16.498  13.090   4.315
12506W        W13370  16.087  14.229   6.374
12507W        W13371  14.716  11.723   6.593
12508W        W13372  15.385  10.956   6.445
12509W        W13373  17.222  11.360   5.324
12510W        W13374  16.785  12.031   3.962
12511W        W13375  17.327  11.809   6.876
12512W        W13376  14.814  11.410   6.193
12513W        W13377  14.656  14.182   7.203
12514W        W13378  16.209  13.273   3.884
12515W        W13379  14.802  12.182   5.692
12516W        W13380  15.804  12.270   6.832
12517W        W13381  18.007  11.835   5.341
12518W        W13382  17.838  13.026   6.131
12519W        W13383  16.441  12.246   5.285
12520W        W13384  16.872  13.762   5.627
12521W        W13385  15.288  13.085   5.859
12522W        W13386  14.586  12.669   5.565
12523W        W13387  15.791  12.665   6.486
12524W        W13388  17.931  12.415   6.805
12525W        W13389  15.464  13.919   5.314
12526W        W13390  16.621  13.596   6.320
12527W        W13391  16.020  12.201   5.614
12528W        W13392  16.232  13.022   5.367
12529W        W13393  16.727  13.919   7.071
12530W        W13394  16.284  12.995   7.139
12531W        W13395  16.262  12.856   6.642
12532W        W13396  14.620  12.021   6.992
12533W        W13397  17.366  13.689   6.777
12534W        W13398  14.953  11.152   4.746
12535W        W13399  15.611  13.527   5.869
12536W        W13400  18.012  13.307   5.236
12537W        W13401  17.553  11.686   5.626
12538W        W13402  18.034  11.689   3.559
12539W        W13403  18.286  12.380   6.047
12540W        W13404  16.175  14.319   5.764
12541W        W13405  18.170  13.532   4.415
12542W        W13406  15.056  14.522   4.287
12543W        W13407  15.375  14.409   4.729
12544W        W13408  15.337  11.331   6.057
12545W        W13409  17.849  12.283   6.312
12546W        W13410  17.200  12.721   5.041
12547W        W13411  17.139  12.315   3.737
12548W        W13412  16.466  13.522   5.838
12549W        W13413  16.362  11.749   5.076
12550W        W13414  16.912  13.950   6.087
12551W        W13415  17.674  12.802   4.841
12552W        W13416  16.828  11.249   4.573
12553W        W13417  15.213  14.035   4.418
12554W        W13418  14.615  11.554   4.825
12555W        W13419  17.143  12.292   5.296
12556W        W13420  14.955  13.912   5.403
12557W        W13421  16.203  14.221   4.090
12558W        W13422  17.451  12.097   3.406
12559W        W13423  14.777  13.934   5.909
12560W        W13424  15.526  13.552   6.357
12561W        W13425  16.118  13.009   4.713
12562W        W13426  15.827  11.443   5.893
12563W        W13427  18.122  11.181   5.364
12564W        W13428  15.366  12.923   3.402
12565W        W13429  14.960  11.738   3.617
12566W        W13430  15.143  13.926   4.912
12567W        W13431  16.007  13.525   4.893
12568W        W13432  17.536  14.213   6.660
12569W        W13433  16.469  11.815   4.328
12570W        W13434  17.896  14.459   5.237
12571W        W13435  17.460  12.273   6.657
12572W        W13436  18.142  13.683   4.905
12573W        W13437  16.821  13.125   6.351
12574W        W13438  14.283  12.808   4.621
12575W        W13439  15.724  13.083   6.152
12576W        W13440  16.764  12.224   4.447
12577W        W13441  16.788  12.840   4.711
12578W        W13442  15.082  12.208   6.133
12579W        W13443  15.111  12.150   6.754
12580W        W13444  14.957  11.134   5.242
12581W        W13445  16.791  11.474   5.589
12582W        W13446  16.466  11.506   6.833
12583W        W13447  16.769  11.546   3.797
12584W        W13448  18.006  14.123   6.867
12585W        W13449  16.917  11.124   6.782
12586W        W13450  17.835  13.597   6.986
12587W        W13451  17.339  11.830   6.365
12588W        W13452  17.220  11.506   4.817
12589W        W13453  17.590  12.635   7.152
12590W        W13454  15.180  14.348   5.198
12591W        W13455  16.047  11.797   4.042
12592W        W13456  15.542  11.267   6.868
12593W        W13457  17.472  11.755   4.411
12594W        W13458  17.668  12.251   4.461
12595W        W13459  15.537  14.361   6.972
12596W        W13460  15.530  11.036   4.119
12597W        W13461  17.716  11.457   5.179
12598W        W13462  18.044  13.835   3.559
12599W        W13463  14.936  13.040   5.421
12600W        W13464  17.052  11.474   3.388
12601W        W13465  18.114  13.852   5.404
12602W        W13466  18.026  11.179   6.176
12603W        W13467  16.656  12.510   6.784
12604W        W13468  16.496  13.578   4.640
12605W        W13469  17.107  12.775   7.037
12606W        W13470  16.681  10.993   5.403
12607W        W13471  15.187  11.956   5.419
12608W        W13472  14.988  13.112   6.338
12609W        W13473  16.781  14.215   5.174
12610W        W13474  17.985  12.059   5.800
12611W        W13475  16.641  14.327   6.361
12612W        W13476  17.647  12.593   3.635
12613W        W13477  16.370  12.650   4.963
12614W        W13478  18.017  11.119   6.694
12615W        W13479  16.307  13.197   6.270
12616W        W13480  16.561  11.927   5.688
12617W        W13481  17.208  12.146   4.223
12618W        W13482  17.614  12.152   3.914
12619W        W13483  17.845  13.928   4.540
12620W        W13484  17.199  13.444   5.419
12621W        W13485  17.209  12.545   4.564
12622W        W13486  16.710  12.763   5.297
12623W        W13487  17.628  12.672   5.353
12624W        W13488  15.076  11.741   5.871
12625W        W13489  17.577  12.784   6.648
12626W        W13490  18.103  14.297   5.726
12627W        W13491  15.967  13.968   5.259
12628W        W13492  17.140  14.410   6.242
12629W        W13493  16.909  11.686   6.087
12630W        W13494  16.325  14.643   6.126
12631W        W13495  17.722  11.379   4.659
12632W        W13496  17.797  12.558   5.876
12633W        W13497  14.648  11.917   6.116
12634W        W13498  17.355  11.843   5.180
12635W        W13499  17.837  11.915   6.727
12636W        W13500  16.777  13.657   5.129
12637W        W13501  16.067  14.335   4.770
12638W        W13502  15.156  11.341   3.954
12639W        W13503  16.235  11.111   5.705
12640W        W13504  15.237  14.405   3.769
12641W        W13505  15.984  12.907   4.234
12642W        W13506  16.347  13.410   6.745
12643W        W13507  16.360  11.413   4.674
12644W        W13508  17.498  11.057   4.973
12645W        W13509  17.376  14.476   5.349
12646W        W13510  16.692  14.359   5.837
12647W        W13511  16.050  13.235   5.793
12648W        W13512  17.859  13.917   5.988
12649W        W13513  15.325  11.391   4.455
12650W        W13514  16.026  13.807   5.733
12651W        W13515  15.595  11.560   3.403
12652W        W13516  16.405  12.276   6.024
12653W        W13517  17.172  11.191   5.828
12654W        W13518  14.762  13.012   5.904
12655W        W13519  16.353  12.752   3.926
12656W        W13520  15.518  11.093   3.605
12657W        W13521  16.365  12.161   4.759
12658W        W13522  17.187  11.316   6.367
12659W        W13523  15.892  13.240   6.603
12660W        W13524  16.711  13.033   6.847
12661W        W13525  17.210  13.170   6.710
12662W        W13526  16.536  11.153   7.200
12663W        W13527  15.679  11.829   5.540
12664W        W13528  15.109  11.591   5.017
12665W        W13529  14.830  14.284   4.719
12666W        W13530  16.435  13.941   6.641
12667W        W13531  15.684  13.303   4.081
12668W        W13532  17.128  12.929   5.506
12669W        W13533  17.308  12.491   5.720
12670W        W13534  16.551  12.999   5.872
12671W        W13535  17.109  13.309   3.545
12672W        W13536  16.750  11.391   5.073
12673W        W13537  17.986  11.712   4.392
12674W        W13538  14.701  14.285   6.682
12675W        W13539  15.088  13.529   6.042
12676W        W13540  14.381  14.219   4.339
12677W        W13541  16.442  11.492   5.964
12678W        W13542  15.947  13.766   3.998
12679W        W13543  18.081  13.960   4.079
12680W        W13544  16.808  12.545   4.053
12681W        W13545  16.024  11.791   4.633
12682W        W13546  16.392  11.902   3.673
12683W        W13547  16.850  13.526   6.769
12684W        W13548  17.310  11.258   4.369
12685W        W13549  14.685  11.096   3.885
12686W        W13550  16.031  13.604   6.194
12687W        W13551  15.787  13.492   5.392
12688W        W13552  15.611  13.534   3.636
12689W        W13553  14.729  13.848   4.462
12690W        W13554  15.388  12.584   6.885
12691W        W13555  16.060  11.148   7.030
12692W        W13556  16.669  11.271   6.359
12693W        W13557  15.970  11.099   4.800
12694W        W13558  16.852  11.112   4.069
12695W        W13559  14.953  11.204   5.751
12696W        W13560  14.767  11.994   5.107
12697W        W13561  17.659  11.161   5.604
12698W        W13562  14.799  11.441   4.314
12699W        W13563  17.577  11.405   6.058
12700W        W13564  17.948  12.184   3.502
12701W        W13565  15.337  11.440   5.505
12702W        W13566  16.477  11.872   6.381
12703W        W13567  14.512  11.587   3.861
12704W        W13568  15.428  13.030   6.595
12705W        W13569  16.792  12.401   5.660
12706W        W13570  16.591  14.599   3.953
12707W        W13571  14.630  12.972   3.429
12708W        W13572  15.498  13.519   6.852
12709W        W13573  15.070  12.607   6.476
12710W        W13574  16.143  12.746   6.117
12711W        W13575  17.514  10.959   6.555
12712W        W13576  18.124  12.719   6.420
12713W        W13577  17.911  12.551   4.090
12714W        W13578  17.023  12.954   4.256
12715W        W13579  17.492  14.515   3.687
12716W        W13580  16.725  12.458   7.280
12717W        W13581  15.036  13.446   7.096
12718W        W13582  18.192  11.501   7.052
12719W        W13583  17.630  12.176   5.459
12720W        W13584  16.056  14.262   6.893
12721W        W13585  16.005  11.067   3.910
12722W        W13586  17.622  13.510   3.669
12723W        W13587  15.512  11.824   6.776
12724W        W13588  15.953  13.752   6.669
12725W        W13589  17.860  11.784   6.222
12726W        W13590  17.742  14.347   4.173
12727W        W13591  17.479  13.161   5.764
12728W        W13592  15.660  11.481   6.414
12729W        W13593  16.217  12.494   7.028
12730W        W13594  15.619  13.682   4.435
12731W        W13595  17.291  13.089   4.671
12732W        W13596  15.183  11.747   6.388
12733W        W13597  16.374  13.951   4.974
12734W        W13598  18.016  12.298   5.112
12735W        W13599  16.416  10.992   6.712
12736W        W13600  17.366  13.740   5.781
12737W        W13601  17.665  14.085   5.532
12738W        W13602  16.448  13.931   3.624
12739W        W13603  14.693  13.773   6.906
12740W        W13604  15.567  11.864   6.062
12741W        W13605  15.454  11.215   5.040
12742W        W13606  17.101  11.940   5.669
12743W        W13607  15.847  12.944   3.714
12744W        W13608  17.935  12.989   5.616
12745W        W13609  15.185  13.941   6.962
12746W        W13610  17.812  14.529   4.662
12747W        W13611  15.860  11.560   5.091
12748W        W13612  15.412  12.800   5.422
12749W        W13613  15.821  14.556   6.036
12750W        W13614  17.812  14.600   6.899
12751W        W13615  16.996  12.779   5.990
12752W        W13616  14.316  12.195   3.725
12753W        W13617  18.142  14.192   4.867
12754W        W13618  17.703  11.641   3.958
12755W        W13619  15.889  11.030   6.555
12756W        W13620  17.654  13.664   5.222
12757W        W13621  17.531  12.326   4.962
12758W        W13622  15.972  12.079   5.108
12759W        W13623  16.218  12.361   6.499
12760W        W13624  17.137  13.544   6.336
12761W        W13625  15.927  11.928   6.464
12762W        W13626  15.698  14.399   5.158
12763W        W13627  15.046  14.444   7.026
12764W        W13628  15.441  13.897   3.984
12765W        W13629  17.740  13.369   4.745
12766W        W13630  15.491  12.232   6.433
12767W        W13631  18.106  11.999   3.974
12768W        W13632  16.081  13.403   4.381
12769W        W13633  17.064  12.693   6.534
12770W        W13634  17.004  12.239   6.096
12771W        W13635  15.438  12.650   6.123
12772W        W13636  17.631  14.408   5.950
12773W        W13637  17.385  11.269   6.978
12774W        W13638  15.049  11.301   6.693
12775W        W13639  15.461  12.272   5.765
12776W        W13640  15.902  11.966   3.521
12777W        W13641  14.629  13.859   6.401
12778W        W13642  16.320  12.609   5.642
12779W        W13643  16.102  11.471   3.613
12780W        W13644  15.778  13.064   5.107
12781W        W13645  14.779  14.448   6.185
12782W        W13646  17.379  12.606   4.078
12783W        W13647  17.652  11.464   6.580
12784W        W13648  17.267  13.571   4.909
12785W        W13649  14.821  12.527   6.947
12786W        W13650  17.743  11.151   4.095
12787W        W13651  17.722  13.433   4.184
12788W        W13652  16.395  12.605   4.448
12789W        W13653  17.303  11.307   3.849
12790W        W13654  17.505  12.090   5.965
12791W        W13655  15.000  12.454   5.294
12792W        W13656  15.488  13.535   4.979
12793W        W13657  17.182  12.042   4.733
12794W        W13658  16.158  11.631   5.535
12795W        W13659  18.118  13.479   6.165
12796W        W13660  18.014  11.526   5.770
12797W        W13661  14.669  14.331   5.248
12798W        W13662  15.135  13.516   4.603
12799W        W13663  15.128  11.269   7.230
12800W        W13664  16.226  13.804   7.103
12801W        W13665  18.097  12.802   5.135
12802W        W13666  17.393  13.096   3.917
12803W        W13667  16.779  14.864   6.010
12804W        W13668  17.570  13.146   7.078
12805W        W13669  16.348  10.967   4.376
12806W        W13670  16.834  11.887   5.230
12807W        W13671  14.747  13.485   5.636
12808W        W13672  15.922  11.333   4.347
12809W        W13673  15.835  12.853   6.948
12810W        W13674  16.755  11.773   4.735
12811W        W13675  16.992  13.319   5.894
12812W        W13676  15.123  13.999   6.291
12813W        W13677  15.725  13.911   7.097
12814W        W13678  15.665  11.484   3.911
12815W        W13679  16.979  11.659   4.273
12816W        W13680  16.976  13.993   6.582
12817W        W13681  15.961  12.589   5.263
12818W        W13682  15.327  14.418   6.043
12819W        W13683  17.995  14.334   3.695
12820W        W13684  14.969  13.003   6.842
12821W        W13685  16.705  13.263   5.466
12822W        W13686  15.648  13.201   4.613
12823W        W13687  15.699  14.006   6.111
12824W        W13688  16.265  11.255   5.204
12825W        W13689  14.269  13.375   3.720
12826W        W13690  16.347  12.251   4.077
12827W        W13691  15.259  13.082   5.004
12828W        W13692  16.172  11.439   6.399
12829W        W13693  17.906  11.204   3.611
12830W        W13694  18.016  12.926   6.900
12831W        W13695  16.591  14.393   6.870
12832W        W13696  18.206  13.391   6.699
12833W        W13697  17.583  14.025   7.156
12834W        W13698  15.401  14.630   5.572
12835W        W13699  18.207  13.155   4.784
12836W        W13700  16.811  12.369   4.931
12837W        W13701  16.499  10.946   4.879
12838W        W13702  15.672  13.993   4.834
12839W        W13703  16.099  11.863   5.994
12840W        W13704  15.802  11.176   5.442
12841W        W13705  14.759  14.172   3.980
12842W        W13706  16.494  13.203   4.982
12843W        W13707  15.536  14.028   6.594
12844W        W13708  14.287  13.295   4.342
12845W        W13709  14.817  11.587   5.439
12846W        W13710  16.293  13.543   5.333
12847W        W13711  14.538  11.019   4.427
12848W        W13712  17.420  12.545   6.214
12849W        W13713  17.225  11.811   3.813
12850W        W13714  17.829  13.512   5.681
12851W        W13715  16.451  13.994   5.502
12852W        W13716  15.719  14.190   4.346
12853W        W13717  17.009  10.988   3.584
12854W        W13718  14.951  14.358   5.681
12855W        W13719  16.749  11.986   7.038
12856W        W13720  15.063  11.732   7.025
12857W        W13721  14.331  12.277   4.650
12858W        W13722  16.018  12.429   3.723
12859W        W13723  17.168  12.272   7.077
12860W        W13724  15.800  12.710   5.745
12861W        W13725  17.006  10.952   4.986
12862W        W13726  16.253  14.407   5.257
12863W        W13727  17.409  13.978   6.229
12864W        W13728  17.219  13.952   5.291
12865W        W13729  16.985  13.170   5.060
12866W        W13730  16.376  11.384   4.077
12867W        W13731  18.014  11.025   4.891
12868W        W13732  15.657  12.464   3.347
12869W        W13733  17.755  11.869   4.853
12870W        W13734  16.757  13.022   3.799
12871W        W13735  17.711  13.275   6.590
12872W        W13736  17.610  14.004   3.815
12873W        W13737  15.952  11.596   6.857
12874W        W13738  15.868  12.314   6.098
12875W        W13739  17.809  13.790   6.505
12876W        W13740  16.902  11.655   6.618
12877W        W13741  14.683  12.248   6.519
12878W        W13742  16.608  12.659   6.296
12879W        W13743  14.945  13.483   5.114
12880W        W13744  15.068  12.619   5.776
12881W        W13745  17.336  13.058   6.243
12882W        W13746  17.126  14.242   6.995
12883W        W13747  16.968  12.156   6.596
12884W        W13748  17.614  14.123   4.981
12885W        W13749  16.398  13.976   6.062
12886W        W13750  15.695  14.222   5.647
12887W        W13751  17.604  13.490   6.145
12888W        W13752  16.571  13.416   7.205
12889W        W13753  15.261  13.472   5.505
12890W        W13754  17.518  13.146   5.179
12891W        W13755  17.183  14.216   5.744
12892W        W13756  15.286  13.943   5.798
12893W        W13757  16.271  11.999   6.863
12894W        W13758  16.523  14.173   4.532
12895W        W13759  15.924  13.379   7.110
12896W        W13760  16.092  13.889   4.519
12897W        W13761  15.436  12.010   3.217
12898W        W13762  14.608  14.604  10.820
12899W        W13763  15.049  13.548  10.285
12900W        W13764  17.604  13.087   7.872
12901W        W13765  17.949  14.181   9.936
12902W        W13766  15.377  14.141   7.402
12903W        W13767  15.986  12.276   8.210
12904W        W13768  15.527  12.115   8.843
12905W        W13769  16.288  12.751   8.038
12906W        W13770  16.143  14.241  10.416
12907W        W13771  14.632  11.659  10.283
12908W        W13772  15.317  10.878  10.190
12909W        W13773  17.209  11.340   9.049
12910W        W13774  16.811  12.038   7.573
12911W        W13775  17.356  11.674  10.615
12912W        W13776  14.819  11.363   9.890
12913W        W13777  14.769  14.129  10.884
12914W        W13778  15.901  13.451   7.632
12915W        W13779  14.816  12.148   9.406
12916W        W13780  15.871  12.182  10.547
12917W        W13781  18.044  11.891   9.055
12918W        W13782  17.795  13.068   9.883
12919W        W13783  16.388  12.247   8.944
12920W        W13784  16.835  13.801   9.286
12921W        W13785  15.241  13.078   9.588
12922W        W13786  14.559  12.577   9.271
12923W        W13787  15.755  12.754  10.161
12924W        W13788  17.901  12.423  10.389
12925W        W13789  15.441  13.850   9.014
12926W        W13790  16.663  13.565  10.032
12927W        W13791  15.967  12.077   9.186
12928W        W13792  15.881  12.943   8.861
12929W        W13793  16.952  13.855  10.777
12930W        W13794  16.357  13.015  10.808
12931W        W13795  16.251  12.845  10.236
12932W        W13796  14.327  11.956  10.623
12933W        W13797  17.348  13.573  10.545
12934W        W13798  15.109  11.238   8.407
12935W        W13799  15.536  13.508   9.531
12936W        W13800  18.025  13.236   9.249
12937W        W13801  17.704  11.502   9.201
12938W        W13802  17.707  11.636   7.183
12939W        W13803  18.263  12.351   9.859
12940W        W13804  16.049  14.241   9.638
12941W        W13805  18.181  13.842   7.888
12942W        W13806  14.843  14.495   8.025
12943W        W13807  15.311  14.282   8.411
12944W        W13808  15.354  11.298   9.878
12945W        W13809  17.822  12.061  10.018
12946W        W13810  17.196  12.572   8.515
12947W        W13811  17.186  12.390   7.580
12948W        W13812  16.550  13.449   9.542
12949W        W13813  16.518  11.763   8.775
12950W        W13814  16.825  13.978   9.806
12951W        W13815  17.609  12.721   8.255
12952W        W13816  16.892  11.347   8.148
12953W        W13817  14.989  14.012   8.100
12954W        W13818  14.781  11.627   8.385
12955W        W13819  17.196  12.301   8.962
12956W        W13820  14.910  13.886   9.098
12957W        W13821  15.828  13.954   7.605
12958W        W13822  17.657  12.137   7.162
12959W        W13823  14.761  13.925   9.604
12960W        W13824  15.489  13.584  10.024
12961W        W13825  15.866  12.745   8.381
12962W        W13826  15.653  11.448   9.470
12963W        W13827  18.027  11.091   9.179
12964W        W13828  15.424  13.089   7.132
12965W        W13829  15.105  11.748   7.549
12966W        W13830  15.069  13.863   8.613
12967W        W13831  15.820  13.356   8.558
12968W        W13832  17.552  14.036  10.257
12969W        W13833  16.655  11.757   7.960
12970W        W13834  17.964  14.434   8.820
12971W        W13835  17.437  12.193  10.381
12972W        W13836  18.426  13.690   8.731
12973W        W13837  16.802  13.087   9.984
12974W        W13838  14.680  12.687   8.390
12975W        W13839  15.728  13.144   9.815
12976W        W13840  16.869  12.229   8.103
12977W        W13841  16.755  12.710   8.289
12978W        W13842  15.213  12.183   9.772
12979W        W13843  15.168  12.167  10.309
12980W        W13844  15.070  11.036   8.888
12981W        W13845  16.719  11.456   9.161
12982W        W13846  16.447  11.544  10.623
12983W        W13847  16.942  11.502   7.619
12984W        W13848  18.012  14.125  10.475
12985W        W13849  16.805  11.140  10.531
12986W        W13850  17.858  13.638  10.499
12987W        W13851  17.398  11.738  10.116
12988W        W13852  17.358  11.545   8.560
12989W        W13853  17.531  12.628  10.681
12990W        W13854  15.171  14.287   8.917
12991W        W13855  16.214  11.771   7.747
12992W        W13856  15.490  11.248  10.523
12993W        W13857  17.628  11.833   8.167
12994W        W13858  17.895  12.304   8.138
12995W        W13859  15.635  14.383  10.639
12996W        W13860  15.665  10.970   7.860
12997W        W13861  17.866  11.513   8.714
12998W        W13862  18.060  13.841   7.372
12999W        W13863  14.872  13.008   9.195
13000W        W13864  16.950  11.520   7.111
13001W        W13865  18.206  13.735   9.200
13002W        W13866  17.978  11.089   9.694
13003W        W13867  16.610  12.434  10.250
13004W        W13868  16.281  13.413   8.044
13005W        W13869  16.830  12.862  10.964
13006W        W13870  16.772  10.976   8.962
13007W        W13871  15.492  11.969   9.357
13008W        W13872  14.919  13.137  10.016
13009W        W13873  16.597  14.167   8.951
13010W        W13874  17.956  12.040   9.532
13011W        W13875  16.702  14.293  10.235
13012W        W13876  17.896  12.957   7.446
13013W        W13877  16.337  12.510   8.499
13014W        W13878  18.120  11.075  10.233
13015W        W13879  16.263  13.202   9.881
13016W        W13880  16.641  11.951   9.294
13017W        W13881  17.377  12.299   8.070
13018W        W13882  17.616  12.065   7.688
13019W        W13883  17.844  14.040   8.236
13020W        W13884  17.189  13.553   8.915
13021W        W13885  17.182  12.758   7.971
13022W        W13886  16.402  12.813   8.914
13023W        W13887  17.449  12.736   8.959
13024W        W13888  15.123  11.690   9.573
13025W        W13889  17.534  12.664  10.131
13026W        W13890  18.160  14.214   9.401
13027W        W13891  15.943  13.799   8.874
13028W        W13892  17.178  14.322  10.003
13029W        W13893  16.977  11.731   9.786
13030W        W13894  16.290  14.526   9.988
13031W        W13895  17.948  11.429   8.209
13032W        W13896  17.796  12.508   9.717
13033W        W13897  14.716  11.894   9.834
13034W        W13898  17.546  11.907   8.924
13035W        W13899  17.822  11.868  10.488
13036W        W13900  16.653  13.657   8.824
13037W        W13901  16.019  14.093   8.461
13038W        W13902  15.339  11.330   7.701
13039W        W13903  16.416  11.070   9.370
13040W        W13904  14.959  14.413   7.527
13041W        W13905  15.822  12.636   7.846
13042W        W13906  16.386  13.327  10.389
13043W        W13907  16.409  11.467   8.327
13044W        W13908  17.610  11.097   8.849
13045W        W13909  16.521  14.190   9.459
13046W        W13910  16.046  13.382   9.434
13047W        W13911  17.819  13.850   9.559
13048W        W13912  15.611  11.363   8.227
13049W        W13913  15.844  13.858   9.367
13050W        W13914  15.520  11.608   7.260
13051W        W13915  16.317  12.239   9.599
13052W        W13916  16.954  11.078   9.449
13053W        W13917  14.660  12.898   9.660
13054W        W13918  16.252  12.618   7.529
13055W        W13919  15.643  11.113   7.349
13056W        W13920  16.423  12.017   8.341
13057W        W13921  17.235  11.260  10.290
13058W        W13922  15.897  13.256  10.265
13059W        W13923  16.705  12.896  10.460
13060W        W13924  17.185  12.980  10.321
13061W        W13925  16.434  11.165  10.959
13062W        W13926  15.724  11.663   9.004
13063W        W13927  15.282  11.678   8.633
13064W        W13928  14.799  14.307   8.518
13065W        W13929  16.548  13.838  10.452
13066W        W13930  15.440  13.284   7.821
13067W        W13931  16.934  12.756   8.979
13068W        W13932  17.236  12.562   9.433
13069W        W13933  16.362  12.981   9.403
13070W        W13934  17.083  13.302   7.184
13071W        W13935  16.850  11.380   8.665
13072W        W13936  18.157  11.856   8.012
13073W        W13937  14.769  14.319  10.389
13074W        W13938  15.051  13.536   9.732
13075W        W13939  14.165  14.328   7.888
13076W        W13940  16.510  11.529   9.628
13077W        W13941  15.361  13.815   7.801
13078W        W13942  18.086  14.353   7.865
13079W        W13943  16.730  12.608   7.768
13080W        W13944  15.976  11.761   8.199
13081W        W13945  16.507  11.646   7.347
13082W        W13946  16.881  13.391  10.482
13083W        W13947  17.416  11.357   8.053
13084W        W13948  14.765  11.072   7.558
13085W        W13949  15.969  13.649   9.856
13086W        W13950  15.697  13.389   9.064
13087W        W13951  15.464  13.570   7.367
13088W        W13952  14.468  14.054   8.217
13089W        W13953  15.482  12.554  10.536
13090W        W13954  15.956  11.070  10.756
13091W        W13955  16.796  11.200   9.979
13092W        W13956  16.020  11.037   8.364
13093W        W13957  17.068  11.029   7.796
13094W        W13958  15.028  11.185   9.457
13095W        W13959  15.083  11.936   9.045
13096W        W13960  17.528  11.059   9.386
13097W        W13961  15.251  11.697   8.095
13098W        W13962  17.299  11.307   9.783
13099W        W13963  18.060  12.457   7.300
13100W        W13964  15.273  11.474   9.124
13101W        W13965  16.518  11.957   9.976
13102W        W13966  14.605  11.607   7.505
13103W        W13967  15.386  13.113  10.211
13104W        W13968  16.625  12.521   9.305
13105W        W13969  16.317  14.487   7.317
13106W        W13970  14.685  12.907   7.309
13107W        W13971  15.545  13.522  10.523
13108W        W13972  15.163  12.649  10.081
13109W        W13973  16.041  12.731   9.741
13110W        W13974  17.633  11.013  10.069
13111W        W13975  18.157  12.791  10.109
13112W        W13976  18.033  12.805   7.966
13113W        W13977  16.749  12.956   7.380
13114W        W13978  17.451  14.552   7.252
13115W        W13979  16.664  12.346  10.894
13116W        W13980  15.126  13.538  10.817
13117W        W13981  18.132  11.298  10.723
13118W        W13982  17.674  12.339   9.205
13119W        W13983  16.107  14.472  10.883
13120W        W13984  16.109  10.990   7.539
13121W        W13985  17.709  13.461   7.495
13122W        W13986  15.546  11.793  10.382
13123W        W13987  16.039  13.741  10.359
13124W        W13988  17.881  11.526   9.959
13125W        W13989  17.630  14.574   7.743
13126W        W13990  17.258  13.136   9.217
13127W        W13991  15.893  11.387   9.928
13128W        W13992  16.261  12.525  10.634
13129W        W13993  15.248  13.556   8.230
13130W        W13994  17.819  13.175   8.348
13131W        W13995  15.126  11.713  10.090
13132W        W13996  16.246  13.629   8.499
13133W        W13997  18.178  12.338   8.830
13134W        W13998  16.324  11.065  10.418
13135W        W13999  17.340  13.793   9.336
13136W        W14000  17.677  14.136   9.148
13137W        W14001  16.350  13.680   7.587
13138W        W14002  14.680  13.699  10.617
13139W        W14003  15.572  11.804   9.847
13140W        W14004  15.531  11.232   8.747
13141W        W14005  17.184  12.001   9.371
13142W        W14006  15.846  12.978   7.454
13143W        W14007  17.674  12.884   9.400
13144W        W14008  15.143  13.991  10.536
13145W        W14009  17.907  14.557   8.316
13146W        W14010  15.969  11.464   8.616
13147W        W14011  15.365  12.978   9.071
13148W        W14012  15.770  14.667   9.642
13149W        W14013  17.678  14.477  10.625
13150W        W14014  16.871  12.931   9.499
13151W        W14015  14.936  12.196   7.340
13152W        W14016  18.287  14.217   8.422
13153W        W14017  17.800  11.585   7.730
13154W        W14018  15.841  10.976  10.237
13155W        W14019  17.991  13.933   8.755
13156W        W14020  17.678  12.393   8.664
13157W        W14021  16.035  11.962   8.682
13158W        W14022  16.130  12.362  10.091
13159W        W14023  17.230  13.422  10.069
13160W        W14024  16.007  11.873  10.129
13161W        W14025  15.681  14.288   8.799
13162W        W14026  15.133  14.487  10.743
13163W        W14027  14.957  13.839   7.444
13164W        W14028  18.107  13.598   8.346
13165W        W14029  15.616  12.262  10.105
13166W        W14030  18.058  11.952   7.445
13167W        W14031  15.888  13.105   8.023
13168W        W14032  17.031  12.610   9.986
13169W        W14033  16.844  12.246   9.681
13170W        W14034  15.520  12.660   9.713
13171W        W14035  17.564  14.332   9.637
13172W        W14036  17.360  11.193  10.783
13173W        W14037  14.992  11.261  10.376
13174W        W14038  15.565  12.489   9.211
13175W        W14039  15.897  11.952   7.227
13176W        W14040  14.649  13.862  10.120
13177W        W14041  16.096  12.565   9.260
13178W        W14042  16.011  11.478   7.399
13179W        W14043  15.455  12.641   8.698
13180W        W14044  14.800  14.400   9.879
13181W        W14045  17.646  12.581   7.710
13182W        W14046  17.725  11.375  10.429
13183W        W14047  17.621  13.627   8.560
13184W        W14048  14.960  12.563  10.558
13185W        W14049  17.806  11.074   7.844
13186W        W14050  17.691  13.592   8.025
13187W        W14051  16.395  12.241   7.881
13188W        W14052  17.410  11.339   7.506
13189W        W14053  17.547  11.748   9.629
13190W        W14054  15.005  12.506   8.962
13191W        W14055  15.326  13.405   8.715
13192W        W14056  17.302  12.066   8.509
13193W        W14057  16.222  11.617   9.167
13194W        W14058  18.119  13.446   9.712
13195W        W14059  18.148  11.554   9.465
13196W        W14060  14.609  14.318   8.989
13197W        W14061  14.732  13.612   8.303
13198W        W14062  15.052  11.294  10.905
13199W        W14063  16.209  13.925  10.823
13200W        W14064  17.969  12.785   8.982
13201W        W14065  17.304  12.916   7.485
13202W        W14066  16.766  14.523   9.760
13203W        W14067  16.327  10.864   8.000
13204W        W14068  17.021  11.817   8.903
13205W        W14069  14.667  13.476   9.295
13206W        W14070  16.035  11.322   7.932
13207W        W14071  15.882  12.906  10.640
13208W        W14072  16.895  11.799   8.397
13209W        W14073  17.055  13.436   9.593
13210W        W14074  15.138  13.996   9.997
13211W        W14075  15.705  13.903  10.825
13212W        W14076  15.692  11.691   7.758
13213W        W14077  17.174  11.835   7.930
13214W        W14078  17.036  13.872  10.261
13215W        W14079  15.924  12.441   8.798
13216W        W14080  15.304  14.452   9.730
13217W        W14081  17.940  14.344   7.358
13218W        W14082  14.879  13.116  10.546
13219W        W14083  16.746  13.239   9.107
13220W        W14084  15.449  13.072   8.334
13221W        W14085  15.622  14.044   9.805
13222W        W14086  16.369  11.245   8.824
13223W        W14087  14.596  13.417   7.838
13224W        W14088  16.343  12.130   7.376
13225W        W14089  15.029  12.964   8.675
13226W        W14090  16.373  11.485  10.120
13227W        W14091  17.903  11.211   7.370
13228W        W14092  17.993  12.902  10.595
13229W        W14093  16.592  14.290  10.751
13230W        W14094  18.147  13.307  10.224
13231W        W14095  17.566  13.972  10.771
13232W        W14096  15.338  14.732   9.278
13233W        W14097  18.177  13.226   8.753
13234W        W14098  16.797  12.254   8.630
13235W        W14099  16.601  10.978   8.445
13236W        W14100  15.574  13.833   8.521
13237W        W14101  16.048  11.786   9.621
13238W        W14102  15.942  11.182   9.104
13239W        W14103  14.600  14.113   7.726
13240W        W14104  16.254  13.073   8.469
13241W        W14105  15.600  14.001  10.309
13242W        W14106  14.936  13.139   8.183
13243W        W14107  14.833  11.498   8.877
13244W        W14108  16.227  13.329   8.947
13245W        W14109  14.869  11.411   7.924
13246W        W14110  17.365  12.218   9.825
13247W        W14111  17.258  11.849   7.389
13248W        W14112  17.727  13.624   9.075
13249W        W14113  16.326  13.777   9.213
13250W        W14114  15.674  14.093   8.088
13251W        W14115  17.021  11.046   7.294
13252W        W14116  14.946  14.349   9.371
13253W        W14117  16.992  12.021  10.671
13254W        W14118  15.057  11.724  10.594
13255W        W14119  14.884  12.090   8.603
13256W        W14120  15.913  12.165   7.695
13257W        W14121  17.047  12.510  10.512
13258W        W14122  15.777  12.953   9.357
13259W        W14123  17.199  11.056   8.470
13260W        W14124  16.105  14.253   9.123
13261W        W14125  17.337  13.868   9.824
13262W        W14126  17.143  14.100   8.966
13263W        W14127  17.188  13.083   8.668
13264W        W14128  16.503  11.287   7.738
13265W        W14129  18.136  11.075   8.676
13266W        W14130  15.782  12.480   7.309
13267W        W14131  17.941  11.977   8.542
13268W        W14132  16.315  13.122   7.633
13269W        W14133  17.642  13.191  10.351
13270W        W14134  17.711  14.022   7.707
13271W        W14135  15.958  11.472  10.446
13272W        W14136  15.813  12.255   9.642
13273W        W14137  17.730  13.593  10.011
13274W        W14138  16.863  11.627  10.310
13275W        W14139  14.668  12.181  10.274
13276W        W14140  16.538  12.674   9.805
13277W        W14141  14.820  13.422   8.793
13278W        W14142  15.074  12.602   9.464
13279W        W14143  17.302  12.995   9.769
13280W        W14144  17.187  14.290  10.536
13281W        W14145  16.989  12.102  10.159
13282W        W14146  17.549  14.170   8.643
13283W        W14147  16.341  13.993   9.990
13284W        W14148  15.596  14.295   9.311
13285W        W14149  17.587  13.388   9.541
13286W        W14150  16.532  13.505  10.876
13287W        W14151  15.165  13.445   9.201
13288W        W14152  17.663  13.181   8.853
13289W        W14153  17.092  14.219   9.465
13290W        W14154  15.255  13.942   9.478
13291W        W14155  16.388  12.032  10.476
13292W        W14156  16.156  13.908   8.007
13293W        W14157  16.022  13.414  10.748
13294W        W14158  15.760  13.592   8.105
13295W        W14159  15.416  12.124   7.179
13296W        W14160  14.703  14.692  14.395
13297W        W14161  15.094  13.476  13.945
13298W        W14162  17.750  12.834  11.652
13299W        W14163  18.063  14.245  13.662
13300W        W14164  15.659  14.324  11.182
13301W        W14165  16.080  12.425  12.061
13302W        W14166  15.672  12.268  12.603
13303W        W14167  16.575  13.013  11.840
13304W        W14168  16.188  14.219  14.151
13305W        W14169  14.638  11.680  13.932
13306W        W14170  15.155  11.015  13.644
13307W        W14171  17.243  11.328  12.628
13308W        W14172  16.928  11.955  11.185
13309W        W14173  17.239  11.700  14.109
13310W        W14174  14.735  11.351  13.508
13311W        W14175  14.889  14.212  14.523
13312W        W14176  16.111  13.591  11.221
13313W        W14177  14.696  12.053  12.971
13314W        W14178  15.778  12.280  14.158
13315W        W14179  18.098  11.834  12.734
13316W        W14180  17.906  13.063  13.473
13317W        W14181  16.529  12.325  12.652
13318W        W14182  16.837  13.635  12.940
13319W        W14183  15.095  13.112  13.252
13320W        W14184  14.457  12.563  12.901
13321W        W14185  15.653  12.711  13.821
13322W        W14186  17.902  12.434  14.151
13323W        W14187  15.546  13.860  12.660
13324W        W14188  16.798  13.663  13.848
13325W        W14189  16.081  12.239  12.955
13326W        W14190  15.989  13.062  12.709
13327W        W14191  17.081  14.018  14.503
13328W        W14192  16.424  12.981  14.527
13329W        W14193  16.390  12.903  13.996
13330W        W14194  14.252  11.931  14.201
13331W        W14195  17.587  13.793  14.146
13332W        W14196  15.119  11.169  12.134
13333W        W14197  15.683  13.614  13.335
13334W        W14198  17.819  13.241  12.527
13335W        W14199  17.270  11.644  13.022
13336W        W14200  17.793  11.624  10.930
13337W        W14201  18.226  12.439  13.353
13338W        W14202  16.335  14.262  13.258
13339W        W14203  17.948  13.480  11.425
13340W        W14204  15.048  14.586  11.733
13341W        W14205  15.440  14.524  12.066
13342W        W14206  15.540  11.256  13.333
13343W        W14207  17.782  12.195  13.493
13344W        W14208  17.306  12.585  12.228
13345W        W14209  17.165  12.434  11.013
13346W        W14210  16.579  13.692  13.384
13347W        W14211  16.589  11.842  12.491
13348W        W14212  17.019  13.932  13.468
13349W        W14213  17.727  12.880  12.182
13350W        W14214  16.842  11.326  11.860
13351W        W14215  15.394  14.203  11.628
13352W        W14216  14.750  11.508  12.248
13353W        W14217  17.429  12.230  12.606
13354W        W14218  15.044  13.915  12.789
13355W        W14219  16.103  14.118  11.291
13356W        W14220  17.501  12.075  10.891
13357W        W14221  14.832  13.956  13.278
13358W        W14222  15.516  13.743  13.807
13359W        W14223  16.159  12.936  12.202
13360W        W14224  16.059  11.336  13.370
13361W        W14225  18.230  11.022  12.742
13362W        W14226  15.383  13.059  10.719
13363W        W14227  14.995  11.757  11.108
13364W        W14228  15.211  13.878  12.272
13365W        W14229  16.039  13.429  12.374
13366W        W14230  17.628  14.303  13.970
13367W        W14231  16.616  11.744  11.641
13368W        W14232  17.853  14.555  12.545
13369W        W14233  17.435  12.300  13.894
13370W        W14234  18.078  13.640  12.329
13371W        W14235  16.913  13.176  13.719
13372W        W14236  14.630  12.633  12.072
13373W        W14237  15.733  13.121  13.169
13374W        W14238  16.922  12.158  11.706
13375W        W14239  16.938  12.641  11.876
13376W        W14240  15.069  12.165  13.305
13377W        W14241  15.005  12.026  13.794
13378W        W14242  15.037  11.097  12.629
13379W        W14243  16.785  11.536  12.871
13380W        W14244  16.374  11.609  14.325
13381W        W14245  16.912  11.424  11.339
13382W        W14246  18.036  14.218  14.243
13383W        W14247  16.753  11.154  14.169
13384W        W14248  18.066  13.467  14.230
13385W        W14249  17.416  11.835  13.604
13386W        W14250  17.382  11.565  12.175
13387W        W14251  17.463  12.655  14.289
13388W        W14252  15.324  14.319  12.562
13389W        W14253  16.122  11.798  11.434
13390W        W14254  15.399  11.232  14.098
13391W        W14255  17.673  11.824  11.787
13392W        W14256  17.663  12.338  11.737
13393W        W14257  15.774  14.503  14.435
13394W        W14258  15.585  11.044  11.586
13395W        W14259  17.964  11.389  12.514
13396W        W14260  18.039  13.717  10.966
13397W        W14261  14.817  13.024  12.797
13398W        W14262  16.926  11.524  10.842
13399W        W14263  18.076  13.965  12.753
13400W        W14264  17.966  11.118  13.413
13401W        W14265  16.640  12.434  13.848
13402W        W14266  16.476  13.625  11.586
13403W        W14267  17.203  13.020  14.548
13404W        W14268  16.806  11.037  12.715
13405W        W14269  15.200  11.961  12.823
13406W        W14270  14.832  13.096  13.686
13407W        W14271  16.792  14.294  12.466
13408W        W14272  17.756  11.762  13.153
13409W        W14273  16.811  14.435  13.944
13410W        W14274  17.856  12.990  11.163
13411W        W14275  16.557  12.610  12.220
13412W        W14276  18.083  11.207  13.936
13413W        W14277  16.425  13.312  13.699
13414W        W14278  16.551  12.011  13.067
13415W        W14279  17.346  12.122  11.406
13416W        W14280  17.820  11.971  11.315
13417W        W14281  17.863  13.890  11.803
13418W        W14282  17.331  13.460  12.769
13419W        W14283  17.302  12.630  11.508
13420W        W14284  16.491  12.908  12.630
13421W        W14285  17.774  12.671  12.658
13422W        W14286  15.043  11.666  13.230
13423W        W14287  17.662  12.751  13.820
13424W        W14288  18.174  14.337  13.124
13425W        W14289  16.041  13.914  12.533
13426W        W14290  17.253  14.434  13.653
13427W        W14291  16.959  11.858  13.347
13428W        W14292  16.354  14.567  13.679
13429W        W14293  17.836  11.358  11.974
13430W        W14294  17.800  12.672  13.182
13431W        W14295  14.626  11.870  13.458
13432W        W14296  17.599  11.729  12.644
13433W        W14297  17.783  11.938  14.001
13434W        W14298  16.949  13.516  12.445
13435W        W14299  16.178  14.262  12.174
13436W        W14300  15.165  11.327  11.415
13437W        W14301  16.376  11.105  13.025
13438W        W14302  15.191  14.550  11.244
13439W        W14303  16.103  12.885  11.634
13440W        W14304  16.614  13.354  14.201
13441W        W14305  16.402  11.535  12.083
13442W        W14306  17.582  11.095  12.342
13443W        W14307  17.177  14.523  12.718
13444W        W14308  16.752  14.145  12.978
13445W        W14309  16.160  13.389  13.266
13446W        W14310  17.925  13.920  13.273
13447W        W14311  15.571  11.389  11.978
13448W        W14312  16.300  13.832  12.991
13449W        W14313  15.490  11.618  10.884
13450W        W14314  16.370  12.394  13.365
13451W        W14315  17.149  11.141  13.099
13452W        W14316  14.621  12.902  13.270
13453W        W14317  16.344  12.650  11.186
13454W        W14318  15.539  11.130  11.037
13455W        W14319  16.493  12.100  12.036
13456W        W14320  17.003  11.377  13.566
13457W        W14321  15.926  13.433  13.744
13458W        W14322  16.848  12.900  14.192
13459W        W14323  17.304  13.089  14.055
13460W        W14324  16.420  11.171  14.581
13461W        W14325  15.763  11.816  12.870
13462W        W14326  15.221  11.619  12.409
13463W        W14327  14.942  14.333  12.190
13464W        W14328  16.653  13.988  14.222
13465W        W14329  15.775  13.360  11.548
13466W        W14330  16.948  12.648  12.600
13467W        W14331  17.330  12.612  12.939
13468W        W14332  16.638  13.211  13.210
13469W        W14333  17.042  13.360  10.996
13470W        W14334  16.813  11.402  12.367
13471W        W14335  18.160  11.681  11.689
13472W        W14336  14.842  14.372  14.013
13473W        W14337  15.157  13.601  13.446
13474W        W14338  14.561  14.503  11.856
13475W        W14339  16.535  11.539  13.315
13476W        W14340  15.650  13.838  11.340
13477W        W14341  18.178  13.980  11.390
13478W        W14342  16.821  12.544  11.367
13479W        W14343  16.031  11.881  11.955
13480W        W14344  16.507  11.672  11.121
13481W        W14345  17.113  13.537  14.266
13482W        W14346  17.357  11.190  11.814
13483W        W14347  14.659  10.865  11.302
13484W        W14348  16.098  13.871  13.504
13485W        W14349  15.883  13.541  12.865
13486W        W14350  15.603  13.424  11.038
13487W        W14351  14.626  13.984  11.908
13488W        W14352  15.263  12.403  14.053
13489W        W14353  15.943  11.286  14.387
13490W        W14354  16.497  11.211  13.701
13491W        W14355  15.992  11.104  12.182
13492W        W14356  16.934  10.942  11.541
13493W        W14357  15.061  11.157  13.155
13494W        W14358  14.795  11.981  12.471
13495W        W14359  17.687  11.181  12.908
13496W        W14360  15.114  11.617  11.871
13497W        W14361  17.505  11.362  13.377
13498W        W14362  17.996  12.194  10.855
13499W        W14363  15.373  11.472  12.883
13500W        W14364  16.531  11.978  13.595
13501W        W14365  14.645  11.379  11.272
13502W        W14366  15.465  13.202  13.605
13503W        W14367  16.674  12.639  13.029
13504W        W14368  16.494  14.470  11.285
13505W        W14369  14.648  12.773  10.904
13506W        W14370  15.835  13.738  14.227
13507W        W14371  14.998  12.590  13.613
13508W        W14372  16.049  12.956  13.589
13509W        W14373  17.596  11.072  13.788
13510W        W14374  18.170  12.762  13.805
13511W        W14375  18.093  12.461  11.477
13512W        W14376  16.973  13.033  11.459
13513W        W14377  17.461  14.370  11.084
13514W        W14378  16.838  12.680  14.650
13515W        W14379  15.350  13.613  14.387
13516W        W14380  18.203  11.521  14.362
13517W        W14381  17.873  12.234  12.945
13518W        W14382  16.260  14.476  14.606
13519W        W14383  16.009  11.090  11.278
13520W        W14384  17.600  13.414  10.966
13521W        W14385  15.470  11.889  13.957
13522W        W14386  16.286  13.719  13.980
13523W        W14387  17.882  11.583  13.637
13524W        W14388  17.822  14.364  11.471
13525W        W14389  17.520  13.093  13.063
13526W        W14390  15.726  11.475  13.773
13527W        W14391  16.467  12.492  14.321
13528W        W14392  15.686  13.629  12.072
13529W        W14393  17.316  12.997  11.888
13530W        W14394  15.195  11.529  13.700
13531W        W14395  16.327  13.773  12.100
13532W        W14396  18.190  12.329  12.503
13533W        W14397  16.252  11.007  14.094
13534W        W14398  17.410  13.821  13.118
13535W        W14399  17.633  14.210  12.857
13536W        W14400  16.581  13.947  11.174
13537W        W14401  14.781  13.752  14.288
13538W        W14402  15.545  11.790  13.385
13539W        W14403  15.541  11.219  12.455
13540W        W14404  16.977  12.209  12.875
13541W        W14405  15.973  13.058  11.147
13542W        W14406  18.030  13.092  12.964
13543W        W14407  15.184  14.008  14.107
13544W        W14408  17.764  14.513  11.986
13545W        W14409  15.937  11.575  12.396
13546W        W14410  15.356  12.961  12.848
13547W        W14411  15.879  14.445  13.458
13548W        W14412  17.755  14.629  14.360
13549W        W14413  17.038  12.887  13.272
13550W        W14414  14.782  12.126  10.784
13551W        W14415  18.019  14.147  12.262
13552W        W14416  17.754  11.437  11.456
13553W        W14417  15.846  10.961  13.666
13554W        W14418  17.627  13.804  12.514
13555W        W14419  17.767  12.351  12.234
13556W        W14420  16.126  12.055  12.457
13557W        W14421  16.135  12.493  13.837
13558W        W14422  17.289  13.547  13.776
13559W        W14423  15.907  12.037  13.721
13560W        W14424  15.860  14.425  12.570
13561W        W14425  15.264  14.500  14.288
13562W        W14426  15.253  14.049  11.043
13563W        W14427  17.801  13.309  11.898
13564W        W14428  15.460  12.272  13.610
13565W        W14429  18.319  12.011  11.263
13566W        W14430  16.162  13.340  11.878
13567W        W14431  17.083  12.692  13.793
13568W        W14432  16.904  12.368  13.399
13569W        W14433  15.427  12.725  13.340
13570W        W14434  17.674  14.383  13.343
13571W        W14435  17.268  11.211  14.366
13572W        W14436  14.880  11.224  14.010
13573W        W14437  15.545  12.231  13.105
13574W        W14438  16.190  12.077  10.960
13575W        W14439  14.734  13.900  13.787
13576W        W14440  16.221  12.858  13.117
13577W        W14441  16.026  11.536  10.972
13578W        W14442  15.650  12.791  12.435
13579W        W14443  14.862  14.550  13.546
13580W        W14444  17.674  12.486  11.176
13581W        W14445  17.702  11.458  14.189
13582W        W14446  17.410  13.373  12.245
13583W        W14447  14.778  12.588  14.094
13584W        W14448  17.890  10.830  11.455
13585W        W14449  17.482  13.240  11.458
13586W        W14450  16.460  12.517  11.722
13587W        W14451  17.350  11.153  11.301
13588W        W14452  17.395  12.126  13.147
13589W        W14453  14.859  12.550  12.565
13590W        W14454  15.552  13.321  12.512
13591W        W14455  17.341  12.079  12.079
13592W        W14456  16.258  11.658  12.849
13593W        W14457  18.188  13.468  13.285
13594W        W14458  18.147  11.439  13.069
13595W        W14459  14.732  14.309  12.662
13596W        W14460  15.237  13.378  12.090
13597W        W14461  15.019  11.188  14.506
13598W        W14462  15.982  14.050  14.630
13599W        W14463  18.212  12.890  12.458
13600W        W14464  17.343  12.922  11.079
13601W        W14465  16.795  14.416  13.426
13602W        W14466  17.591  13.342  14.407
13603W        W14467  16.187  10.914  11.739
13604W        W14468  17.102  11.822  12.547
13605W        W14469  14.825  13.495  13.038
13606W        W14470  16.022  11.395  11.743
13607W        W14471  15.966  12.772  14.245
13608W        W14472  16.905  11.792  12.069
13609W        W14473  17.129  13.415  13.289
13610W        W14474  15.171  14.131  13.614
13611W        W14475  15.479  14.091  14.526
13612W        W14476  15.675  11.507  11.371
13613W        W14477  17.197  11.688  11.665
13614W        W14478  17.147  14.030  13.981
13615W        W14479  16.104  12.574  12.560
13616W        W14480  17.957  14.219  10.991
13617W        W14481  15.208  12.921  13.974
13618W        W14482  16.933  13.126  12.805
13619W        W14483  15.711  13.122  12.037
13620W        W14484  16.343  11.270  12.538
13621W        W14485  14.542  13.297  10.926
13622W        W14486  16.497  12.154  11.362
13623W        W14487  15.152  12.957  12.385
13624W        W14488  16.217  11.621  13.792
13625W        W14489  17.800  11.124  11.050
13626W        W14490  17.899  12.957  14.225
13627W        W14491  16.749  14.440  14.460
13628W        W14492  18.265  13.305  13.768
13629W        W14493  17.572  14.172  14.509
13630W        W14494  15.558  14.524  12.994
13631W        W14495  18.280  13.234  12.085
13632W        W14496  16.913  12.243  12.304
13633W        W14497  16.532  10.988  12.153
13634W        W14498  15.685  14.112  12.203
13635W        W14499  16.099  11.851  13.298
13636W        W14500  15.887  11.293  12.844
13637W        W14501  14.714  14.368  11.347
13638W        W14502  16.517  13.305  12.275
13639W        W14503  15.672  14.188  14.035
13640W        W14504  14.307  13.045  11.970
13641W        W14505  14.826  11.557  12.775
13642W        W14506  16.397  13.384  12.778
13643W        W14507  14.749  11.267  11.785
13644W        W14508  17.393  12.541  13.439
13645W        W14509  17.345  11.650  11.158
13646W        W14510  17.816  13.556  12.928
13647W        W14511  16.560  13.839  12.553
13648W        W14512  15.889  14.333  11.745
13649W        W14513  16.933  10.999  11.017
13650W        W14514  15.067  14.381  13.065
13651W        W14515  16.717  12.016  14.369
13652W        W14516  15.083  11.644  14.200
13653W        W14517  14.269  12.173  11.836
13654W        W14518  16.033  12.338  11.482
13655W        W14519  17.008  12.413  14.233
13656W        W14520  15.764  12.661  12.935
13657W        W14521  17.085  10.991  12.238
13658W        W14522  16.337  14.296  12.707
13659W        W14523  17.517  13.971  13.603
13660W        W14524  17.159  13.979  12.694
13661W        W14525  16.941  13.014  12.252
13662W        W14526  16.448  11.284  11.482
13663W        W14527  18.116  10.979  12.229
13664W        W14528  15.874  12.509  10.978
13665W        W14529  17.908  11.824  12.241
13666W        W14530  16.466  13.156  11.314
13667W        W14531  17.730  13.301  13.888
13668W        W14532  17.662  13.894  11.282
13669W        W14533  15.905  11.769  14.193
13670W        W14534  15.880  12.487  13.398
13671W        W14535  17.946  13.749  13.785
13672W        W14536  16.725  11.637  13.949
13673W        W14537  14.522  12.212  13.833
13674W        W14538  16.582  12.824  13.527
13675W        W14539  15.043  13.449  12.564
13676W        W14540  14.995  12.611  13.066
13677W        W14541  17.397  13.076  13.558
13678W        W14542  17.237  14.483  14.267
13679W        W14543  16.989  12.065  13.833
13680W        W14544  17.462  14.280  12.360
13681W        W14545  16.528  14.082  13.715
13682W        W14546  15.884  14.120  12.998
13683W        W14547  17.659  13.498  13.414
13684W        W14548  16.308  13.663  14.502
13685W        W14549  15.353  13.479  12.972
13686W        W14550  17.366  12.974  12.567
13687W        W14551  17.216  14.283  13.157
13688W        W14552  15.393  13.996  13.156
13689W        W14553  16.318  12.062  14.048
13690W        W14554  16.401  14.144  11.708
13691W        W14555  16.102  13.280  14.210
13692W        W14556  15.999  13.817  11.709
13693W        W14557  15.357  12.110  10.781
13694W        W14558  14.623  14.667  17.996
13695W        W14559  15.117  13.559  17.559
13696W        W14560  17.728  13.080  15.255
13697W        W14561  18.022  14.469  17.390
13698W        W14562  15.666  14.387  14.921
13699W        W14563  15.915  12.443  15.888
13700W        W14564  15.496  12.120  16.071
13701W        W14565  16.650  13.055  15.413
13702W        W14566  16.116  14.237  17.646
13703W        W14567  14.617  11.729  17.585
13704W        W14568  15.253  10.972  17.441
13705W        W14569  17.177  11.308  16.213
13706W        W14570  17.019  12.059  14.819
13707W        W14571  17.273  11.832  17.880
13708W        W14572  14.727  11.405  17.189
13709W        W14573  14.813  14.196  18.152
13710W        W14574  16.219  13.763  15.034
13711W        W14575  14.703  12.136  16.612
13712W        W14576  15.789  12.226  17.779
13713W        W14577  18.013  11.860  16.492
13714W        W14578  17.812  13.151  17.227
13715W        W14579  16.348  12.392  16.157
13716W        W14580  16.909  13.783  16.644
13717W        W14581  15.100  13.079  16.895
13718W        W14582  14.391  12.597  16.638
13719W        W14583  15.717  12.760  17.535
13720W        W14584  17.881  12.413  17.741
13721W        W14585  15.535  13.822  16.322
13722W        W14586  16.692  13.572  17.289
13723W        W14587  16.242  12.082  16.557
13724W        W14588  15.989  12.808  16.273
13725W        W14589  16.899  13.927  18.030
13726W        W14590  16.333  13.062  18.093
13727W        W14591  16.222  12.891  17.586
13728W        W14592  14.183  11.954  17.800
13729W        W14593  17.382  13.704  17.784
13730W        W14594  15.053  11.066  15.755
13731W        W14595  15.627  13.703  16.812
13732W        W14596  18.125  13.279  16.192
13733W        W14597  17.596  11.513  16.527
13734W        W14598  17.824  11.834  14.537
13735W        W14599  18.204  12.467  17.075
13736W        W14600  16.220  14.044  16.747
13737W        W14601  17.956  13.644  15.369
13738W        W14602  15.077  14.559  15.312
13739W        W14603  15.475  14.546  15.761
13740W        W14604  15.247  11.272  17.018
13741W        W14605  17.781  12.232  17.264
13742W        W14606  17.272  12.601  15.976
13743W        W14607  17.300  12.503  14.749
13744W        W14608  16.488  13.518  16.814
13745W        W14609  16.507  11.789  16.233
13746W        W14610  16.816  14.050  17.064
13747W        W14611  17.661  12.722  15.631
13748W        W14612  16.699  11.603  15.433
13749W        W14613  15.329  14.131  15.478
13750W        W14614  14.736  11.467  15.828
13751W        W14615  17.539  12.032  16.367
13752W        W14616  14.992  13.842  16.393
13753W        W14617  16.154  14.261  15.069
13754W        W14618  17.410  12.127  14.380
13755W        W14619  14.784  13.959  16.876
13756W        W14620  15.562  13.664  17.307
13757W        W14621  15.762  13.081  15.897
13758W        W14622  15.693  11.401  16.766
13759W        W14623  18.187  11.050  16.431
13760W        W14624  15.594  13.260  14.097
13761W        W14625  15.044  11.655  14.724
13762W        W14626  15.165  13.886  15.910
13763W        W14627  15.870  13.602  16.001
13764W        W14628  17.623  14.129  17.509
13765W        W14629  16.652  12.102  15.278
13766W        W14630  17.843  14.504  16.171
13767W        W14631  17.394  12.292  17.647
13768W        W14632  18.302  13.791  16.083
13769W        W14633  16.833  13.064  17.271
13770W        W14634  14.375  12.704  15.761
13771W        W14635  15.632  13.210  16.928
13772W        W14636  16.924  12.363  15.639
13773W        W14637  16.768  12.766  15.901
13774W        W14638  15.046  12.152  17.027
13775W        W14639  14.977  12.134  17.540
13776W        W14640  14.936  11.039  16.257
13777W        W14641  16.767  11.453  16.540
13778W        W14642  16.468  11.595  17.800
13779W        W14643  16.992  11.560  14.999
13780W        W14644  18.086  14.190  17.803
13781W        W14645  16.974  11.115  17.702
13782W        W14646  17.900  13.705  17.802
13783W        W14647  17.450  11.527  17.493
13784W        W14648  17.132  11.595  15.741
13785W        W14649  17.503  12.707  17.948
13786W        W14650  15.291  14.265  16.243
13787W        W14651  16.241  11.790  15.261
13788W        W14652  15.455  11.320  17.764
13789W        W14653  17.585  11.854  15.564
13790W        W14654  17.899  12.238  15.432
13791W        W14655  15.640  14.461  17.917
13792W        W14656  15.579  10.856  15.073
13793W        W14657  17.995  11.448  16.194
13794W        W14658  17.957  13.835  14.578
13795W        W14659  14.706  12.994  16.535
13796W        W14660  16.868  11.539  14.487
13797W        W14661  18.111  14.098  16.443
13798W        W14662  18.079  11.080  17.130
13799W        W14663  16.566  12.501  17.645
13800W        W14664  16.529  13.572  15.418
13801W        W14665  16.845  13.105  18.240
13802W        W14666  16.740  11.000  16.317
13803W        W14667  15.149  11.915  16.428
13804W        W14668  14.817  13.256  17.279
13805W        W14669  16.581  14.205  16.094
13806W        W14670  17.676  11.814  16.945
13807W        W14671  16.658  14.305  17.486
13808W        W14672  17.686  12.906  14.708
13809W        W14673  16.265  12.863  15.851
13810W        W14674  18.215  11.107  17.631
13811W        W14675  16.337  13.181  17.183
13812W        W14676  16.712  11.934  16.692
13813W        W14677  17.388  12.339  15.463
13814W        W14678  17.504  12.096  15.015
13815W        W14679  17.602  13.950  15.584
13816W        W14680  17.221  13.462  16.410
13817W        W14681  17.138  12.847  15.539
13818W        W14682  16.492  12.855  16.320
13819W        W14683  17.522  12.545  16.455
13820W        W14684  14.924  11.684  16.819
13821W        W14685  17.607  12.714  17.434
13822W        W14686  18.082  14.375  16.895
13823W        W14687  16.047  14.024  16.236
13824W        W14688  17.149  14.370  17.322
13825W        W14689  16.291  14.518  17.213
13826W        W14690  17.821  11.384  15.702
13827W        W14691  17.764  12.740  16.930
13828W        W14692  14.565  11.914  17.105
13829W        W14693  17.532  11.638  16.040
13830W        W14694  17.758  11.915  17.660
13831W        W14695  16.865  13.689  16.067
13832W        W14696  16.138  14.306  15.828
13833W        W14697  15.115  11.209  15.020
13834W        W14698  16.341  11.157  16.637
13835W        W14699  15.196  14.557  14.799
13836W        W14700  16.131  12.929  15.353
13837W        W14701  16.382  13.371  17.661
13838W        W14702  16.292  11.630  15.774
13839W        W14703  17.652  11.087  16.121
13840W        W14704  17.307  14.591  16.331
13841W        W14705  16.678  14.244  16.604
13842W        W14706  16.109  13.131  16.699
13843W        W14707  17.806  13.944  16.929
13844W        W14708  15.518  11.132  15.507
13845W        W14709  16.023  13.610  16.530
13846W        W14710  15.517  11.572  14.489
13847W        W14711  16.340  12.190  17.030
13848W        W14712  17.218  11.223  16.716
13849W        W14713  14.551  12.923  17.011
13850W        W14714  16.489  12.757  15.015
13851W        W14715  15.526  11.074  14.603
13852W        W14716  16.296  12.138  15.677
13853W        W14717  17.123  11.210  17.217
13854W        W14718  15.866  13.250  17.423
13855W        W14719  16.712  12.972  17.760
13856W        W14720  17.210  13.015  17.636
13857W        W14721  16.437  11.268  18.218
13858W        W14722  15.656  11.825  16.453
13859W        W14723  15.209  11.575  16.016
13860W        W14724  14.978  14.368  15.803
13861W        W14725  16.495  13.865  17.724
13862W        W14726  15.887  13.430  15.246
13863W        W14727  16.994  12.760  16.381
13864W        W14728  17.123  12.244  16.602
13865W        W14729  16.599  13.000  16.786
13866W        W14730  17.265  13.463  14.801
13867W        W14731  16.732  11.404  15.963
13868W        W14732  18.054  11.716  15.395
13869W        W14733  14.862  14.384  17.609
13870W        W14734  15.139  13.590  17.035
13871W        W14735  14.589  14.454  15.446
13872W        W14736  16.393  11.594  16.914
13873W        W14737  15.721  13.918  15.113
13874W        W14738  18.020  14.170  15.313
13875W        W14739  16.951  12.515  15.143
13876W        W14740  15.846  11.845  15.629
13877W        W14741  16.556  11.782  14.828
13878W        W14742  16.923  13.446  17.773
13879W        W14743  17.388  11.432  15.343
13880W        W14744  14.700  10.881  14.932
13881W        W14745  16.043  13.579  17.062
13882W        W14746  15.703  13.227  16.392
13883W        W14747  15.838  13.560  14.721
13884W        W14748  14.792  13.957  15.539
13885W        W14749  15.274  12.551  17.620
13886W        W14750  15.973  11.171  17.922
13887W        W14751  16.624  11.318  17.291
13888W        W14752  15.917  11.013  15.846
13889W        W14753  16.929  11.159  15.323
13890W        W14754  14.830  11.178  16.738
13891W        W14755  14.779  11.955  16.067
13892W        W14756  17.711  11.015  16.645
13893W        W14757  15.127  11.493  15.469
13894W        W14758  17.603  11.307  17.044
13895W        W14759  17.782  12.349  14.650
13896W        W14760  15.249  11.412  16.505
13897W        W14761  16.525  11.844  17.350
13898W        W14762  14.613  11.391  14.910
13899W        W14763  15.345  13.139  17.345
13900W        W14764  16.646  12.439  16.623
13901W        W14765  16.596  14.549  15.024
13902W        W14766  14.205  12.774  14.639
13903W        W14767  15.586  13.531  17.799
13904W        W14768  14.936  12.747  17.297
13905W        W14769  15.962  12.834  17.101
13906W        W14770  17.700  11.086  17.508
13907W        W14771  18.142  12.792  17.468
13908W        W14772  18.104  12.722  15.343
13909W        W14773  17.023  13.386  15.584
13910W        W14774  17.538  14.626  14.838
13911W        W14775  16.620  12.641  18.179
13912W        W14776  15.127  13.556  18.074
13913W        W14777  18.284  11.355  18.076
13914W        W14778  17.844  12.266  16.753
13915W        W14779  16.101  14.404  18.145
13916W        W14780  15.992  11.111  14.902
13917W        W14781  17.787  13.438  14.888
13918W        W14782  15.503  11.823  17.649
13919W        W14783  16.004  13.742  17.564
13920W        W14784  17.955  11.547  17.325
13921W        W14785  17.536  14.406  15.322
13922W        W14786  17.383  13.014  16.614
13923W        W14787  15.644  11.514  17.270
13924W        W14788  16.139  12.565  17.978
13925W        W14789  15.535  13.655  15.587
13926W        W14790  17.501  13.207  15.695
13927W        W14791  15.125  11.686  17.329
13928W        W14792  16.368  13.759  15.889
13929W        W14793  18.030  12.319  16.273
13930W        W14794  16.449  11.088  17.734
13931W        W14795  17.406  13.880  16.613
13932W        W14796  17.662  14.311  16.593
13933W        W14797  16.533  14.066  14.744
13934W        W14798  14.678  13.699  17.819
13935W        W14799  15.415  11.818  16.909
13936W        W14800  15.442  11.109  16.099
13937W        W14801  17.185  11.742  16.778
13938W        W14802  16.327  13.260  14.997
13939W        W14803  17.898  13.134  16.629
13940W        W14804  15.170  14.015  17.801
13941W        W14805  17.877  14.602  15.667
13942W        W14806  15.805  11.498  16.034
13943W        W14807  15.209  12.944  16.413
13944W        W14808  15.908  14.560  16.892
13945W        W14809  17.789  14.621  17.821
13946W        W14810  16.994  12.710  16.884
13947W        W14811  14.774  12.061  14.269
13948W        W14812  18.009  14.138  15.843
13949W        W14813  17.713  11.640  15.001
13950W        W14814  15.778  11.032  17.431
13951W        W14815  17.641  14.001  16.170
13952W        W14816  17.684  12.302  15.911
13953W        W14817  16.030  11.964  16.100
13954W        W14818  16.098  12.427  17.415
13955W        W14819  17.208  13.457  17.335
13956W        W14820  15.975  11.928  17.395
13957W        W14821  15.772  14.467  16.189
13958W        W14822  15.155  14.534  17.988
13959W        W14823  15.232  14.079  14.977
13960W        W14824  17.860  13.601  15.885
13961W        W14825  15.493  12.190  17.303
13962W        W14826  18.063  12.032  14.964
13963W        W14827  16.156  13.337  15.672
13964W        W14828  17.051  12.599  17.378
13965W        W14829  16.865  12.227  17.079
13966W        W14830  15.414  12.669  17.097
13967W        W14831  17.598  14.439  17.079
13968W        W14832  17.386  11.288  17.982
13969W        W14833  14.916  11.281  17.663
13970W        W14834  15.396  12.304  16.670
13971W        W14835  16.189  12.060  14.540
13972W        W14836  14.685  13.753  17.319
13973W        W14837  16.189  12.613  16.700
13974W        W14838  16.071  11.602  14.777
13975W        W14839  15.514  12.641  16.156
13976W        W14840  14.955  14.562  17.139
13977W        W14841  17.664  12.583  15.111
13978W        W14842  17.853  11.450  17.837
13979W        W14843  17.352  13.636  15.936
13980W        W14844  14.784  12.575  17.793
13981W        W14845  17.830  11.198  15.208
13982W        W14846  17.451  13.529  15.293
13983W        W14847  16.495  12.572  15.492
13984W        W14848  17.393  11.245  14.873
13985W        W14849  17.294  11.969  17.267
13986W        W14850  15.042  12.402  16.279
13987W        W14851  15.384  13.435  16.038
13988W        W14852  17.246  12.067  15.896
13989W        W14853  16.103  11.584  16.476
13990W        W14854  18.062  13.504  16.952
13991W        W14855  18.049  11.449  16.784
13992W        W14856  14.711  14.252  16.225
13993W        W14857  14.959  13.447  15.694
13994W        W14858  15.045  11.284  18.176
13995W        W14859  16.301  13.951  18.203
13996W        W14860  17.858  12.797  16.156
13997W        W14861  17.275  12.939  15.051
13998W        W14862  16.767  14.579  17.014
13999W        W14863  17.342  13.192  18.107
14000W        W14864  16.029  10.853  15.362
14001W        W14865  17.038  11.806  16.274
14002W        W14866  14.778  13.472  16.690
14003W        W14867  15.978  11.367  15.399
14004W        W14868  15.849  13.082  17.914
14005W        W14869  16.747  11.926  15.814
14006W        W14870  17.004  13.322  16.861
14007W        W14871  15.121  14.057  17.280
14008W        W14872  15.803  13.984  18.005
14009W        W14873  15.592  11.403  15.019
14010W        W14874  17.120  11.923  15.346
14011W        W14875  16.997  13.915  17.527
14012W        W14876  15.837  12.335  16.412
14013W        W14877  15.460  14.395  17.070
14014W        W14878  17.989  14.348  14.759
14015W        W14879  14.777  13.129  17.780
14016W        W14880  16.729  13.310  16.395
14017W        W14881  15.221  12.986  15.886
14018W        W14882  15.862  14.071  17.113
14019W        W14883  16.285  11.256  16.129
14020W        W14884  14.536  13.322  15.355
14021W        W14885  16.564  12.292  14.804
14022W        W14886  14.783  12.802  16.074
14023W        W14887  16.135  11.432  17.438
14024W        W14888  17.869  11.238  14.665
14025W        W14889  17.984  12.887  17.945
14026W        W14890  16.584  14.336  17.990
14027W        W14891  18.263  13.387  17.416
14028W        W14892  17.648  14.106  18.027
14029W        W14893  15.424  14.622  16.604
14030W        W14894  17.997  13.079  15.735
14031W        W14895  16.856  12.299  16.160
14032W        W14896  16.425  11.169  15.575
14033W        W14897  15.662  14.071  15.877
14034W        W14898  15.935  11.840  16.899
14035W        W14899  15.876  11.116  16.387
14036W        W14900  14.731  14.192  15.029
14037W        W14901  16.620  13.266  15.887
14038W        W14902  15.594  14.134  17.533
14039W        W14903  14.810  12.921  15.560
14040W        W14904  14.750  11.527  16.354
14041W        W14905  16.217  13.277  16.199
14042W        W14906  14.726  11.177  15.372
14043W        W14907  17.382  12.413  17.014
14044W        W14908  17.343  11.686  14.630
14045W        W14909  17.846  13.634  16.474
14046W        W14910  16.477  13.784  16.381
14047W        W14911  15.807  14.346  15.430
14048W        W14912  16.898  11.095  14.767
14049W        W14913  14.949  14.392  16.646
14050W        W14914  16.777  12.152  18.090
14051W        W14915  15.049  11.722  17.869
14052W        W14916  14.559  12.240  15.670
14053W        W14917  16.191  12.314  15.165
14054W        W14918  17.021  12.560  17.877
14055W        W14919  15.661  12.767  16.659
14056W        W14920  17.302  11.106  15.741
14057W        W14921  16.238  14.468  16.423
14058W        W14922  17.320  13.924  17.115
14059W        W14923  17.095  14.121  16.273
14060W        W14924  17.113  13.131  16.033
14061W        W14925  16.448  11.337  15.073
14062W        W14926  18.162  11.018  15.908
14063W        W14927  16.127  12.565  14.699
14064W        W14928  17.969  11.885  15.929
14065W        W14929  16.823  13.143  14.893
14066W        W14930  17.665  13.243  17.706
14067W        W14931  17.659  13.952  15.010
14068W        W14932  15.956  11.698  17.865
14069W        W14933  15.835  12.345  16.953
14070W        W14934  17.693  13.635  17.338
14071W        W14935  16.949  11.613  17.542
14072W        W14936  14.473  12.259  17.509
14073W        W14937  16.507  12.663  17.157
14074W        W14938  14.914  13.322  16.196
14075W        W14939  14.974  12.603  16.754
14076W        W14940  17.332  13.003  17.124
14077W        W14941  17.217  14.307  17.829
14078W        W14942  16.907  12.122  17.591
14079W        W14943  17.451  14.368  15.860
14080W        W14944  16.346  13.968  17.242
14081W        W14945  15.732  14.185  16.614
14082W        W14946  17.528  13.449  16.878
14083W        W14947  16.573  13.526  18.133
14084W        W14948  15.272  13.439  16.559
14085W        W14949  17.616  13.244  16.192
14086W        W14950  17.170  14.326  16.778
14087W        W14951  15.272  14.035  16.766
14088W        W14952  16.311  12.084  17.780
14089W        W14953  16.457  14.117  15.467
14090W        W14954  16.067  13.528  18.039
14091W        W14955  16.014  13.860  15.535
14092W        W14956  15.308  12.047  14.425
14093W        W14957  14.597  14.717  21.653
14094W        W14958  15.043  13.618  21.134
14095W        W14959  17.602  12.902  18.911
14096W        W14960  17.977  14.274  20.806
14097W        W14961  15.666  14.343  18.437
14098W        W14962  15.932  12.449  19.487
14099W        W14963  15.526  12.247  19.891
14100W        W14964  16.426  13.034  19.039
14101W        W14965  16.014  14.293  21.323
14102W        W14966  14.689  11.667  21.283
14103W        W14967  15.242  11.042  21.037
14104W        W14968  17.146  11.361  19.898
14105W        W14969  17.004  12.295  18.619
14106W        W14970  17.366  11.840  21.430
14107W        W14971  14.765  11.301  20.879
14108W        W14972  14.740  14.260  21.843
14109W        W14973  16.085  13.641  18.628
14110W        W14974  14.675  11.985  20.325
14111W        W14975  15.891  12.182  21.346
14112W        W14976  18.133  11.828  19.996
14113W        W14977  17.763  13.000  20.681
14114W        W14978  16.286  12.494  19.888
14115W        W14979  16.845  13.801  20.232
14116W        W14980  15.184  13.013  20.478
14117W        W14981  14.480  12.469  20.212
14118W        W14982  15.863  12.661  21.183
14119W        W14983  17.782  12.415  21.353
14120W        W14984  15.512  13.787  19.909
14121W        W14985  16.613  13.707  20.969
14122W        W14986  15.945  12.275  20.205
14123W        W14987  16.167  13.024  19.942
14124W        W14988  16.855  13.943  21.739
14125W        W14989  16.316  13.089  21.729
14126W        W14990  16.359  12.901  21.224
14127W        W14991  14.290  11.906  21.514
14128W        W14992  17.385  13.685  21.349
14129W        W14993  15.031  11.208  19.381
14130W        W14994  15.607  13.498  20.432
14131W        W14995  18.011  13.371  19.783
14132W        W14996  17.688  11.649  20.191
14133W        W14997  17.687  11.792  18.205
14134W        W14998  18.174  12.393  20.608
14135W        W14999  16.244  14.227  20.404
14136W        W15000  17.756  13.329  18.633
14137W        W15001  15.062  14.588  18.975
14138W        W15002  15.458  14.563  19.317
14139W        W15003  15.394  11.250  20.599
14140W        W15004  17.711  12.358  20.846
14141W        W15005  17.211  12.477  19.487
14142W        W15006  17.152  12.707  18.340
14143W        W15007  16.377  13.715  20.499
14144W        W15008  16.389  11.706  19.674
14145W        W15009  16.711  14.100  20.645
14146W        W15010  17.686  12.628  19.334
14147W        W15011  16.792  11.294  19.052
14148W        W15012  15.255  14.114  19.053
14149W        W15013  14.676  11.530  19.580
14150W        W15014  17.280  12.150  19.910
14151W        W15015  14.985  13.876  20.025
14152W        W15016  16.099  14.156  18.637
14153W        W15017  17.340  12.247  18.181
14154W        W15018  14.733  13.932  20.490
14155W        W15019  15.474  13.722  20.863
14156W        W15020  15.845  13.035  19.543
14157W        W15021  15.890  11.448  20.546
14158W        W15022  18.263  11.094  20.072
14159W        W15023  15.317  13.069  17.846
14160W        W15024  14.957  11.756  18.380
14161W        W15025  15.129  13.857  19.530
14162W        W15026  15.863  13.563  19.564
14163W        W15027  17.459  14.188  21.161
14164W        W15028  16.698  11.875  18.770
14165W        W15029  17.859  14.459  19.905
14166W        W15030  17.256  12.385  21.328
14167W        W15031  18.337  13.694  19.542
14168W        W15032  16.819  13.212  21.034
14169W        W15033  14.591  12.644  19.373
14170W        W15034  15.559  13.205  20.833
14171W        W15035  16.866  12.253  19.124
14172W        W15036  16.794  12.734  19.343
14173W        W15037  15.070  12.102  20.683
14174W        W15038  15.091  12.056  21.215
14175W        W15039  15.011  11.090  19.875
14176W        W15040  16.645  11.430  20.083
14177W        W15041  16.498  11.558  21.407
14178W        W15042  16.848  11.418  18.545
14179W        W15043  17.927  14.283  21.317
14180W        W15044  16.850  11.189  21.419
14181W        W15045  17.800  13.874  21.607
14182W        W15046  17.258  12.062  20.930
14183W        W15047  17.180  11.461  19.378
14184W        W15048  17.499  12.742  21.636
14185W        W15049  15.278  14.268  19.846
14186W        W15050  16.179  11.867  18.721
14187W        W15051  15.459  11.255  21.459
14188W        W15052  17.588  11.771  19.189
14189W        W15053  17.912  12.190  19.114
14190W        W15054  15.540  14.510  21.403
14191W        W15055  15.559  11.045  18.847
14192W        W15056  17.968  11.400  19.789
14193W        W15057  18.093  13.925  18.247
14194W        W15058  14.818  13.002  20.101
14195W        W15059  16.902  11.501  18.045
14196W        W15060  18.086  13.923  19.943
14197W        W15061  18.085  11.042  20.610
14198W        W15062  16.692  12.548  21.444
14199W        W15063  16.431  13.553  19.035
14200W        W15064  17.184  13.047  21.908
14201W        W15065  16.681  10.937  19.887
14202W        W15066  15.180  11.955  20.179
14203W        W15067  15.056  13.123  20.955
14204W        W15068  16.608  14.245  19.619
14205W        W15069  17.897  11.962  20.541
14206W        W15070  16.639  14.395  21.092
14207W        W15071  17.691  12.881  18.393
14208W        W15072  16.305  12.787  19.471
14209W        W15073  18.138  11.074  21.159
14210W        W15074  16.372  13.257  20.811
14211W        W15075  16.426  12.043  20.096
14212W        W15076  17.397  12.242  19.070
14213W        W15077  17.492  11.967  18.649
14214W        W15078  18.004  13.563  19.174
14215W        W15079  17.260  13.653  19.947
14216W        W15080  17.144  12.675  18.955
14217W        W15081  16.634  12.880  19.858
14218W        W15082  17.573  12.611  19.859
14219W        W15083  15.014  11.613  20.541
14220W        W15084  17.547  12.806  21.126
14221W        W15085  18.165  14.344  20.308
14222W        W15086  15.969  14.011  19.769
14223W        W15087  17.112  14.365  20.837
14224W        W15088  16.825  11.862  20.690
14225W        W15089  16.255  14.610  20.821
14226W        W15090  17.948  11.397  19.265
14227W        W15091  17.734  12.589  20.362
14228W        W15092  14.649  11.843  20.816
14229W        W15093  17.528  11.696  19.704
14230W        W15094  17.730  11.885  21.055
14231W        W15095  16.788  13.689  19.725
14232W        W15096  16.136  14.297  19.391
14233W        W15097  15.029  11.351  18.722
14234W        W15098  16.393  11.043  20.345
14235W        W15099  15.171  14.493  18.492
14236W        W15100  15.963  12.794  19.074
14237W        W15101  16.387  13.412  21.314
14238W        W15102  16.321  11.382  19.267
14239W        W15103  17.547  11.182  19.603
14240W        W15104  17.335  14.533  19.995
14241W        W15105  16.694  14.342  20.178
14242W        W15106  16.069  13.270  20.387
14243W        W15107  17.900  13.922  20.427
14244W        W15108  15.465  11.413  19.204
14245W        W15109  15.975  13.738  20.186
14246W        W15110  15.495  11.677  18.145
14247W        W15111  16.456  12.244  20.606
14248W        W15112  16.954  11.055  20.305
14249W        W15113  14.704  12.849  20.636
14250W        W15114  16.255  12.776  18.547
14251W        W15115  15.571  11.162  18.256
14252W        W15116  16.450  12.222  19.471
14253W        W15117  17.248  11.284  21.111
14254W        W15118  15.942  13.206  21.186
14255W        W15119  16.779  13.048  21.524
14256W        W15120  17.241  13.160  21.353
14257W        W15121  16.473  11.265  21.844
14258W        W15122  15.704  11.815  20.150
14259W        W15123  15.172  11.646  19.674
14260W        W15124  14.976  14.362  19.437
14261W        W15125  16.461  13.971  21.390
14262W        W15126  15.622  13.385  18.769
14263W        W15127  17.127  12.869  19.814
14264W        W15128  17.175  12.566  20.212
14265W        W15129  16.520  13.062  20.334
14266W        W15130  17.060  13.563  18.353
14267W        W15131  16.732  11.349  19.582
14268W        W15132  18.228  11.784  19.026
14269W        W15133  14.715  14.338  21.318
14270W        W15134  15.060  13.533  20.618
14271W        W15135  14.590  14.455  19.095
14272W        W15136  16.423  11.518  20.570
14273W        W15137  15.629  13.912  18.733
14274W        W15138  17.732  14.172  18.553
14275W        W15139  16.748  12.799  18.667
14276W        W15140  16.133  11.864  19.251
14277W        W15141  16.498  11.769  18.304
14278W        W15142  16.879  13.550  21.412
14279W        W15143  17.496  11.271  19.015
14280W        W15144  14.699  10.989  18.534
14281W        W15145  15.965  13.558  20.793
14282W        W15146  15.733  13.287  19.990
14283W        W15147  15.633  13.604  18.308
14284W        W15148  14.746  13.954  19.162
14285W        W15149  15.404  12.474  21.334
14286W        W15150  15.949  11.227  21.673
14287W        W15151  16.666  11.256  20.951
14288W        W15152  15.876  11.107  19.359
14289W        W15153  17.126  11.032  18.728
14290W        W15154  14.933  11.139  20.377
14291W        W15155  14.764  11.993  19.821
14292W        W15156  17.767  11.137  20.211
14293W        W15157  14.953  11.667  19.154
14294W        W15158  17.840  12.395  18.248
14295W        W15159  15.338  11.454  20.141
14296W        W15160  16.405  11.860  20.982
14297W        W15161  14.535  11.485  18.597
14298W        W15162  15.453  12.984  21.281
14299W        W15163  16.655  12.567  20.263
14300W        W15164  16.524  14.410  18.508
14301W        W15165  14.556  12.831  18.211
14302W        W15166  15.546  13.499  21.303
14303W        W15167  15.013  12.533  20.959
14304W        W15168  16.003  12.913  20.776
14305W        W15169  17.675  11.043  20.969
14306W        W15170  18.066  12.721  20.992
14307W        W15171  17.976  12.569  18.776
14308W        W15172  16.924  13.159  19.019
14309W        W15173  17.511  14.538  18.244
14310W        W15174  16.683  12.820  21.983
14311W        W15175  15.205  13.663  21.639
14312W        W15176  18.239  11.556  21.701
14313W        W15177  17.777  12.175  20.060
14314W        W15178  16.170  14.431  21.800
14315W        W15179  16.006  11.051  18.518
14316W        W15180  17.580  13.655  18.260
14317W        W15181  15.533  11.806  21.314
14318W        W15182  15.995  13.773  21.243
14319W        W15183  17.973  11.485  20.855
14320W        W15184  17.314  14.547  18.713
14321W        W15185  17.398  13.047  20.298
14322W        W15186  15.645  11.409  21.006
14323W        W15187  16.201  12.541  21.575
14324W        W15188  15.496  13.638  19.198
14325W        W15189  17.287  12.972  19.344
14326W        W15190  15.161  11.577  21.036
14327W        W15191  16.342  13.812  19.486
14328W        W15192  18.093  12.330  19.668
14329W        W15193  16.351  11.062  21.377
14330W        W15194  17.272  13.547  20.438
14331W        W15195  17.568  14.046  20.045
14332W        W15196  16.597  13.795  18.590
14333W        W15197  14.730  13.809  21.510
14334W        W15198  15.492  11.777  20.626
14335W        W15199  15.475  11.227  19.699
14336W        W15200  16.907  12.110  20.251
14337W        W15201  15.956  13.185  18.423
14338W        W15202  17.910  13.040  20.173
14339W        W15203  15.153  14.091  21.341
14340W        W15204  17.629  14.623  19.154
14341W        W15205  15.888  11.543  19.645
14342W        W15206  15.330  12.934  19.977
14343W        W15207  15.876  14.577  20.477
14344W        W15208  17.587  14.655  21.386
14345W        W15209  16.953  12.928  20.539
14346W        W15210  14.668  12.085  17.973
14347W        W15211  18.040  14.153  19.470
14348W        W15212  17.824  11.598  18.767
14349W        W15213  15.860  10.991  21.201
14350W        W15214  17.699  13.748  19.631
14351W        W15215  17.623  12.174  19.544
14352W        W15216  16.014  12.032  19.768
14353W        W15217  16.305  12.399  21.079
14354W        W15218  17.122  13.652  20.916
14355W        W15219  15.900  11.848  20.960
14356W        W15220  15.745  14.470  19.726
14357W        W15221  15.098  14.552  21.626
14358W        W15222  15.302  14.018  18.295
14359W        W15223  17.768  13.146  19.353
14360W        W15224  15.516  12.184  20.942
14361W        W15225  18.018  12.047  18.589
14362W        W15226  15.980  13.319  19.122
14363W        W15227  16.998  12.741  21.059
14364W        W15228  16.941  12.404  20.663
14365W        W15229  15.490  12.693  20.813
14366W        W15230  17.649  14.399  20.405
14367W        W15231  17.374  11.324  21.617
14368W        W15232  14.913  11.217  21.374
14369W        W15233  15.486  12.305  20.433
14370W        W15234  16.071  12.077  18.239
14371W        W15235  14.643  13.932  21.008
14372W        W15236  16.162  12.703  20.350
14373W        W15237  15.990  11.537  18.357
14374W        W15238  15.465  12.679  19.540
14375W        W15239  14.713  14.426  20.785
14376W        W15240  17.497  12.474  18.629
14377W        W15241  17.823  11.463  21.373
14378W        W15242  17.274  13.466  19.488
14379W        W15243  14.910  12.500  21.487
14380W        W15244  17.953  11.108  18.827
14381W        W15245  17.427  13.372  19.020
14382W        W15246  16.434  12.518  19.009
14383W        W15247  17.383  11.445  18.502
14384W        W15248  17.411  12.175  20.444
14385W        W15249  14.854  12.550  19.838
14386W        W15250  15.382  13.361  19.635
14387W        W15251  17.164  11.965  19.427
14388W        W15252  16.164  11.592  20.111
14389W        W15253  18.158  13.433  20.424
14390W        W15254  18.204  11.506  20.393
14391W        W15255  14.733  14.367  19.899
14392W        W15256  15.019  13.425  19.271
14393W        W15257  15.036  11.232  21.882
14394W        W15258  16.068  13.946  21.728
14395W        W15259  18.003  12.848  19.708
14396W        W15260  17.239  13.121  18.611
14397W        W15261  16.738  14.635  20.610
14398W        W15262  17.622  13.277  21.682
14399W        W15263  16.211  10.959  18.984
14400W        W15264  16.864  11.826  19.812
14401W        W15265  14.699  13.486  20.241
14402W        W15266  15.921  11.417  18.934
14403W        W15267  15.855  12.929  21.613
14404W        W15268  16.708  11.768  19.274
14405W        W15269  16.798  13.422  20.570
14406W        W15270  15.099  14.068  20.827
14407W        W15271  15.612  13.987  21.515
14408W        W15272  15.513  11.515  18.635
14409W        W15273  17.148  11.687  18.916
14410W        W15274  16.967  14.024  21.232
14411W        W15275  15.794  12.689  19.941
14412W        W15276  15.417  14.419  20.627
14413W        W15277  18.037  14.449  18.242
14414W        W15278  15.008  13.206  21.465
14415W        W15279  16.936  13.272  20.085
14416W        W15280  15.467  13.106  19.198
14417W        W15281  15.819  14.015  20.611
14418W        W15282  16.250  11.179  19.746
14419W        W15283  14.481  13.189  18.677
14420W        W15284  16.485  12.280  18.523
14421W        W15285  15.038  12.967  19.548
14422W        W15286  16.161  11.398  21.023
14423W        W15287  17.865  11.300  18.352
14424W        W15288  17.952  12.920  21.449
14425W        W15289  16.653  14.401  21.629
14426W        W15290  18.146  13.270  20.911
14427W        W15291  17.324  14.122  21.644
14428W        W15292  15.435  14.640  20.169
14429W        W15293  18.283  13.169  19.415
14430W        W15294  16.816  12.383  19.805
14431W        W15295  16.563  10.913  19.371
14432W        W15296  15.599  14.073  19.437
14433W        W15297  16.094  11.910  20.507
14434W        W15298  15.840  11.213  20.072
14435W        W15299  14.791  14.178  18.686
14436W        W15300  16.322  13.298  19.521
14437W        W15301  15.593  14.178  21.037
14438W        W15302  14.800  13.004  19.061
14439W        W15303  14.842  11.550  20.068
14440W        W15304  16.432  13.454  20.025
14441W        W15305  14.592  11.297  19.099
14442W        W15306  17.359  12.675  20.682
14443W        W15307  17.072  11.845  18.383
14444W        W15308  17.711  13.530  20.159
14445W        W15309  16.416  13.955  20.000
14446W        W15310  15.790  14.333  19.003
14447W        W15311  16.950  11.013  18.219
14448W        W15312  15.013  14.324  20.322
14449W        W15313  16.916  12.080  21.589
14450W        W15314  15.122  11.637  21.567
14451W        W15315  14.680  12.101  19.324
14452W        W15316  16.014  12.359  18.742
14453W        W15317  17.063  12.527  21.798
14454W        W15318  15.679  12.934  20.379
14455W        W15319  17.080  10.957  19.545
14456W        W15320  16.223  14.435  19.913
14457W        W15321  17.472  13.981  20.697
14458W        W15322  17.057  14.124  19.852
14459W        W15323  16.834  13.211  19.533
14460W        W15324  16.380  11.395  18.725
14461W        W15325  18.278  11.075  19.535
14462W        W15326  15.600  12.637  18.027
14463W        W15327  18.008  11.850  19.500
14464W        W15328  16.469  13.266  18.575
14465W        W15329  17.698  13.303  21.160
14466W        W15330  17.251  14.096  18.357
14467W        W15331  16.016  11.695  21.464
14468W        W15332  15.938  12.384  20.719
14469W        W15333  17.804  13.825  21.082
14470W        W15334  16.928  11.701  21.184
14471W        W15335  14.610  12.195  21.200
14472W        W15336  16.524  12.746  20.757
14473W        W15337  14.890  13.420  19.771
14474W        W15338  14.993  12.509  20.360
14475W        W15339  17.301  13.178  20.826
14476W        W15340  17.096  14.512  21.329
14477W        W15341  16.785  12.196  21.096
14478W        W15342  17.514  14.276  19.569
14479W        W15343  16.249  14.075  20.903
14480W        W15344  15.713  14.208  20.160
14481W        W15345  17.717  13.510  20.687
14482W        W15346  16.471  13.593  21.778
14483W        W15347  15.217  13.413  20.140
14484W        W15348  17.541  13.163  19.814
14485W        W15349  17.160  14.197  20.354
14486W        W15350  15.341  13.931  20.392
14487W        W15351  16.412  12.072  21.454
14488W        W15352  16.438  14.083  19.024
14489W        W15353  15.955  13.457  21.648
14490W        W15354  15.975  13.851  19.119
14491W        W15355  15.290  12.169  17.971
14492W        W15356  14.759  14.473  25.398
14493W        W15357  15.097  13.409  24.939
14494W        W15358  17.780  13.124  23.130
14495W        W15359  18.091  14.260  24.746
14496W        W15360  15.660  14.375  21.875
14497W        W15361  15.847  12.384  23.194
14498W        W15362  15.516  12.209  23.546
14499W        W15363  16.272  13.016  22.818
14500W        W15364  16.170  14.144  24.865
14501W        W15365  14.640  11.703  24.979
14502W        W15366  15.260  10.886  24.866
14503W        W15367  17.159  11.456  23.584
14504W        W15368  16.898  12.449  22.282
14505W        W15369  17.334  11.873  25.194
14506W        W15370  14.732  11.396  24.542
14507W        W15371  14.956  14.027  25.515
14508W        W15372  16.115  13.648  22.146
14509W        W15373  14.684  12.136  23.996
14510W        W15374  15.738  12.185  25.179
14511W        W15375  17.908  11.814  23.883
14512W        W15376  17.789  13.104  24.477
14513W        W15377  16.264  12.488  23.647
14514W        W15378  16.883  13.735  24.057
14515W        W15379  15.170  13.042  24.193
14516W        W15380  14.483  12.623  23.939
14517W        W15381  15.697  12.604  24.893
14518W        W15382  17.929  12.438  25.060
14519W        W15383  15.477  13.820  23.671
14520W        W15384  16.549  13.669  24.699
14521W        W15385  15.921  12.177  23.976
14522W        W15386  16.114  13.012  23.740
14523W        W15387  16.930  13.835  25.429
14524W        W15388  16.290  12.990  25.476
14525W        W15389  16.273  12.863  24.967
14526W        W15390  14.410  12.001  25.346
14527W        W15391  17.306  13.611  25.114
14528W        W15392  15.029  11.174  23.095
14529W        W15393  15.569  13.534  24.265
14530W        W15394  17.903  13.414  23.537
14531W        W15395  17.368  11.727  24.027
14532W        W15396  17.600  11.724  21.878
14533W        W15397  18.346  12.543  24.292
14534W        W15398  16.096  14.316  24.028
14535W        W15399  17.862  13.834  22.557
14536W        W15400  15.023  14.529  22.659
14537W        W15401  15.430  14.524  23.033
14538W        W15402  15.226  11.257  24.514
14539W        W15403  17.856  12.326  24.533
14540W        W15404  17.038  12.757  23.328
14541W        W15405  17.392  12.519  22.202
14542W        W15406  16.431  13.547  24.206
14543W        W15407  16.394  11.738  23.391
14544W        W15408  16.860  14.059  24.444
14545W        W15409  17.529  12.663  23.250
14546W        W15410  16.770  11.360  22.766
14547W        W15411  15.271  14.091  22.807
14548W        W15412  14.690  11.549  23.211
14549W        W15413  17.277  12.247  23.558
14550W        W15414  14.941  13.884  23.750
14551W        W15415  15.970  14.161  22.211
14552W        W15416  17.494  12.224  21.771
14553W        W15417  14.754  13.936  24.274
14554W        W15418  15.542  13.613  24.773
14555W        W15419  15.741  13.067  23.368
14556W        W15420  15.552  11.443  24.169
14557W        W15421  18.147  11.137  23.800
14558W        W15422  15.484  13.252  21.753
14559W        W15423  15.002  11.717  22.067
14560W        W15424  15.127  13.887  23.278
14561W        W15425  15.830  13.584  23.375
14562W        W15426  17.649  14.205  25.019
14563W        W15427  16.724  11.976  22.305
14564W        W15428  17.939  14.447  23.556
14565W        W15429  17.462  12.304  24.918
14566W        W15430  18.298  13.724  23.462
14567W        W15431  16.784  13.066  24.743
14568W        W15432  14.592  12.698  23.095
14569W        W15433  15.505  13.131  24.559
14570W        W15434  16.654  12.268  22.714
14571W        W15435  16.601  12.654  23.061
14572W        W15436  15.031  12.189  24.395
14573W        W15437  14.990  12.092  25.115
14574W        W15438  14.959  11.073  23.604
14575W        W15439  16.675  11.535  23.791
14576W        W15440  16.435  11.539  25.108
14577W        W15441  16.804  11.491  22.184
14578W        W15442  18.099  14.131  25.265
14579W        W15443  16.873  11.113  25.002
14580W        W15444  17.735  13.772  25.344
14581W        W15445  17.433  11.633  24.746
14582W        W15446  17.181  11.678  23.093
14583W        W15447  17.594  12.756  25.354
14584W        W15448  15.269  14.308  23.553
14585W        W15449  16.345  11.766  22.573
14586W        W15450  15.540  11.273  25.096
14587W        W15451  17.554  11.790  22.745
14588W        W15452  17.851  12.207  22.754
14589W        W15453  15.895  14.375  25.272
14590W        W15454  15.511  11.012  22.515
14591W        W15455  18.006  11.502  23.479
14592W        W15456  18.062  14.157  22.153
14593W        W15457  14.834  13.012  23.808
14594W        W15458  16.956  11.592  21.709
14595W        W15459  18.117  13.911  23.915
14596W        W15460  18.038  10.958  24.617
14597W        W15461  16.615  12.459  25.042
14598W        W15462  16.236  13.522  22.633
14599W        W15463  17.158  12.825  25.593
14600W        W15464  16.776  11.039  23.642
14601W        W15465  15.167  12.029  23.865
14602W        W15466  14.987  13.000  24.669
14603W        W15467  16.947  14.200  23.832
14604W        W15468  17.745  11.813  24.374
14605W        W15469  16.711  14.512  24.652
14606W        W15470  17.693  12.924  22.078
14607W        W15471  16.149  12.784  23.260
14608W        W15472  18.400  11.030  24.987
14609W        W15473  16.329  13.209  24.587
14610W        W15474  16.447  12.051  23.816
14611W        W15475  17.196  12.190  22.622
14612W        W15476  17.610  12.055  22.296
14613W        W15477  17.673  14.077  22.992
14614W        W15478  17.236  13.417  23.873
14615W        W15479  17.003  12.674  22.751
14616W        W15480  16.576  12.901  23.521
14617W        W15481  17.564  12.620  23.770
14618W        W15482  14.961  11.704  24.194
14619W        W15483  17.628  12.794  24.849
14620W        W15484  18.141  14.406  24.051
14621W        W15485  15.969  14.019  23.615
14622W        W15486  17.218  14.374  24.738
14623W        W15487  16.963  11.717  24.406
14624W        W15488  16.231  14.553  24.478
14625W        W15489  17.893  11.405  22.870
14626W        W15490  17.863  12.702  24.188
14627W        W15491  14.554  11.904  24.456
14628W        W15492  17.537  11.803  23.514
14629W        W15493  17.846  11.947  24.872
14630W        W15494  16.826  13.759  23.543
14631W        W15495  16.085  14.284  23.156
14632W        W15496  15.055  11.276  22.396
14633W        W15497  16.357  11.136  23.996
14634W        W15498  15.147  14.536  22.148
14635W        W15499  15.782  12.808  22.904
14636W        W15500  16.328  13.348  25.090
14637W        W15501  16.302  11.422  22.983
14638W        W15502  17.561  11.340  23.263
14639W        W15503  17.286  14.607  23.794
14640W        W15504  16.585  14.399  24.129
14641W        W15505  16.007  13.261  24.199
14642W        W15506  17.825  14.011  24.349
14643W        W15507  15.472  11.364  22.902
14644W        W15508  15.956  13.811  24.082
14645W        W15509  15.604  11.623  21.799
14646W        W15510  16.292  12.200  24.339
14647W        W15511  17.086  11.263  24.055
14648W        W15512  14.660  12.980  24.293
14649W        W15513  16.181  12.700  22.062
14650W        W15514  15.528  11.102  21.957
14651W        W15515  16.445  12.217  23.243
14652W        W15516  17.114  11.265  24.578
14653W        W15517  15.887  13.232  24.873
14654W        W15518  16.750  12.939  25.245
14655W        W15519  17.233  13.071  25.106
14656W        W15520  16.502  11.177  25.490
14657W        W15521  15.654  11.772  23.790
14658W        W15522  15.187  11.664  23.298
14659W        W15523  14.945  14.353  23.146
14660W        W15524  16.472  13.830  25.179
14661W        W15525  15.758  13.780  22.509
14662W        W15526  16.977  12.908  23.836
14663W        W15527  17.140  12.442  24.017
14664W        W15528  16.473  13.007  24.124
14665W        W15529  17.229  13.587  21.825
14666W        W15530  16.750  11.409  23.278
14667W        W15531  18.145  11.785  22.634
14668W        W15532  14.918  14.234  24.976
14669W        W15533  15.044  13.499  24.419
14670W        W15534  14.516  14.426  22.692
14671W        W15535  16.481  11.729  24.235
14672W        W15536  15.464  14.180  22.329
14673W        W15537  17.838  14.369  22.572
14674W        W15538  16.517  12.715  22.486
14675W        W15539  16.101  11.925  23.000
14676W        W15540  16.506  11.790  21.876
14677W        W15541  16.828  13.441  25.090
14678W        W15542  17.373  11.304  22.761
14679W        W15543  14.656  10.959  22.265
14680W        W15544  16.029  13.649  24.571
14681W        W15545  15.693  13.339  23.804
14682W        W15546  15.637  13.784  21.983
14683W        W15547  14.761  13.979  22.848
14684W        W15548  15.305  12.508  25.228
14685W        W15549  16.029  11.211  25.302
14686W        W15550  16.569  11.376  24.627
14687W        W15551  15.891  11.102  23.090
14688W        W15552  17.008  11.077  22.417
14689W        W15553  14.922  11.199  24.104
14690W        W15554  14.784  11.987  23.505
14691W        W15555  17.638  11.341  23.804
14692W        W15556  15.002  11.598  22.795
14693W        W15557  17.569  11.308  24.326
14694W        W15558  17.881  12.517  22.348
14695W        W15559  15.215  11.503  23.787
14696W        W15560  16.509  11.923  24.738
14697W        W15561  14.575  11.486  22.293
14698W        W15562  15.370  12.975  25.018
14699W        W15563  16.605  12.515  24.041
14700W        W15564  16.427  14.556  22.228
14701W        W15565  14.651  12.782  21.865
14702W        W15566  15.573  13.395  25.250
14703W        W15567  14.986  12.511  24.809
14704W        W15568  15.961  12.848  24.539
14705W        W15569  17.545  11.081  24.804
14706W        W15570  18.152  12.770  24.715
14707W        W15571  17.822  12.983  22.623
14708W        W15572  16.739  13.134  23.033
14709W        W15573  17.236  14.630  21.809
14710W        W15574  16.651  12.528  25.562
14711W        W15575  15.154  13.514  25.518
14712W        W15576  18.299  11.308  25.401
14713W        W15577  17.614  12.211  24.065
14714W        W15578  16.365  14.448  25.508
14715W        W15579  15.975  11.061  22.214
14716W        W15580  17.551  13.407  22.212
14717W        W15581  15.388  11.780  25.093
14718W        W15582  15.959  13.717  25.083
14719W        W15583  17.921  11.445  24.705
14720W        W15584  17.502  14.694  22.272
14721W        W15585  17.403  12.985  24.111
14722W        W15586  15.581  11.591  24.663
14723W        W15587  16.148  12.516  25.320
14724W        W15588  15.479  13.648  22.968
14725W        W15589  17.289  13.055  22.988
14726W        W15590  15.074  11.770  24.689
14727W        W15591  16.340  13.811  23.340
14728W        W15592  17.844  12.291  23.406
14729W        W15593  16.367  11.025  24.986
14730W        W15594  17.310  13.989  24.187
14731W        W15595  17.656  14.220  23.899
14732W        W15596  16.453  14.061  22.046
14733W        W15597  14.743  13.628  25.253
14734W        W15598  15.474  11.948  24.284
14735W        W15599  15.446  11.226  23.412
14736W        W15600  16.924  11.985  23.968
14737W        W15601  15.905  13.170  22.074
14738W        W15602  17.865  13.160  23.966
14739W        W15603  15.228  13.850  25.126
14740W        W15604  17.820  14.582  23.074
14741W        W15605  15.878  11.563  23.337
14742W        W15606  15.338  12.957  23.705
14743W        W15607  15.783  14.661  24.244
14744W        W15608  17.895  14.612  25.276
14745W        W15609  16.940  12.763  24.350
14746W        W15610  14.793  12.021  21.652
14747W        W15611  18.160  14.145  23.156
14748W        W15612  17.768  11.549  22.353
14749W        W15613  15.754  10.957  24.716
14750W        W15614  17.812  13.934  23.487
14751W        W15615  17.458  12.161  23.085
14752W        W15616  16.015  12.037  23.510
14753W        W15617  16.158  12.385  24.813
14754W        W15618  17.047  13.540  24.632
14755W        W15619  15.940  11.936  24.767
14756W        W15620  15.769  14.481  23.520
14757W        W15621  15.356  14.329  25.307
14758W        W15622  15.227  14.110  21.867
14759W        W15623  17.949  13.648  23.071
14760W        W15624  15.408  12.181  24.766
14761W        W15625  18.058  11.911  22.047
14762W        W15626  15.867  13.317  22.933
14763W        W15627  17.074  12.644  24.844
14764W        W15628  16.814  12.246  24.422
14765W        W15629  15.359  12.641  24.484
14766W        W15630  17.581  14.460  24.359
14767W        W15631  17.306  11.345  25.181
14768W        W15632  15.016  11.342  24.983
14769W        W15633  15.466  12.418  24.031
14770W        W15634  16.075  12.078  21.847
14771W        W15635  14.750  13.776  24.771
14772W        W15636  16.105  12.637  24.108
14773W        W15637  16.068  11.560  22.069
14774W        W15638  15.409  12.671  23.281
14775W        W15639  14.887  14.479  24.496
14776W        W15640  17.511  12.589  22.739
14777W        W15641  17.788  11.544  25.180
14778W        W15642  17.471  13.535  23.287
14779W        W15643  14.731  12.519  25.264
14780W        W15644  17.963  11.074  22.438
14781W        W15645  17.582  13.430  22.756
14782W        W15646  16.189  12.465  22.822
14783W        W15647  17.318  11.398  22.153
14784W        W15648  17.313  12.080  24.469
14785W        W15649  14.903  12.536  23.568
14786W        W15650  15.348  13.398  23.404
14787W        W15651  16.966  12.277  23.116
14788W        W15652  16.156  11.634  23.833
14789W        W15653  18.023  13.544  24.317
14790W        W15654  18.073  11.431  24.209
14791W        W15655  14.667  14.295  23.575
14792W        W15656  14.966  13.495  23.009
14793W        W15657  15.132  11.166  25.449
14794W        W15658  16.117  13.961  25.523
14795W        W15659  17.947  12.846  23.524
14796W        W15660  17.320  12.983  22.448
14797W        W15661  16.715  14.880  24.240
14798W        W15662  17.593  13.272  25.424
14799W        W15663  16.202  10.939  22.709
14800W        W15664  16.879  11.898  23.461
14801W        W15665  14.693  13.471  24.000
14802W        W15666  15.927  11.379  22.625
14803W        W15667  15.819  12.923  25.279
14804W        W15668  16.688  11.829  22.970
14805W        W15669  16.911  13.254  24.242
14806W        W15670  15.197  13.977  24.632
14807W        W15671  15.623  13.870  25.445
14808W        W15672  15.529  11.486  22.300
14809W        W15673  17.097  11.694  22.545
14810W        W15674  16.952  13.938  24.926
14811W        W15675  15.774  12.636  23.667
14812W        W15676  15.374  14.378  24.373
14813W        W15677  17.738  14.378  21.813
14814W        W15678  14.876  13.005  25.178
14815W        W15679  16.665  13.338  23.786
14816W        W15680  15.367  13.124  22.976
14817W        W15681  15.833  14.151  24.449
14818W        W15682  16.279  11.258  23.484
14819W        W15683  14.434  13.263  22.471
14820W        W15684  16.563  12.317  21.899
14821W        W15685  14.987  12.988  23.305
14822W        W15686  16.049  11.396  24.782
14823W        W15687  17.848  11.278  21.910
14824W        W15688  18.018  12.970  25.168
14825W        W15689  16.666  14.298  25.126
14826W        W15690  18.184  13.319  24.771
14827W        W15691  17.621  14.228  25.545
14828W        W15692  15.370  14.663  23.928
14829W        W15693  18.347  13.181  23.427
14830W        W15694  16.784  12.400  23.590
14831W        W15695  16.525  10.953  23.141
14832W        W15696  15.611  14.075  23.229
14833W        W15697  15.957  11.758  24.291
14834W        W15698  15.830  11.257  23.761
14835W        W15699  14.811  14.158  22.347
14836W        W15700  16.266  13.282  23.288
14837W        W15701  15.627  14.104  24.921
14838W        W15702  14.828  13.050  22.789
14839W        W15703  14.708  11.546  23.753
14840W        W15704  16.185  13.518  23.744
14841W        W15705  14.622  11.227  22.761
14842W        W15706  17.416  12.582  24.436
14843W        W15707  17.158  11.938  22.052
14844W        W15708  17.683  13.668  23.930
14845W        W15709  16.444  13.956  23.865
14846W        W15710  15.772  14.263  22.737
14847W        W15711  16.975  11.099  21.899
14848W        W15712  14.993  14.329  23.997
14849W        W15713  16.732  12.039  25.362
14850W        W15714  14.966  11.668  25.406
14851W        W15715  14.711  12.186  23.036
14852W        W15716  16.289  12.253  22.334
14853W        W15717  17.112  12.394  25.314
14854W        W15718  15.659  12.897  24.109
14855W        W15719  17.121  11.073  23.183
14856W        W15720  16.344  14.409  23.598
14857W        W15721  17.420  13.894  24.681
14858W        W15722  17.317  13.889  23.656
14859W        W15723  17.028  13.268  23.429
14860W        W15724  16.395  11.292  22.395
14861W        W15725  18.195  11.095  23.200
14862W        W15726  15.720  12.453  21.751
14863W        W15727  17.877  11.851  23.134
14864W        W15728  16.390  13.176  22.249
14865W        W15729  17.676  13.315  24.920
14866W        W15730  17.584  13.934  22.079
14867W        W15731  15.876  11.675  25.212
14868W        W15732  15.793  12.346  24.444
14869W        W15733  17.907  13.774  24.826
14870W        W15734  16.931  11.622  24.912
14871W        W15735  14.570  12.209  24.858
14872W        W15736  16.470  12.673  24.527
14873W        W15737  14.866  13.437  23.519
14874W        W15738  14.980  12.584  24.079
14875W        W15739  17.280  13.077  24.598
14876W        W15740  17.191  14.273  25.246
14877W        W15741  16.981  12.123  24.889
14878W        W15742  17.467  14.333  23.401
14879W        W15743  16.341  14.030  24.386
14880W        W15744  15.615  14.220  23.949
14881W        W15745  17.474  13.490  24.350
14882W        W15746  16.558  13.441  25.537
14883W        W15747  15.199  13.449  23.903
14884W        W15748  17.485  13.083  23.570
14885W        W15749  17.077  14.493  24.251
14886W        W15750  15.261  13.911  24.139
14887W        W15751  16.249  12.027  25.189
14888W        W15752  16.259  14.079  22.616
14889W        W15753  16.023  13.440  25.540
14890W        W15754  15.978  13.826  22.964
14891W        W15755  15.323  12.096  21.689
14892W        W15756  14.782  14.504  28.857
14893W        W15757  15.138  13.594  28.463
14894W        W15758  17.890  13.119  26.227
14895W        W15759  18.020  14.182  28.206
14896W        W15760  15.729  14.259  25.768
14897W        W15761  15.828  12.344  26.589
14898W        W15762  15.249  12.195  26.822
14899W        W15763  16.316  12.825  26.362
14900W        W15764  16.150  14.345  28.361
14901W        W15765  14.899  11.767  28.478
14902W        W15766  15.372  11.111  28.248
14903W        W15767  17.159  11.515  27.169
14904W        W15768  16.704  12.052  25.917
14905W        W15769  17.309  11.599  28.810
14906W        W15770  14.898  11.365  28.092
14907W        W15771  14.942  13.931  28.912
14908W        W15772  16.277  13.164  25.963
14909W        W15773  14.754  12.138  27.524
14910W        W15774  15.674  12.286  28.792
14911W        W15775  18.033  11.878  27.330
14912W        W15776  17.901  12.969  28.032
14913W        W15777  16.011  12.340  27.069
14914W        W15778  16.827  13.863  27.644
14915W        W15779  15.187  13.068  27.792
14916W        W15780  14.514  12.601  27.459
14917W        W15781  15.810  12.629  28.418
14918W        W15782  18.001  12.420  28.712
14919W        W15783  15.506  13.891  27.190
14920W        W15784  16.672  13.642  28.117
14921W        W15785  15.979  12.043  27.494
14922W        W15786  16.019  12.985  27.230
14923W        W15787  17.021  13.873   0.124
14924W        W15788  16.121  13.068  28.834
14925W        W15789  16.304  12.863  28.400
14926W        W15790  14.697  12.002  28.890
14927W        W15791  17.350  13.713  28.762
14928W        W15792  15.035  11.230  26.687
14929W        W15793  15.767  13.728  27.668
14930W        W15794  18.156  13.433  27.152
14931W        W15795  17.345  11.877  27.553
14932W        W15796  17.663  11.793  25.605
14933W        W15797  18.230  12.521  27.986
14934W        W15798  16.179  14.331  27.624
14935W        W15799  18.066  13.654  26.282
14936W        W15800  15.083  14.603  26.253
14937W        W15801  15.518  14.534  26.577
14938W        W15802  15.482  11.318  27.791
14939W        W15803  17.969  12.165  28.251
14940W        W15804  17.260  12.642  26.780
14941W        W15805  17.092  12.389  25.853
14942W        W15806  16.699  13.366  27.665
14943W        W15807  16.169  11.814  27.059
14944W        W15808  16.970  14.091  28.073
14945W        W15809  17.638  12.682  26.386
14946W        W15810  16.690  11.225  26.355
14947W        W15811  15.308  14.156  26.282
14948W        W15812  14.710  11.610  26.706
14949W        W15813  17.297  12.290  27.206
14950W        W15814  14.997  13.863  27.231
14951W        W15815  16.238  14.186  25.958
14952W        W15816  17.595  12.263  25.455
14953W        W15817  14.785  13.920  27.835
14954W        W15818  15.588  13.742  28.175
14955W        W15819  16.016  12.775  26.770
14956W        W15820  16.019  11.342  27.822
14957W        W15821  18.106  11.068  27.421
14958W        W15822  15.354  13.005  25.538
14959W        W15823  15.086  11.793  25.903
14960W        W15824  15.120  13.816  26.731
14961W        W15825  15.996  13.283  26.779
14962W        W15826  17.610  14.107  28.535
14963W        W15827  16.578  11.750  26.315
14964W        W15828  17.849  14.522  27.058
14965W        W15829  17.523  12.362  28.451
14966W        W15830  18.260  13.772  26.781
14967W        W15831  16.804  13.027  28.248
14968W        W15832  14.518  12.733  26.588
14969W        W15833  15.623  13.290  27.935
14970W        W15834  16.789  12.216  26.417
14971W        W15835  16.775  12.701  26.584
14972W        W15836  15.173  12.178  27.839
14973W        W15837  15.184  12.111  28.795
14974W        W15838  14.980  11.021  27.137
14975W        W15839  16.837  11.575  27.588
14976W        W15840  16.415  11.512  28.804
14977W        W15841  16.836  11.529  25.911
14978W        W15842  18.060  13.945  28.713
14979W        W15843  16.883  11.175  28.702
14980W        W15844  17.811  13.520  28.825
14981W        W15845  17.588  11.817  28.383
14982W        W15846  16.937  11.556  26.682
14983W        W15847  17.579  12.598  28.945
14984W        W15848  15.190  14.302  26.951
14985W        W15849  16.144  11.833  26.035
14986W        W15850  15.517  11.262  28.745
14987W        W15851  17.545  11.838  26.533
14988W        W15852  17.849  12.206  26.341
14989W        W15853  15.768  14.408  28.765
14990W        W15854  15.670  11.034  26.117
14991W        W15855  17.941  11.459  27.039
14992W        W15856  18.080  13.934  25.752
14993W        W15857  14.845  12.991  27.301
14994W        W15858  16.877  11.539  25.404
14995W        W15859  18.144  13.861  27.442
14996W        W15860  18.051  11.173  27.933
14997W        W15861  16.618  12.159  28.745
14998W        W15862  16.336  13.412  26.416
14999W        W15863  17.130  12.828   0.093
15000W        W15864  16.907  11.052  27.548
15001W        W15865  15.214  12.019  27.321
15002W        W15866  14.855  13.228  28.216
15003W        W15867  16.946  14.330  27.184
15004W        W15868  17.795  11.884  27.853
15005W        W15869  16.673  14.361  28.401
15006W        W15870  17.917  13.004  25.715
15007W        W15871  16.370  12.392  26.704
15008W        W15872  18.164  11.093  28.428
15009W        W15873  16.375  13.198  28.021
15010W        W15874  16.449  12.172  27.289
15011W        W15875  17.292  12.308  26.385
15012W        W15876  17.489  12.100  25.976
15013W        W15877  17.715  13.978  26.535
15014W        W15878  17.229  13.318  27.490
15015W        W15879  17.157  12.781  26.203
15016W        W15880  16.414  12.674  27.133
15017W        W15881  17.667  12.649  27.159
15018W        W15882  15.005  11.692  27.662
15019W        W15883  17.706  12.836  28.498
15020W        W15884  18.094  14.310  27.695
15021W        W15885  16.015  13.986  27.252
15022W        W15886  17.211  14.406  28.417
15023W        W15887  17.102  11.674  28.041
15024W        W15888  16.385  14.650  28.013
15025W        W15889  17.970  11.510  26.531
15026W        W15890  17.690  12.512  27.975
15027W        W15891  14.738  11.930  28.015
15028W        W15892  17.563  11.842  27.076
15029W        W15893  18.006  11.898  28.681
15030W        W15894  16.832  13.573  27.204
15031W        W15895  16.076  14.175  26.748
15032W        W15896  15.274  11.318  25.930
15033W        W15897  16.395  11.106  27.548
15034W        W15898  15.231  14.421  25.789
15035W        W15899  15.825  12.742  26.243
15036W        W15900  16.434  13.363  28.490
15037W        W15901  16.339  11.473  26.668
15038W        W15902  17.496  11.377  26.789
15039W        W15903  17.403  14.614  27.304
15040W        W15904  16.679  14.361  27.646
15041W        W15905  16.038  13.279  27.655
15042W        W15906  17.840  13.855  27.839
15043W        W15907  15.451  11.389  26.444
15044W        W15908  16.300  13.742  27.656
15045W        W15909  15.467  11.585  25.546
15046W        W15910  16.386  12.197  27.805
15047W        W15911  17.293  11.369  27.653
15048W        W15912  14.697  12.944  27.817
15049W        W15913  16.203  12.656  25.863
15050W        W15914  15.614  11.099  25.589
15051W        W15915  16.121  11.923  26.551
15052W        W15916  17.252  11.319  28.382
15053W        W15917  15.919  13.190  28.348
15054W        W15918  16.670  13.033  28.806
15055W        W15919  17.173  12.912  28.588
15056W        W15920  16.526  11.087   0.071
15057W        W15921  15.833  11.553  27.369
15058W        W15922  15.242  11.673  26.876
15059W        W15923  14.852  14.222  26.539
15060W        W15924  16.421  13.907  28.518
15061W        W15925  15.401  13.051  26.119
15062W        W15926  17.195  12.807  27.271
15063W        W15927  17.254  12.485  27.684
15064W        W15928  16.413  12.922  27.597
15065W        W15929  17.079  13.331  25.532
15066W        W15930  16.618  11.537  27.120
15067W        W15931  18.259  11.882  26.297
15068W        W15932  14.823  14.192  28.470
15069W        W15933  15.155  13.550  27.957
15070W        W15934  14.486  14.492  26.262
15071W        W15935  16.574  11.715  28.002
15072W        W15936  15.847  13.813  25.979
15073W        W15937  17.998  14.236  26.189
15074W        W15938  16.683  12.598  26.078
15075W        W15939  15.587  11.901  26.527
15076W        W15940  16.406  11.694  25.601
15077W        W15941  16.966  13.438  28.505
15078W        W15942  17.439  11.404  26.256
15079W        W15943  14.757  11.144  25.842
15080W        W15944  16.123  13.632  28.151
15081W        W15945  15.854  13.496  27.220
15082W        W15946  15.568  13.435  25.797
15083W        W15947  14.948  13.761  26.247
15084W        W15948  15.295  12.612  28.615
15085W        W15949  16.030  11.170  28.892
15086W        W15950  16.752  11.188  28.183
15087W        W15951  15.916  11.081  26.683
15088W        W15952  17.081  11.083  26.029
15089W        W15953  14.963  11.177  27.624
15090W        W15954  14.788  11.994  27.027
15091W        W15955  17.774  11.467  27.527
15092W        W15956  15.079  11.872  26.429
15093W        W15957  17.618  11.428  28.039
15094W        W15958  18.042  12.545  25.546
15095W        W15959  15.328  11.488  27.341
15096W        W15960  16.332  11.879  28.434
15097W        W15961  14.587  11.669  25.772
15098W        W15962  15.347  13.118  28.330
15099W        W15963  16.763  12.528  27.497
15100W        W15964  16.592  14.610  25.959
15101W        W15965  14.694  12.947  25.657
15102W        W15966  15.629  13.506  28.632
15103W        W15967  15.021  12.735  28.181
15104W        W15968  16.007  12.827  27.965
15105W        W15969  17.641  10.972  28.293
15106W        W15970  18.243  12.787  28.431
15107W        W15971  18.060  12.633  26.079
15108W        W15972  16.740  13.110  26.278
15109W        W15973  17.454  14.726  25.560
15110W        W15974  16.685  12.565   0.075
15111W        W15975  15.214  13.360  28.914
15112W        W15976  18.215  11.438  28.815
15113W        W15977  17.726  12.270  27.510
15114W        W15978  16.283  14.368  28.864
15115W        W15979  16.079  10.995  25.776
15116W        W15980  17.826  13.493  25.836
15117W        W15981  15.429  11.738  28.567
15118W        W15982  15.902  13.943  28.528
15119W        W15983  18.065  11.616  28.248
15120W        W15984  17.562  14.497  26.016
15121W        W15985  17.567  12.900  27.624
15122W        W15986  15.719  11.526  28.201
15123W        W15987  16.212  12.538  28.807
15124W        W15988  15.465  13.657  26.295
15125W        W15989  17.539  13.095  26.671
15126W        W15990  15.254  11.734  28.099
15127W        W15991  16.279  13.709  26.884
15128W        W15992  18.083  12.347  27.114
15129W        W15993  16.405  11.024  28.566
15130W        W15994  17.326  13.787  27.753
15131W        W15995  17.648  14.160  27.464
15132W        W15996  16.330  13.672  25.940
15133W        W15997  14.720  13.450  28.743
15134W        W15998  15.556  11.844  27.701
15135W        W15999  15.475  11.189  26.965
15136W        W16000  16.901  12.085  27.752
15137W        W16001  15.825  12.995  25.785
15138W        W16002  17.974  13.214  27.565
15139W        W16003  15.403  13.978  28.659
15140W        W16004  17.713  14.546  26.541
15141W        W16005  15.809  11.552  26.818
15142W        W16006  15.524  13.105  27.114
15143W        W16007  15.823  14.572  27.926
15144W        W16008  17.875  14.496  28.736
15145W        W16009  16.972  12.926  27.752
15146W        W16010  14.807  12.143  25.628
15147W        W16011  18.118  14.268  26.683
15148W        W16012  17.805  11.722  26.093
15149W        W16013  15.877  11.082  28.414
15150W        W16014  17.859  13.987  27.036
15151W        W16015  17.627  12.290  26.796
15152W        W16016  15.656  11.970  27.073
15153W        W16017  16.245  12.364  28.296
15154W        W16018  17.307  13.761  28.262
15155W        W16019  15.847  12.027  28.390
15156W        W16020  15.714  14.370  27.058
15157W        W16021  15.249  14.455  28.637
15158W        W16022  15.320  13.898  25.852
15159W        W16023  17.782  13.536  26.807
15160W        W16024  15.384  12.216  28.305
15161W        W16025  17.975  12.147  25.848
15162W        W16026  15.852  13.289  26.235
15163W        W16027  16.709  12.601  28.527
15164W        W16028  16.720  12.161  28.228
15165W        W16029  15.486  12.663  28.000
15166W        W16030  17.654  14.581  27.759
15167W        W16031  17.400  11.055  28.820
15168W        W16032  15.017  11.269  28.583
15169W        W16033  15.561  12.374  27.499
15170W        W16034  15.823  11.968  25.634
15171W        W16035  14.666  13.720  28.289
15172W        W16036  16.074  12.547  27.533
15173W        W16037  15.935  11.479  25.733
15174W        W16038  15.371  12.576  26.482
15175W        W16039  14.832  14.438  28.016
15176W        W16040  17.581  12.604  25.863
15177W        W16041  17.747  11.375  28.598
15178W        W16042  17.306  13.490  26.993
15179W        W16043  14.863  12.516  28.909
15180W        W16044  18.048  11.276  26.083
15181W        W16045  17.567  13.507  26.317
15182W        W16046  16.306  12.283  26.213
15183W        W16047  17.326  11.421  25.719
15184W        W16048  17.361  12.114  28.023
15185W        W16049  14.925  12.484  27.121
15186W        W16050  15.541  13.525  26.804
15187W        W16051  17.136  12.025  26.785
15188W        W16052  16.328  11.663  27.535
15189W        W16053  18.131  13.456  27.985
15190W        W16054  18.219  11.615  27.746
15191W        W16055  14.665  14.243  27.076
15192W        W16056  15.154  13.324  26.521
15193W        W16057  15.153  11.109   0.101
15194W        W16058  16.326  13.912   0.184
15195W        W16059  18.086  12.916  27.037
15196W        W16060  17.451  13.120  25.919
15197W        W16061  16.939  14.610  28.019
15198W        W16062  17.528  13.110  28.935
15199W        W16063  16.183  10.935  26.274
15200W        W16064  16.909  11.956  27.248
15201W        W16065  14.864  13.456  27.542
15202W        W16066  15.953  11.443  26.310
15203W        W16067  15.620  12.998  28.741
15204W        W16068  16.603  11.945  26.811
15205W        W16069  17.101  13.373  27.998
15206W        W16070  15.176  14.036  28.159
15207W        W16071  15.746  13.856   0.023
15208W        W16072  15.596  11.723  26.042
15209W        W16073  17.106  11.838  26.232
15210W        W16074  16.939  13.956  28.585
15211W        W16075  15.561  12.594  26.993
15212W        W16076  15.321  14.442  27.859
15213W        W16077  18.019  14.462  25.744
15214W        W16078  14.920  12.975  28.661
15215W        W16079  16.762  13.051  27.256
15216W        W16080  15.581  13.030  26.610
15217W        W16081  15.935  14.074  27.989
15218W        W16082  16.173  11.271  27.102
15219W        W16083  14.526  13.189  26.258
15220W        W16084  16.277  12.188  25.685
15221W        W16085  15.131  12.884  26.849
15222W        W16086  16.249  11.413  28.279
15223W        W16087  17.839  11.323  25.634
15224W        W16088  18.049  12.966  28.871
15225W        W16089  16.790  14.325  28.919
15226W        W16090  18.016  13.251  28.442
15227W        W16091  17.708  13.971   0.073
15228W        W16092  15.358  14.583  27.364
15229W        W16093  18.175  13.260  26.644
15230W        W16094  16.832  12.399  26.990
15231W        W16095  16.430  10.966  26.734
15232W        W16096  15.579  14.033  26.697
15233W        W16097  16.065  11.829  27.968
15234W        W16098  15.879  11.036  27.444
15235W        W16099  14.830  14.204  25.994
15236W        W16100  16.472  13.077  26.810
15237W        W16101  15.598  14.304  28.293
15238W        W16102  14.951  12.875  26.350
15239W        W16103  14.830  11.510  27.203
15240W        W16104  16.358  13.371  27.263
15241W        W16105  14.860  11.445  26.238
15242W        W16106  17.087  12.528  28.189
15243W        W16107  17.136  11.905  25.667
15244W        W16108  17.674  13.626  27.387
15245W        W16109  16.522  14.024  27.262
15246W        W16110  15.834  14.241  26.284
15247W        W16111  17.003  11.054  25.515
15248W        W16112  14.949  14.305  27.506
15249W        W16113  17.014  11.983   0.014
15250W        W16114  15.087  11.617  28.954
15251W        W16115  14.765  12.273  26.594
15252W        W16116  15.806  12.232  26.081
15253W        W16117  17.116  12.427  28.779
15254W        W16118  15.649  12.902  27.576
15255W        W16119  16.861  11.097  27.022
15256W        W16120  16.247  14.473  27.139
15257W        W16121  17.503  14.181  28.038
15258W        W16122  17.231  13.914  27.276
15259W        W16123  17.016  13.098  26.811
15260W        W16124  16.360  11.360  25.997
15261W        W16125  18.242  11.124  26.778
15262W        W16126  15.721  12.499  25.612
15263W        W16127  17.997  11.943  26.796
15264W        W16128  16.721  13.006  25.768
15265W        W16129  17.485  13.311  28.445
15266W        W16130  17.624  13.944  26.002
15267W        W16131  15.920  11.603  28.670
15268W        W16132  15.850  12.302  27.944
15269W        W16133  17.813  13.698  28.322
15270W        W16134  16.796  11.632  28.478
15271W        W16135  14.872  12.298  28.424
15272W        W16136  16.585  12.636  27.998
15273W        W16137  15.082  13.388  27.046
15274W        W16138  15.059  12.610  27.604
15275W        W16139  17.374  12.939  28.099
15276W        W16140  17.297  14.240  28.906
15277W        W16141  17.133  12.010  28.494
15278W        W16142  17.427  14.260  26.924
15279W        W16143  16.448  14.092  28.016
15280W        W16144  15.684  14.235  27.556
15281W        W16145  17.612  13.384  27.915
15282W        W16146  16.634  13.600  28.897
15283W        W16147  15.382  13.449  27.476
15284W        W16148  17.644  13.158  27.176
15285W        W16149  17.186  14.305  27.652
15286W        W16150  15.284  13.941  27.661
15287W        W16151  16.116  12.028  28.880
15288W        W16152  16.373  13.952  26.393
15289W        W16153  16.116  13.580  28.820
15290W        W16154  15.929  13.728  26.497
15291W        W16155  15.328  12.080  25.522
15292W        W16156  14.659  18.230   3.344
15293W        W16157  14.923  17.244   2.820
15294W        W16158  17.814  16.840   0.722
15295W        W16159  17.913  17.908   2.719
15296W        W16160  15.968  17.869   0.277
15297W        W16161  15.918  15.838   0.913
15298W        W16162  15.521  15.721   1.304
15299W        W16163  16.453  16.658   0.745
15300W        W16164  16.166  17.916   3.059
15301W        W16165  14.673  15.354   2.843
15302W        W16166  15.363  14.526   2.716
15303W        W16167  17.203  15.017   1.631
15304W        W16168  16.876  15.687   0.533
15305W        W16169  17.435  15.441   3.127
15306W        W16170  14.793  14.980   2.474
15307W        W16171  14.853  17.765   3.529
15308W        W16172  16.224  16.849   0.328
15309W        W16173  14.756  15.787   1.941
15310W        W16174  15.801  15.850   3.055
15311W        W16175  17.989  15.585   1.709
15312W        W16176  17.797  16.628   2.469
15313W        W16177  16.328  16.162   1.565
15314W        W16178  16.842  17.433   1.981
15315W        W16179  15.201  16.678   2.249
15316W        W16180  14.564  16.265   1.893
15317W        W16181  15.834  16.409   2.990
15318W        W16182  17.944  16.102   3.127
15319W        W16183  15.487  17.459   1.699
15320W        W16184  16.670  17.284   2.667
15321W        W16185  16.196  15.821   1.915
15322W        W16186  16.030  16.587   1.651
15323W        W16187  16.975  17.718   3.355
15324W        W16188  16.181  16.690   3.386
15325W        W16189  16.379  16.518   2.951
15326W        W16190  14.222  15.615   3.250
15327W        W16191  17.392  17.339   3.179
15328W        W16192  15.052  14.816   0.987
15329W        W16193  15.517  17.297   2.214
15330W        W16194  18.019  16.938   1.585
15331W        W16195  17.676  15.105   1.826
15332W        W16196  17.872  15.419   0.060
15333W        W16197  18.258  16.095   2.414
15334W        W16198  16.218  17.784   2.150
15335W        W16199  17.913  17.342   0.771
15336W        W16200  15.219  18.148   0.570
15337W        W16201  15.487  18.003   1.005
15338W        W16202  15.315  14.924   2.305
15339W        W16203  17.792  16.130   2.619
15340W        W16204  17.280  16.296   1.253
15341W        W16205  17.268  15.984   0.349
15342W        W16206  16.419  17.258   2.200
15343W        W16207  16.527  15.653   1.532
15344W        W16208  16.753  17.729   2.410
15345W        W16209  17.795  16.397   1.022
15346W        W16210  16.690  15.039   0.986
15347W        W16211  15.210  17.642   0.732
15348W        W16212  14.751  15.162   1.191
15349W        W16213  17.503  15.636   1.818
15350W        W16214  14.943  17.453   1.676
15351W        W16215  16.234  17.651   0.670
15352W        W16216  17.550  15.790  28.937
15353W        W16217  14.688  17.525   2.157
15354W        W16218  15.473  17.224   2.767
15355W        W16219  15.801  16.256   1.203
15356W        W16220  15.781  15.082   2.032
15357W        W16221  18.066  14.733   1.803
15358W        W16222  15.290  16.631   0.016
15359W        W16223  15.083  15.588   0.394
15360W        W16224  15.022  17.418   1.164
15361W        W16225  15.854  16.880   1.271
15362W        W16226  17.503  17.824   3.015
15363W        W16227  16.429  15.375   0.672
15364W        W16228  17.791  18.009   1.492
15365W        W16229  17.477  15.952   3.040
15366W        W16230  18.167  17.303   1.232
15367W        W16231  16.809  16.772   2.808
15368W        W16232  14.721  16.228   1.118
15369W        W16233  15.651  16.848   2.423
15370W        W16234  16.994  15.970   0.969
15371W        W16235  16.777  16.431   1.095
15372W        W16236  15.054  15.783   2.381
15373W        W16237  15.083  15.739   2.892
15374W        W16238  14.966  14.788   1.501
15375W        W16239  16.756  15.173   2.000
15376W        W16240  16.478  15.191   3.132
15377W        W16241  17.068  15.130   0.644
15378W        W16242  17.988  17.767   3.265
15379W        W16243  16.935  14.725   3.032
15380W        W16244  17.871  17.226   3.375
15381W        W16245  17.395  15.296   2.633
15382W        W16246  17.126  15.275   1.196
15383W        W16247  17.587  16.295   3.444
15384W        W16248  15.202  17.841   1.422
15385W        W16249  15.956  15.519   0.517
15386W        W16250  15.537  14.899   3.063
15387W        W16251  17.777  15.570   0.938
15388W        W16252  18.062  15.966   0.759
15389W        W16253  15.678  18.165   3.438
15390W        W16254  15.877  14.520   0.700
15391W        W16255  18.073  15.127   1.494
15392W        W16256  18.155  17.489   0.261
15393W        W16257  14.930  16.616   1.784
15394W        W16258  17.040  15.026   0.107
15395W        W16259  18.107  17.433   1.743
15396W        W16260  18.050  14.723   2.333
15397W        W16261  16.677  16.048   2.882
15398W        W16262  16.468  17.173   0.653
15399W        W16263  17.130  16.499   3.543
15400W        W16264  16.640  14.718   1.814
15401W        W16265  15.208  15.653   1.736
15402W        W16266  14.908  16.767   2.676
15403W        W16267  16.751  17.841   1.441
15404W        W16268  17.723  15.392   2.247
15405W        W16269  16.656  18.034   2.834
15406W        W16270  17.948  16.711   0.260
15407W        W16271  16.253  16.514   1.192
15408W        W16272  18.114  14.680   2.862
15409W        W16273  16.370  16.876   2.548
15410W        W16274  16.693  15.676   2.019
15411W        W16275  17.504  16.016   0.858
15412W        W16276  17.724  15.778   0.435
15413W        W16277  17.525  17.643   0.947
15414W        W16278  17.441  17.125   1.681
15415W        W16279  17.123  16.383   0.662
15416W        W16280  16.632  16.586   1.576
15417W        W16281  17.590  16.154   1.680
15418W        W16282  14.941  15.337   2.147
15419W        W16283  17.587  16.453   2.959
15420W        W16284  18.035  17.882   2.006
15421W        W16285  15.956  17.365   1.467
15422W        W16286  17.164  18.037   2.562
15423W        W16287  16.921  15.409   2.435
15424W        W16288  16.220  18.170   2.578
15425W        W16289  18.020  15.094   0.994
15426W        W16290  17.504  16.278   2.174
15427W        W16291  14.546  15.568   2.374
15428W        W16292  17.616  15.342   1.371
15429W        W16293  17.762  15.636   2.720
15430W        W16294  16.795  17.275   1.491
15431W        W16295  15.977  17.765   1.124
15432W        W16296  15.097  14.971   0.504
15433W        W16297  16.373  14.880   2.225
15434W        W16298  15.424  17.799   0.235
15435W        W16299  15.584  16.241   0.685
15436W        W16300  16.392  17.051   3.049
15437W        W16301  16.254  15.285   1.195
15438W        W16302  17.652  14.816   1.386
15439W        W16303  17.113  18.134   1.700
15440W        W16304  16.678  17.931   1.946
15441W        W16305  16.066  16.861   2.119
15442W        W16306  17.938  17.525   2.361
15443W        W16307  15.535  14.887   0.843
15444W        W16308  15.965  17.368   1.975
15445W        W16309  15.712  15.219   0.088
15446W        W16310  16.391  15.870   2.390
15447W        W16311  17.097  14.778   2.071
15448W        W16312  14.673  16.614   2.253
15449W        W16313  16.345  16.331   0.275
15450W        W16314  15.671  14.733   0.273
15451W        W16315  16.431  15.997   1.092
15452W        W16316  17.108  14.893   2.564
15453W        W16317  15.934  16.900   2.859
15454W        W16318  16.713  16.752   3.337
15455W        W16319  17.214  16.820   3.118
15456W        W16320  16.493  14.836   3.512
15457W        W16321  15.722  15.559   1.768
15458W        W16322  15.274  15.237   1.304
15459W        W16323  14.951  18.014   0.990
15460W        W16324  16.534  17.566   3.081
15461W        W16325  15.426  16.747   0.518
15462W        W16326  17.141  16.454   1.742
15463W        W16327  17.135  15.972   1.934
15464W        W16328  16.556  16.710   2.074
15465W        W16329  17.075  16.929  28.961
15466W        W16330  16.691  15.144   1.487
15467W        W16331  18.408  15.388   0.776
15468W        W16332  14.821  18.005   2.886
15469W        W16333  15.024  17.171   2.327
15470W        W16334  14.520  18.044   0.694
15471W        W16335  16.399  15.366   2.338
15472W        W16336  15.942  17.237   0.478
15473W        W16337  17.793  17.808   0.553
15474W        W16338  16.646  16.174   0.650
15475W        W16339  15.746  15.340   1.016
15476W        W16340  16.674  15.372   0.179
15477W        W16341  16.889  17.209   3.132
15478W        W16342  17.515  15.050   0.907
15479W        W16343  14.672  14.727   0.291
15480W        W16344  15.973  17.257   2.484
15481W        W16345  15.701  16.977   1.766
15482W        W16346  15.703  16.946   0.130
15483W        W16347  14.701  17.570   0.772
15484W        W16348  15.391  16.140   2.962
15485W        W16349  16.016  14.790   3.288
15486W        W16350  16.630  15.014   2.656
15487W        W16351  15.964  14.824   1.117
15488W        W16352  16.904  14.618   0.757
15489W        W16353  14.920  14.840   2.003
15490W        W16354  14.932  15.673   1.276
15491W        W16355  17.539  14.600   1.860
15492W        W16356  15.081  15.357   0.850
15493W        W16357  17.559  14.903   2.299
15494W        W16358  18.050  16.156   0.229
15495W        W16359  15.298  15.145   1.803
15496W        W16360  16.584  15.553   2.777
15497W        W16361  14.689  15.251   0.329
15498W        W16362  15.402  16.677   2.836
15499W        W16363  16.670  16.194   1.960
15500W        W16364  16.500  17.933   0.260
15501W        W16365  14.792  16.608   0.193
15502W        W16366  15.577  17.334   3.291
15503W        W16367  15.024  16.267   2.621
15504W        W16368  16.021  16.500   2.517
15505W        W16369  17.558  14.761   2.813
15506W        W16370  18.170  16.449   2.801
15507W        W16371  18.171  16.466   0.657
15508W        W16372  16.924  16.863   0.823
15509W        W16373  17.547  18.109   0.167
15510W        W16374  16.684  16.239   3.364
15511W        W16375  15.189  17.011   3.178
15512W        W16376  18.271  15.166   3.429
15513W        W16377  17.838  15.868   2.174
15514W        W16378  16.185  18.199   3.483
15515W        W16379  16.196  14.683   0.333
15516W        W16380  17.712  17.186   0.316
15517W        W16381  15.516  15.428   2.974
15518W        W16382  16.001  17.413   2.988
15519W        W16383  17.901  15.125   2.641
15520W        W16384  17.326  18.102   0.637
15521W        W16385  17.389  16.792   2.109
15522W        W16386  15.684  15.192   2.559
15523W        W16387  16.170  16.170   3.315
15524W        W16388  15.551  17.122   0.866
15525W        W16389  17.389  16.707   0.964
15526W        W16390  15.160  15.306   2.628
15527W        W16391  16.418  17.488   1.209
15528W        W16392  18.336  15.953   1.546
15529W        W16393  16.425  14.684   3.007
15530W        W16394  17.291  17.291   2.169
15531W        W16395  17.625  17.597   1.929
15532W        W16396  16.969  17.163   0.406
15533W        W16397  14.710  17.278   3.281
15534W        W16398  15.427  15.449   2.194
15535W        W16399  15.437  14.733   1.318
15536W        W16400  17.254  15.275   2.085
15537W        W16401  15.852  16.500   0.313
15538W        W16402  17.829  16.609   1.934
15539W        W16403  15.146  17.623   3.096
15540W        W16404  17.715  18.157   0.980
15541W        W16405  15.759  15.103   1.508
15542W        W16406  15.492  16.540   1.544
15543W        W16407  15.728  18.195   2.427
15544W        W16408  17.763  18.232   3.253
15545W        W16409  17.006  16.458   2.251
15546W        W16410  14.989  16.121   0.322
15547W        W16411  18.036  17.772   1.056
15548W        W16412  17.831  15.267   0.537
15549W        W16413  15.870  14.553   2.859
15550W        W16414  17.701  17.509   1.416
15551W        W16415  17.859  15.947   1.285
15552W        W16416  16.042  15.739   1.401
15553W        W16417  16.173  16.073   2.795
15554W        W16418  17.189  17.183   2.719
15555W        W16419  16.060  15.557   2.714
15556W        W16420  15.725  17.908   1.544
15557W        W16421  15.167  18.123   3.285
15558W        W16422  15.432  17.302   0.402
15559W        W16423  17.710  17.055   1.178
15560W        W16424  15.540  15.769   2.593
15561W        W16425  18.221  15.639   0.383
15562W        W16426  15.927  16.770   0.760
15563W        W16427  17.073  16.341   3.047
15564W        W16428  16.885  15.960   2.400
15565W        W16429  15.518  16.311   2.489
15566W        W16430  17.619  18.035   2.295
15567W        W16431  17.398  14.903   3.298
15568W        W16432  15.019  14.854   2.922
15569W        W16433  15.485  15.946   2.082
15570W        W16434  15.560  15.681   0.236
15571W        W16435  14.583  17.569   2.662
15572W        W16436  16.193  16.333   2.058
15573W        W16437  16.214  15.180   0.224
15574W        W16438  15.274  16.136   1.121
15575W        W16439  14.740  18.006   2.368
15576W        W16440  17.645  16.360   0.505
15577W        W16441  17.871  15.044   3.142
15578W        W16442  17.244  17.279   1.223
15579W        W16443  14.865  16.178   3.109
15580W        W16444  17.931  14.760   0.586
15581W        W16445  17.405  17.185   0.746
15582W        W16446  16.113  16.279   0.746
15583W        W16447  17.468  14.930   0.376
15584W        W16448  17.358  15.741   2.350
15585W        W16449  14.995  16.130   1.574
15586W        W16450  15.353  17.037   1.355
15587W        W16451  17.343  15.780   1.318
15588W        W16452  16.244  15.307   1.832
15589W        W16453  18.155  17.049   2.432
15590W        W16454  18.134  15.180   2.052
15591W        W16455  14.683  17.791   1.357
15592W        W16456  15.051  16.950   0.909
15593W        W16457  15.157  14.860   3.438
15594W        W16458  15.942  17.718   3.500
15595W        W16459  18.018  16.414   1.485
15596W        W16460  17.369  16.800   0.426
15597W        W16461  16.706  18.271   2.360
15598W        W16462  17.562  16.810   3.486
15599W        W16463  16.372  14.662   0.818
15600W        W16464  17.024  15.520   1.652
15601W        W16465  14.672  17.049   1.937
15602W        W16466  15.999  15.032   0.658
15603W        W16467  15.670  16.811   3.289
15604W        W16468  16.718  15.552   1.063
15605W        W16469  16.910  16.972   2.339
15606W        W16470  15.102  17.660   2.574
15607W        W16471  15.390  17.748   3.548
15608W        W16472  15.499  15.283   0.544
15609W        W16473  17.288  15.562   0.813
15610W        W16474  17.019  17.645   2.856
15611W        W16475  15.811  16.104   1.706
15612W        W16476  15.238  18.113   2.323
15613W        W16477  18.054  18.005   0.172
15614W        W16478  14.764  16.697   3.166
15615W        W16479  16.966  16.937   1.836
15616W        W16480  15.479  16.628   1.021
15617W        W16481  15.641  17.687   2.566
15618W        W16482  16.238  14.876   1.541
15619W        W16483  14.628  16.978   0.550
15620W        W16484  16.401  15.797   0.359
15621W        W16485  15.038  16.583   1.279
15622W        W16486  16.126  14.998   2.716
15623W        W16487  17.877  14.904   0.066
15624W        W16488  17.991  16.608   3.268
15625W        W16489  16.674  18.178   3.332
15626W        W16490  18.194  16.973   2.931
15627W        W16491  17.528  17.838   3.537
15628W        W16492  15.322  18.121   1.826
15629W        W16493  18.150  16.756   1.117
15630W        W16494  16.858  16.060   1.479
15631W        W16495  16.640  14.620   1.285
15632W        W16496  15.535  17.516   1.185
15633W        W16497  15.927  15.530   2.233
15634W        W16498  16.036  14.624   1.956
15635W        W16499  14.892  17.807   0.316
15636W        W16500  16.527  16.953   1.178
15637W        W16501  15.650  17.790   3.079
15638W        W16502  15.069  16.431   0.749
15639W        W16503  14.810  15.303   1.665
15640W        W16504  16.327  17.024   1.684
15641W        W16505  14.633  14.954   0.743
15642W        W16506  17.282  16.180   2.619
15643W        W16507  17.358  15.435   0.319
15644W        W16508  17.823  17.117   2.032
15645W        W16509  16.399  17.537   1.728
15646W        W16510  15.715  17.639   0.691
15647W        W16511  17.112  14.543   0.282
15648W        W16512  14.829  17.935   1.832
15649W        W16513  16.794  15.642   3.254
15650W        W16514  15.069  15.300   3.183
15651W        W16515  14.922  15.884   0.794
15652W        W16516  15.431  15.745   0.769
15653W        W16517  17.136  15.983   3.427
15654W        W16518  15.685  16.491   2.039
15655W        W16519  17.158  14.762   1.176
15656W        W16520  16.269  18.025   1.602
15657W        W16521  17.460  17.606   2.548
15658W        W16522  17.197  17.603   1.630
15659W        W16523  17.055  16.804   1.345
15660W        W16524  16.625  14.943   0.474
15661W        W16525  18.238  14.694   1.274
15662W        W16526  15.934  16.004   0.347
15663W        W16527  18.199  15.555   1.226
15664W        W16528  16.763  16.658   0.341
15665W        W16529  17.684  16.945   2.976
15666W        W16530  17.331  17.589   0.404
15667W        W16531  15.968  15.277   3.137
15668W        W16532  15.913  16.025   2.344
15669W        W16533  17.864  17.419   2.880
15670W        W16534  16.984  15.235   2.968
15671W        W16535  14.590  15.864   2.807
15672W        W16536  16.535  16.367   2.474
15673W        W16537  14.831  17.012   1.446
15674W        W16538  15.049  16.215   2.091
15675W        W16539  17.298  16.699   2.612
15676W        W16540  17.122  18.168   3.064
15677W        W16541  17.089  15.719   2.816
15678W        W16542  17.312  17.975   1.263
15679W        W16543  16.293  17.646   2.631
15680W        W16544  15.688  17.817   2.058
15681W        W16545  17.641  17.115   2.502
15682W        W16546  16.559  17.234   3.520
15683W        W16547  15.200  17.046   1.858
15684W        W16548  17.562  16.660   1.481
15685W        W16549  17.179  17.814   2.106
15686W        W16550  15.189  17.662   2.073
15687W        W16551  16.288  15.693   3.164
15688W        W16552  16.428  17.979   1.031
15689W        W16553  16.045  17.188   3.453
15690W        W16554  16.036  17.258   0.970
15691W        W16555  15.485  16.177   0.143
15692W        W16556  14.697  18.272   7.051
15693W        W16557  15.067  17.125   6.624
15694W        W16558  17.855  16.748   4.310
15695W        W16559  17.967  17.924   6.425
15696W        W16560  15.628  18.013   3.932
15697W        W16561  16.424  16.095   4.630
15698W        W16562  15.627  15.829   5.404
15699W        W16563  16.665  16.400   4.291
15700W        W16564  16.133  17.908   6.678
15701W        W16565  14.627  15.312   6.645
15702W        W16566  15.188  14.450   6.538
15703W        W16567  17.244  15.015   5.356
15704W        W16568  16.913  15.682   3.793
15705W        W16569  17.417  15.519   6.910
15706W        W16570  14.733  15.001   6.245
15707W        W16571  14.889  17.863   7.300
15708W        W16572  16.208  17.450   3.872
15709W        W16573  14.576  15.752   5.694
15710W        W16574  15.844  16.011   6.826
15711W        W16575  17.979  15.573   5.350
15712W        W16576  17.842  16.699   6.217
15713W        W16577  16.503  16.233   5.135
15714W        W16578  16.849  17.417   5.642
15715W        W16579  15.231  16.760   5.960
15716W        W16580  14.409  16.305   5.730
15717W        W16581  15.801  16.372   6.457
15718W        W16582  17.868  16.050   6.800
15719W        W16583  15.467  17.455   5.393
15720W        W16584  16.660  17.291   6.382
15721W        W16585  16.083  15.818   5.636
15722W        W16586  16.237  16.667   5.307
15723W        W16587  16.922  17.537   7.157
15724W        W16588  16.312  16.758   7.093
15725W        W16589  16.288  16.569   6.606
15726W        W16590  14.778  15.636   7.015
15727W        W16591  17.331  17.291   6.917
15728W        W16592  14.966  14.755   4.836
15729W        W16593  15.579  17.136   5.801
15730W        W16594  18.009  17.049   5.187
15731W        W16595  17.572  15.364   5.602
15732W        W16596  17.676  15.285   3.548
15733W        W16597  18.298  16.116   6.035
15734W        W16598  16.076  17.970   5.873
15735W        W16599  18.021  17.263   4.306
15736W        W16600  14.998  18.142   4.308
15737W        W16601  15.384  18.243   4.838
15738W        W16602  15.535  14.971   5.938
15739W        W16603  17.835  15.990   6.248
15740W        W16604  17.360  16.277   4.948
15741W        W16605  17.369  16.101   3.871
15742W        W16606  16.428  17.299   5.909
15743W        W16607  16.491  15.395   5.106
15744W        W16608  16.856  17.676   6.133
15745W        W16609  17.868  16.354   4.704
15746W        W16610  16.795  14.910   4.437
15747W        W16611  15.468  17.914   4.452
15748W        W16612  14.609  15.166   4.751
15749W        W16613  17.440  15.783   5.293
15750W        W16614  14.936  17.581   5.478
15751W        W16615  16.175  17.965   3.942
15752W        W16616  17.617  15.793   3.521
15753W        W16617  14.785  17.716   5.978
15754W        W16618  15.482  17.183   6.308
15755W        W16619  15.772  16.699   5.091
15756W        W16620  16.049  15.016   5.906
15757W        W16621  18.211  14.746   5.502
15758W        W16622  15.239  16.499   3.296
15759W        W16623  14.771  15.162   3.601
15760W        W16624  15.081  17.380   5.027
15761W        W16625  16.257  17.125   5.036
15762W        W16626  17.518  17.764   6.630
15763W        W16627  16.661  15.474   4.187
15764W        W16628  17.858  17.974   5.214
15765W        W16629  17.421  15.900   6.541
15766W        W16630  18.208  17.321   4.805
15767W        W16631  16.812  16.795   6.444
15768W        W16632  13.990  16.371   4.970
15769W        W16633  15.737  16.729   6.085
15770W        W16634  16.867  15.884   4.433
15771W        W16635  16.876  16.315   4.780
15772W        W16636  15.015  15.836   6.083
15773W        W16637  15.117  15.460   6.477
15774W        W16638  14.946  14.775   5.357
15775W        W16639  16.765  15.159   5.545
15776W        W16640  16.606  15.299   6.768
15777W        W16641  16.874  15.073   3.935
15778W        W16642  18.066  17.748   6.904
15779W        W16643  16.742  14.810   6.561
15780W        W16644  17.835  17.251   7.038
15781W        W16645  17.391  15.375   6.398
15782W        W16646  17.216  15.106   4.784
15783W        W16647  17.567  16.324   7.140
15784W        W16648  15.236  17.944   5.271
15785W        W16649  16.193  15.544   3.954
15786W        W16650  15.378  14.825   6.848
15787W        W16651  17.621  15.426   4.528
15788W        W16652  18.020  15.904   4.478
15789W        W16653  15.692  18.147   7.079
15790W        W16654  15.567  14.626   4.136
15791W        W16655  17.993  15.086   5.194
15792W        W16656  18.090  17.510   3.767
15793W        W16657  15.046  16.621   5.487
15794W        W16658  17.093  15.277   3.501
15795W        W16659  18.110  17.515   5.411
15796W        W16660  18.062  14.721   6.027
15797W        W16661  16.702  16.042   6.721
15798W        W16662  16.418  16.822   4.467
15799W        W16663  17.124  16.571   7.261
15800W        W16664  16.881  14.647   5.437
15801W        W16665  15.086  15.664   5.578
15802W        W16666  14.849  16.717   6.315
15803W        W16667  16.775  17.781   5.279
15804W        W16668  17.779  15.490   6.075
15805W        W16669  16.637  17.987   6.502
15806W        W16670  17.864  16.526   3.820
15807W        W16671  16.187  16.498   4.823
15808W        W16672  18.189  14.696   6.568
15809W        W16673  16.350  16.898   6.229
15810W        W16674  16.573  15.792   5.451
15811W        W16675  17.378  15.835   4.325
15812W        W16676  17.792  15.819   4.022
15813W        W16677  17.652  17.543   4.558
15814W        W16678  17.509  17.073   5.318
15815W        W16679  17.158  16.309   4.318
15816W        W16680  16.799  16.534   5.411
15817W        W16681  17.737  16.216   5.315
15818W        W16682  15.122  15.328   5.982
15819W        W16683  17.596  16.433   6.607
15820W        W16684  18.090  17.941   5.701
15821W        W16685  15.935  17.581   5.189
15822W        W16686  17.149  18.049   6.378
15823W        W16687  17.159  15.243   5.895
15824W        W16688  16.242  18.248   6.274
15825W        W16689  17.929  15.034   4.679
15826W        W16690  17.801  16.341   5.856
15827W        W16691  14.628  15.491   6.138
15828W        W16692  17.566  15.350   5.061
15829W        W16693  17.838  15.570   6.594
15830W        W16694  16.811  17.249   5.136
15831W        W16695  15.937  17.886   4.762
15832W        W16696  15.206  14.930   3.942
15833W        W16697  16.421  14.768   5.640
15834W        W16698  15.117  18.133   3.800
15835W        W16699  16.159  16.396   4.259
15836W        W16700  16.332  17.079   6.702
15837W        W16701  16.361  15.063   4.689
15838W        W16702  17.584  14.822   5.018
15839W        W16703  17.415  18.130   5.417
15840W        W16704  16.552  17.834   5.753
15841W        W16705  16.119  16.846   5.773
15842W        W16706  17.905  17.587   6.041
15843W        W16707  15.426  14.887   4.565
15844W        W16708  15.951  17.500   5.711
15845W        W16709  15.552  15.235   3.462
15846W        W16710  16.406  15.957   6.017
15847W        W16711  17.239  14.728   5.805
15848W        W16712  14.704  16.778   5.830
15849W        W16713  16.404  16.393   3.775
15850W        W16714  15.620  14.734   3.617
15851W        W16715  16.732  15.815   4.933
15852W        W16716  17.212  14.905   6.305
15853W        W16717  15.862  16.899   6.555
15854W        W16718  16.739  16.553   6.897
15855W        W16719  17.202  16.779   6.793
15856W        W16720  16.449  14.886   7.029
15857W        W16721  15.742  15.405   5.717
15858W        W16722  14.985  15.216   5.110
15859W        W16723  15.035  17.839   4.759
15860W        W16724  16.490  17.564   6.785
15861W        W16725  15.947  17.152   4.196
15862W        W16726  17.338  16.535   5.410
15863W        W16727  17.342  16.111   5.675
15864W        W16728  16.591  16.640   5.871
15865W        W16729  17.094  17.032   3.579
15866W        W16730  16.787  14.991   5.049
15867W        W16731  18.180  15.388   4.385
15868W        W16732  14.882  18.033   6.569
15869W        W16733  14.984  17.205   6.126
15870W        W16734  14.509  18.066   4.469
15871W        W16735  16.638  15.508   5.909
15872W        W16736  15.878  17.675   4.238
15873W        W16737  17.960  17.791   4.227
15874W        W16738  16.864  16.182   3.865
15875W        W16739  16.349  15.592   4.589
15876W        W16740  16.560  15.345   3.629
15877W        W16741  16.825  17.121   6.860
15878W        W16742  17.491  14.928   4.379
15879W        W16743  14.782  14.674   3.821
15880W        W16744  15.967  17.213   6.133
15881W        W16745  15.891  17.097   5.396
15882W        W16746  15.678  17.428   3.832
15883W        W16747  14.627  17.571   4.586
15884W        W16748  15.411  16.302   6.799
15885W        W16749  15.880  14.752   6.983
15886W        W16750  16.862  15.278   6.313
15887W        W16751  15.882  14.800   4.880
15888W        W16752  17.118  14.641   4.099
15889W        W16753  15.026  14.831   5.869
15890W        W16754  14.588  15.546   5.196
15891W        W16755  17.702  14.830   5.550
15892W        W16756  14.954  15.020   4.390
15893W        W16757  17.618  15.013   6.013
15894W        W16758  18.053  16.069   3.626
15895W        W16759  15.296  15.151   5.521
15896W        W16760  16.497  15.637   6.405
15897W        W16761  14.543  15.052   4.086
15898W        W16762  15.362  16.685   6.447
15899W        W16763  16.819  16.134   5.766
15900W        W16764  16.567  18.312   3.837
15901W        W16765  14.582  16.348   3.525
15902W        W16766  15.499  17.368   6.807
15903W        W16767  15.067  16.235   6.423
15904W        W16768  16.169  16.424   6.100
15905W        W16769  17.680  14.667   6.399
15906W        W16770  18.171  16.388   6.472
15907W        W16771  18.172  16.349   4.205
15908W        W16772  16.948  16.769   4.518
15909W        W16773  17.475  18.411   3.652
15910W        W16774  16.765  16.182   7.266
15911W        W16775  15.127  17.229   7.143
15912W        W16776  18.133  15.060   6.947
15913W        W16777  17.799  15.857   5.722
15914W        W16778  16.192  18.053   7.187
15915W        W16779  16.044  14.705   3.925
15916W        W16780  17.799  17.045   3.879
15917W        W16781  15.566  15.297   6.714
15918W        W16782  15.962  17.431   6.588
15919W        W16783  17.953  15.119   6.384
15920W        W16784  17.534  18.047   4.038
15921W        W16785  17.522  16.807   5.804
15922W        W16786  15.846  15.000   6.379
15923W        W16787  16.319  16.238   6.997
15924W        W16788  15.533  17.393   4.482
15925W        W16789  17.443  16.650   4.590
15926W        W16790  15.256  14.963   6.367
15927W        W16791  16.389  17.659   4.943
15928W        W16792  18.113  15.989   5.037
15929W        W16793  16.223  14.684   6.614
15930W        W16794  17.332  17.301   5.768
15931W        W16795  17.640  17.682   5.596
15932W        W16796  16.461  17.763   3.545
15933W        W16797  14.629  17.261   6.874
15934W        W16798  15.584  15.417   6.212
15935W        W16799  15.403  14.830   5.097
15936W        W16800  17.048  15.677   5.632
15937W        W16801  16.307  16.911   3.858
15938W        W16802  17.936  16.685   5.517
15939W        W16803  15.012  17.628   6.850
15940W        W16804  17.735  18.133   4.563
15941W        W16805  15.799  15.131   5.290
15942W        W16806  15.591  16.676   5.582
15943W        W16807  15.697  18.262   6.079
15944W        W16808  17.751  18.154   6.923
15945W        W16809  17.087  16.552   5.866
15946W        W16810  14.729  15.686   3.282
15947W        W16811  18.063  17.800   4.772
15948W        W16812  17.790  15.268   4.060
15949W        W16813  15.701  14.535   6.530
15950W        W16814  17.736  17.473   5.070
15951W        W16815  17.653  15.882   4.828
15952W        W16816  16.210  15.816   5.068
15953W        W16817  16.238  16.075   6.499
15954W        W16818  17.174  17.204   6.432
15955W        W16819  15.952  15.605   6.525
15956W        W16820  15.734  18.060   5.199
15957W        W16821  15.193  18.138   6.958
15958W        W16822  15.227  17.694   4.053
15959W        W16823  17.763  17.059   4.729
15960W        W16824  15.473  15.892   6.428
15961W        W16825  18.087  15.545   3.716
15962W        W16826  15.941  16.905   4.647
15963W        W16827  17.089  16.330   6.563
15964W        W16828  16.911  15.902   6.223
15965W        W16829  15.447  16.296   6.094
15966W        W16830  17.542  18.069   5.952
15967W        W16831  17.301  14.660   6.747
15968W        W16832  14.872  14.836   6.727
15969W        W16833  15.484  15.811   5.898
15970W        W16834  15.907  15.641   3.514
15971W        W16835  14.702  17.526   6.442
15972W        W16836  16.340  16.273   5.620
15973W        W16837  16.084  15.151   3.633
15974W        W16838  15.327  16.207   5.607
15975W        W16839  14.782  18.241   6.120
15976W        W16840  17.665  16.271   4.249
15977W        W16841  17.630  15.071   6.772
15978W        W16842  17.302  17.246   4.862
15979W        W16843  14.919  16.125   6.904
15980W        W16844  17.955  14.803   4.200
15981W        W16845  17.476  17.101   4.302
15982W        W16846  16.457  15.960   4.123
15983W        W16847  17.388  15.000   3.853
15984W        W16848  17.356  15.744   6.033
15985W        W16849  14.835  16.141   5.465
15986W        W16850  15.674  17.214   4.950
15987W        W16851  17.209  15.652   4.770
15988W        W16852  16.262  15.328   5.561
15989W        W16853  18.160  17.121   6.104
15990W        W16854  18.076  15.190   5.769
15991W        W16855  14.702  17.967   5.151
15992W        W16856  14.681  17.089   4.784
15993W        W16857  14.888  14.867   7.261
15994W        W16858  15.890  17.647   7.054
15995W        W16859  18.165  16.499   5.094
15996W        W16860  17.388  16.657   3.990
15997W        W16861  16.749  18.209   6.055
15998W        W16862  17.569  16.834   7.151
15999W        W16863  16.319  14.629   4.396
16000W        W16864  17.014  15.443   5.181
16001W        W16865  14.602  17.265   5.757
16002W        W16866  15.925  14.947   4.383
16003W        W16867  15.876  16.534   6.940
16004W        W16868  16.792  15.368   4.683
16005W        W16869  16.915  17.042   5.999
16006W        W16870  15.213  17.628   6.380
16007W        W16871  15.393  17.730   7.178
16008W        W16872  15.694  15.117   3.959
16009W        W16873  17.152  15.331   4.310
16010W        W16874  16.991  17.628   6.648
16011W        W16875  15.968  16.230   5.253
16012W        W16876  15.234  18.019   6.032
16013W        W16877  17.980  18.024   3.728
16014W        W16878  14.968  16.633   6.802
16015W        W16879  17.059  16.956   5.509
16016W        W16880  15.342  16.966   5.235
16017W        W16881  15.710  17.688   6.165
16018W        W16882  16.279  14.928   5.187
16019W        W16883  14.327  16.965   4.366
16020W        W16884  16.462  15.857   3.620
16021W        W16885  14.631  16.348   4.917
16022W        W16886  16.364  15.122   6.331
16023W        W16887  17.908  14.852   3.679
16024W        W16888  17.987  16.564   6.934
16025W        W16889  16.678  17.992   7.012
16026W        W16890  18.167  16.916   6.571
16027W        W16891  17.598  17.700   7.132
16028W        W16892  15.365  18.325   5.640
16029W        W16893  18.209  16.801   4.688
16030W        W16894  17.005  16.079   5.275
16031W        W16895  16.541  14.583   4.864
16032W        W16896  15.497  17.689   4.919
16033W        W16897  16.129  15.502   6.053
16034W        W16898  15.911  14.695   5.528
16035W        W16899  14.684  17.769   4.064
16036W        W16900  16.625  16.750   4.966
16037W        W16901  15.596  17.847   6.667
16038W        W16902  14.274  16.294   4.538
16039W        W16903  14.753  15.234   5.612
16040W        W16904  16.553  16.999   5.506
16041W        W16905  14.560  14.681   4.493
16042W        W16906  17.391  16.249   6.159
16043W        W16907  17.380  15.530   3.894
16044W        W16908  17.841  17.192   5.694
16045W        W16909  16.378  17.468   5.421
16046W        W16910  15.899  18.180   4.350
16047W        W16911  17.002  14.716   3.573
16048W        W16912  14.886  18.075   5.627
16049W        W16913  16.771  15.694   7.102
16050W        W16914  15.096  15.242   6.959
16051W        W16915  14.460  15.856   4.753
16052W        W16916  16.023  16.049   3.819
16053W        W16917  17.179  16.004   6.986
16054W        W16918  15.830  16.261   5.747
16055W        W16919  17.094  14.604   4.936
16056W        W16920  16.242  17.980   5.356
16057W        W16921  17.375  17.624   6.159
16058W        W16922  17.242  17.537   5.302
16059W        W16923  17.141  16.771   5.011
16060W        W16924  16.372  15.062   4.094
16061W        W16925  18.262  14.700   4.938
16062W        W16926  15.661  16.184   3.427
16063W        W16927  18.011  15.520   4.851
16064W        W16928  16.810  16.709   3.892
16065W        W16929  17.655  16.949   6.644
16066W        W16930  17.608  17.517   3.982
16067W        W16931  16.097  15.187   6.793
16068W        W16932  15.900  15.957   6.144
16069W        W16933  17.875  17.402   6.546
16070W        W16934  17.101  15.133   6.762
16071W        W16935  14.753  15.814   6.532
16072W        W16936  16.645  16.338   6.285
16073W        W16937  14.714  16.997   5.311
16074W        W16938  14.927  16.331   5.938
16075W        W16939  17.317  16.742   6.285
16076W        W16940  17.197  17.995   6.958
16077W        W16941  16.994  15.631   6.649
16078W        W16942  17.448  17.872   4.928
16079W        W16943  16.301  17.671   6.244
16080W        W16944  15.608  17.883   5.669
16081W        W16945  17.624  17.162   6.170
16082W        W16946  16.445  17.260   7.191
16083W        W16947  15.088  17.124   5.636
16084W        W16948  17.678  16.672   5.055
16085W        W16949  17.102  17.861   5.721
16086W        W16950  15.280  17.541   5.874
16087W        W16951  16.308  15.726   6.873
16088W        W16952  16.325  17.843   4.434
16089W        W16953  15.941  17.118   7.028
16090W        W16954  16.048  17.407   4.647
16091W        W16955  15.361  15.750   3.337
16092W        W16956  14.617  18.276  10.727
16093W        W16957  14.914  17.184  10.111
16094W        W16958  17.796  16.797   7.998
16095W        W16959  17.954  17.965   9.939
16096W        W16960  15.772  17.899   7.520
16097W        W16961  16.395  15.984   8.498
16098W        W16962  15.518  16.085   9.073
16099W        W16963  16.485  16.790   7.923
16100W        W16964  16.112  17.955  10.430
16101W        W16965  14.675  15.360  10.402
16102W        W16966  15.266  14.440  10.248
16103W        W16967  17.310  14.868   9.042
16104W        W16968  16.879  15.969   7.836
16105W        W16969  17.400  15.429  10.613
16106W        W16970  14.774  15.018   9.994
16107W        W16971  14.832  17.821  10.830
16108W        W16972  16.570  17.273   7.705
16109W        W16973  14.623  15.776   9.480
16110W        W16974  15.898  15.852  10.424
16111W        W16975  17.992  15.554   9.170
16112W        W16976  17.918  16.676  10.016
16113W        W16977  16.437  16.138   9.007
16114W        W16978  16.860  17.446   9.348
16115W        W16979  15.402  16.703   9.436
16116W        W16980  14.649  16.306   9.357
16117W        W16981  15.923  16.376  10.310
16118W        W16982  18.058  15.885  10.703
16119W        W16983  15.512  17.440   9.062
16120W        W16984  16.743  17.319  10.011
16121W        W16985  15.997  15.970   9.306
16122W        W16986  16.240  16.658   9.097
16123W        W16987  16.921  17.689  10.723
16124W        W16988  16.385  16.712  10.786
16125W        W16989  16.406  16.572  10.289
16126W        W16990  14.446  15.625  10.845
16127W        W16991  17.402  17.443  10.518
16128W        W16992  14.832  14.816   8.464
16129W        W16993  15.539  17.196   9.522
16130W        W16994  17.983  17.011   8.857
16131W        W16995  17.292  15.202   9.442
16132W        W16996  17.791  15.340   7.235
16133W        W16997  18.099  16.233   9.809
16134W        W16998  16.205  17.879   9.476
16135W        W16999  18.038  17.263   8.093
16136W        W17000  15.088  18.179   7.996
16137W        W17001  15.488  18.150   8.378
16138W        W17002  15.289  14.998   9.737
16139W        W17003  17.809  15.658  10.017
16140W        W17004  17.313  16.226   8.587
16141W        W17005  17.229  16.108   7.494
16142W        W17006  16.411  17.406   9.622
16143W        W17007  16.543  15.291   8.929
16144W        W17008  16.773  17.767   9.772
16145W        W17009  17.628  16.343   8.159
16146W        W17010  16.660  15.164   8.025
16147W        W17011  15.220  17.735   8.194
16148W        W17012  14.470  15.263   8.704
16149W        W17013  17.473  15.622   9.216
16150W        W17014  14.993  17.533   9.168
16151W        W17015  16.185  17.873   7.821
16152W        W17016  17.632  15.832   7.250
16153W        W17017  14.701  17.635   9.579
16154W        W17018  15.415  17.276  10.016
16155W        W17019  15.934  16.792   8.654
16156W        W17020  15.710  15.127   9.439
16157W        W17021  18.260  14.668   9.163
16158W        W17022  15.463  16.866   6.914
16159W        W17023  14.823  15.343   7.451
16160W        W17024  15.144  17.483   8.668
16161W        W17025  16.212  17.149   8.888
16162W        W17026  17.546  17.899  10.250
16163W        W17027  16.563  15.660   8.089
16164W        W17028  17.827  18.013   8.801
16165W        W17029  17.623  15.874  10.432
16166W        W17030  18.267  17.334   8.582
16167W        W17031  16.823  16.793  10.076
16168W        W17032  14.205  16.172   8.624
16169W        W17033  15.709  16.845   9.842
16170W        W17034  16.899  15.935   8.360
16171W        W17035  16.827  16.765   8.329
16172W        W17036  15.058  15.833   9.832
16173W        W17037  15.108  15.817  10.345
16174W        W17038  14.902  14.733   8.989
16175W        W17039  16.776  15.086   9.356
16176W        W17040  16.552  15.174  10.499
16177W        W17041  16.726  15.525   7.603
16178W        W17042  18.051  17.836  10.454
16179W        W17043  16.901  14.725  10.459
16180W        W17044  17.892  17.345  10.634
16181W        W17045  17.514  15.240  10.121
16182W        W17046  17.291  15.142   8.564
16183W        W17047  17.714  16.241  10.762
16184W        W17048  15.301  17.901   8.958
16185W        W17049  16.256  15.377   7.740
16186W        W17050  15.411  14.894  10.502
16187W        W17051  17.588  15.466   8.261
16188W        W17052  17.896  15.877   8.080
16189W        W17053  15.628  18.012  10.662
16190W        W17054  15.328  14.372   7.864
16191W        W17055  18.131  15.141   8.867
16192W        W17056  18.112  17.484   7.402
16193W        W17057  14.882  16.762   9.465
16194W        W17058  16.858  15.213   7.205
16195W        W17059  18.073  17.516   9.058
16196W        W17060  18.066  14.635   9.684
16197W        W17061  16.782  15.999  10.385
16198W        W17062  16.745  17.293   8.223
16199W        W17063  17.291  16.514  10.806
16200W        W17064  16.792  14.572   9.226
16201W        W17065  15.140  15.770   9.327
16202W        W17066  15.186  16.789   9.893
16203W        W17067  16.774  17.838   8.789
16204W        W17068  17.772  15.372   9.606
16205W        W17069  16.671  18.080  10.169
16206W        W17070  17.870  16.588   7.495
16207W        W17071  16.818  16.318   8.700
16208W        W17072  18.137  14.574  10.208
16209W        W17073  16.355  17.009   9.952
16210W        W17074  16.464  15.656   9.289
16211W        W17075  17.368  15.914   8.139
16212W        W17076  17.555  15.635   7.747
16213W        W17077  17.600  17.540   8.190
16214W        W17078  17.479  17.068   8.929
16215W        W17079  17.111  16.351   8.118
16216W        W17080  16.746  16.528   9.185
16217W        W17081  17.640  16.100   9.064
16218W        W17082  14.921  15.369   9.622
16219W        W17083  17.548  16.454  10.334
16220W        W17084  18.078  17.935   9.359
16221W        W17085  15.976  17.619   8.883
16222W        W17086  17.169  18.097   9.906
16223W        W17087  16.988  15.289   9.838
16224W        W17088  16.270  18.295   9.881
16225W        W17089  18.086  15.042   8.354
16226W        W17090  17.643  16.399   9.582
16227W        W17091  14.598  15.597   9.962
16228W        W17092  17.723  15.121   9.178
16229W        W17093  17.927  15.440  10.482
16230W        W17094  16.771  17.313   8.825
16231W        W17095  16.073  17.928   8.441
16232W        W17096  15.070  14.869   7.743
16233W        W17097  16.307  14.682   9.498
16234W        W17098  15.290  18.131   7.501
16235W        W17099  16.345  16.493   8.588
16236W        W17100  16.468  17.074  10.434
16237W        W17101  16.442  14.965   8.504
16238W        W17102  17.725  14.880   8.708
16239W        W17103  17.274  18.080   8.960
16240W        W17104  16.681  17.932   9.299
16241W        W17105  16.104  16.938   9.518
16242W        W17106  17.882  17.553   9.627
16243W        W17107  15.282  14.755   8.204
16244W        W17108  15.971  17.418   9.361
16245W        W17109  15.596  15.126   7.211
16246W        W17110  16.443  15.846   9.753
16247W        W17111  17.187  14.709   9.521
16248W        W17112  14.682  16.669   9.916
16249W        W17113  16.376  16.450   7.494
16250W        W17114  15.373  14.677   7.358
16251W        W17115  16.716  15.749   8.818
16252W        W17116  17.191  14.837  10.025
16253W        W17117  15.998  16.894  10.278
16254W        W17118  16.823  16.477  10.567
16255W        W17119  17.189  16.817  10.423
16256W        W17120  16.532  14.826  10.921
16257W        W17121  15.647  15.595   9.216
16258W        W17122  15.019  15.197   8.764
16259W        W17123  14.994  17.985   8.569
16260W        W17124  16.559  17.620  10.383
16261W        W17125  15.999  16.945   8.078
16262W        W17126  17.250  16.443   9.143
16263W        W17127  17.295  16.041   9.481
16264W        W17128  16.577  16.718   9.619
16265W        W17129  17.207  17.094   7.411
16266W        W17130  16.867  14.906   8.802
16267W        W17131  17.983  15.373   7.952
16268W        W17132  14.761  17.971  10.327
16269W        W17133  15.034  17.235   9.611
16270W        W17134  14.612  18.095   8.253
16271W        W17135  16.474  15.323   9.736
16272W        W17136  16.101  17.487   7.490
16273W        W17137  17.967  17.736   7.871
16274W        W17138  16.853  16.464   7.697
16275W        W17139  16.322  15.462   8.488
16276W        W17140  16.353  15.353   7.230
16277W        W17141  16.935  17.244  10.482
16278W        W17142  17.601  14.952   8.178
16279W        W17143  14.512  14.652   7.604
16280W        W17144  15.939  17.299   9.892
16281W        W17145  15.787  16.987   9.129
16282W        W17146  15.610  17.313   7.357
16283W        W17147  14.732  17.597   8.329
16284W        W17148  15.464  16.216  10.448
16285W        W17149  15.910  14.803  10.517
16286W        W17150  16.674  14.936  10.047
16287W        W17151  15.757  14.546   8.321
16288W        W17152  17.075  15.140   7.668
16289W        W17153  14.864  14.824   9.530
16290W        W17154  14.762  15.649   8.993
16291W        W17155  17.748  14.628   9.258
16292W        W17156  14.614  14.973   8.000
16293W        W17157  17.620  14.890   9.700
16294W        W17158  18.045  16.138   7.286
16295W        W17159  15.239  15.243   9.247
16296W        W17160  16.680  15.555  10.152
16297W        W17161  14.341  15.214   7.623
16298W        W17162  15.497  16.731  10.298
16299W        W17163  16.783  16.073   9.397
16300W        W17164  16.587  18.216   7.711
16301W        W17165  14.510  16.450   7.034
16302W        W17166  15.651  17.201  10.473
16303W        W17167  15.066  16.294  10.114
16304W        W17168  16.125  16.547   9.867
16305W        W17169  17.629  14.567  10.114
16306W        W17170  18.013  16.228  10.322
16307W        W17171  18.093  16.373   7.917
16308W        W17172  16.974  16.937   7.863
16309W        W17173  17.465  18.125   7.419
16310W        W17174  16.885  16.293  11.061
16311W        W17175  15.161  17.146  10.583
16312W        W17176  18.244  15.094  10.747
16313W        W17177  17.802  15.890   9.539
16314W        W17178  16.097  18.168  10.904
16315W        W17179  15.818  14.427   7.391
16316W        W17180  17.804  17.094   7.556
16317W        W17181  15.597  15.421  10.318
16318W        W17182  16.097  17.424  10.372
16319W        W17183  18.005  15.085   9.970
16320W        W17184  17.510  17.987   7.925
16321W        W17185  17.416  16.834   9.437
16322W        W17186  15.678  14.973  10.063
16323W        W17187  16.381  16.208  10.673
16324W        W17188  15.776  17.343   7.844
16325W        W17189  17.339  16.778   8.240
16326W        W17190  15.131  15.369  10.094
16327W        W17191  16.387  17.536   8.574
16328W        W17192  18.109  15.962   8.870
16329W        W17193  16.398  14.683  10.455
16330W        W17194  17.352  17.342   9.414
16331W        W17195  17.624  17.736   9.200
16332W        W17196  16.540  17.750   7.449
16333W        W17197  14.697  17.405  10.531
16334W        W17198  15.443  15.498   9.693
16335W        W17199  15.361  14.724   8.727
16336W        W17200  16.965  15.603   9.420
16337W        W17201  16.166  16.975   7.546
16338W        W17202  17.733  16.622   9.105
16339W        W17203  15.178  17.653  10.454
16340W        W17204  17.820  18.164   8.288
16341W        W17205  16.046  15.155   8.833
16342W        W17206  15.546  16.588   8.948
16343W        W17207  15.837  18.227   9.590
16344W        W17208  17.762  18.270  10.537
16345W        W17209  17.044  16.480   9.626
16346W        W17210  14.642  16.043   7.334
16347W        W17211  18.032  17.729   8.398
16348W        W17212  17.601  15.125   7.681
16349W        W17213  15.776  14.456  10.117
16350W        W17214  17.684  17.507   8.724
16351W        W17215  17.703  15.903   8.559
16352W        W17216  16.145  15.702   8.897
16353W        W17217  16.310  16.055  10.197
16354W        W17218  17.240  17.219  10.064
16355W        W17219  16.157  15.558  10.097
16356W        W17220  15.788  18.111   8.832
16357W        W17221  15.150  18.166  10.622
16358W        W17222  15.356  17.654   7.702
16359W        W17223  17.695  17.089   8.431
16360W        W17224  15.533  15.867  10.061
16361W        W17225  18.044  15.683   7.541
16362W        W17226  16.369  17.012   8.418
16363W        W17227  17.089  16.336  10.144
16364W        W17228  16.950  15.913   9.855
16365W        W17229  15.550  16.371   9.920
16366W        W17230  17.599  18.095   9.583
16367W        W17231  17.367  14.894  10.603
16368W        W17232  14.909  14.887  10.483
16369W        W17233  15.533  15.998   9.567
16370W        W17234  15.866  15.557   7.074
16371W        W17235  14.569  17.572  10.069
16372W        W17236  16.335  16.296   9.482
16373W        W17237  16.052  14.943   7.427
16374W        W17238  14.697  16.211   8.827
16375W        W17239  14.759  18.126   9.828
16376W        W17240  17.695  16.137   7.679
16377W        W17241  17.857  14.931  10.443
16378W        W17242  17.189  17.208   8.514
16379W        W17243  14.973  16.253  10.611
16380W        W17244  18.023  14.871   7.865
16381W        W17245  17.435  17.149   7.908
16382W        W17246  16.610  16.330   8.168
16383W        W17247  17.355  15.063   7.214
16384W        W17248  17.366  15.621   9.758
16385W        W17249  15.097  16.407   9.118
16386W        W17250  15.926  17.299   8.477
16387W        W17251  17.247  15.666   8.604
16388W        W17252  16.213  15.182   9.322
16389W        W17253  18.173  17.142   9.769
16390W        W17254  18.171  15.093   9.442
16391W        W17255  14.693  17.932   8.974
16392W        W17256  15.466  17.299   8.249
16393W        W17257  15.117  14.971  10.957
16394W        W17258  16.288  17.655  10.824
16395W        W17259  18.169  16.525   8.856
16396W        W17260  17.384  16.607   7.722
16397W        W17261  16.750  18.288   9.653
16398W        W17262  17.524  16.980  10.805
16399W        W17263  16.027  14.395   7.863
16400W        W17264  17.069  15.359   8.982
16401W        W17265  14.624  17.161   9.250
16402W        W17266  16.195  14.891   7.940
16403W        W17267  15.834  16.706  10.724
16404W        W17268  16.829  15.369   8.485
16405W        W17269  16.987  17.031   9.648
16406W        W17270  15.065  17.688   9.950
16407W        W17271  15.797  17.563  10.813
16408W        W17272  15.666  14.761   7.787
16409W        W17273  17.072  15.513   8.038
16410W        W17274  17.054  17.698  10.219
16411W        W17275  15.963  16.280   8.885
16412W        W17276  15.347  18.113   9.741
16413W        W17277  17.972  17.971   7.394
16414W        W17278  14.943  16.727  10.365
16415W        W17279  17.027  16.980   9.138
16416W        W17280  15.494  17.074   8.710
16417W        W17281  15.768  17.755   9.766
16418W        W17282  16.398  14.811   9.016
16419W        W17283  14.341  17.265   8.476
16420W        W17284  16.367  15.853   7.370
16421W        W17285  14.687  16.706   8.999
16422W        W17286  16.183  15.035  10.112
16423W        W17287  17.888  14.845   7.354
16424W        W17288  17.926  16.699  10.583
16425W        W17289  16.572  18.063  10.707
16426W        W17290  18.150  17.081  10.272
16427W        W17291  17.640  17.821  10.768
16428W        W17292  15.428  18.286   9.254
16429W        W17293  18.139  16.809   8.398
16430W        W17294  17.127  15.963   9.007
16431W        W17295  16.153  14.531   8.679
16432W        W17296  15.593  17.692   8.570
16433W        W17297  15.988  15.560   9.614
16434W        W17298  15.877  14.723   9.126
16435W        W17299  14.715  17.855   7.804
16436W        W17300  16.650  16.830   8.803
16437W        W17301  15.667  17.682  10.263
16438W        W17302  14.338  16.685   8.561
16439W        W17303  14.722  15.174   9.176
16440W        W17304  16.540  17.060   9.257
16441W        W17305  14.405  14.586   8.258
16442W        W17306  17.506  16.080   9.965
16443W        W17307  17.197  15.575   7.380
16444W        W17308  17.809  17.157   9.310
16445W        W17309  16.417  17.551   9.114
16446W        W17310  15.731  17.790   8.074
16447W        W17311  16.938  14.725   7.096
16448W        W17312  14.986  18.025   9.372
16449W        W17313  16.886  15.581  10.697
16450W        W17314  15.148  15.352  10.612
16451W        W17315  14.525  15.766   8.554
16452W        W17316  16.351  16.053   7.832
16453W        W17317  17.201  16.005  10.705
16454W        W17318  15.845  16.457   9.417
16455W        W17319  17.298  14.622   8.581
16456W        W17320  16.289  18.032   8.955
16457W        W17321  17.415  17.643   9.826
16458W        W17322  17.209  17.550   8.951
16459W        W17323  17.166  16.713   8.717
16460W        W17324  16.558  14.979   7.544
16461W        W17325  18.379  14.698   8.661
16462W        W17326  15.944  16.154   7.327
16463W        W17327  17.675  15.420   8.773
16464W        W17328  16.715  16.865   7.396
16465W        W17329  17.640  17.009  10.301
16466W        W17330  17.564  17.559   7.617
16467W        W17331  16.053  15.300  10.541
16468W        W17332  15.968  16.055   9.826
16469W        W17333  17.798  17.471  10.140
16470W        W17334  17.032  15.211  10.343
16471W        W17335  14.598  15.872  10.406
16472W        W17336  16.634  16.310   9.907
16473W        W17337  15.106  16.306   9.616
16474W        W17338  17.367  16.723   9.938
16475W        W17339  17.217  18.078  10.590
16476W        W17340  17.185  15.696  10.241
16477W        W17341  17.417  17.905   8.498
16478W        W17342  16.259  17.755   9.977
16479W        W17343  15.727  17.861   9.263
16480W        W17344  17.665  17.111   9.794
16481W        W17345  16.615  17.264  10.889
16482W        W17346  15.159  17.042   9.120
16483W        W17347  17.688  16.604   8.602
16484W        W17348  17.169  17.851   9.422
16485W        W17349  15.331  17.659   9.512
16486W        W17350  16.390  15.688  10.554
16487W        W17351  16.550  17.854   8.188
16488W        W17352  16.099  17.146  10.816
16489W        W17353  16.237  17.425   8.080
16490W        W17354  15.298  15.740   6.884
16491W        W17355  14.703  18.093  14.419
16492W        W17356  15.068  17.053  13.894
16493W        W17357  17.687  16.801  11.923
16494W        W17358  18.116  17.857  13.628
16495W        W17359  15.671  17.939  11.177
16496W        W17360  15.859  15.934  12.188
16497W        W17361  15.329  15.939  12.581
16498W        W17362  16.250  16.578  11.651
16499W        W17363  16.155  17.736  13.797
16500W        W17364  14.816  15.383  14.025
16501W        W17365  15.417  14.563  13.800
16502W        W17366  17.121  15.063  12.739
16503W        W17367  17.034  15.815  11.190
16504W        W17368  17.353  15.457  14.269
16505W        W17369  14.765  15.086  13.590
16506W        W17370  15.008  17.686  14.503
16507W        W17371  16.275  17.362  11.264
16508W        W17372  14.850  15.717  13.007
16509W        W17373  15.594  15.835  14.306
16510W        W17374  17.905  15.575  12.772
16511W        W17375  17.729  16.622  13.533
16512W        W17376  16.196  15.944  12.668
16513W        W17377  16.749  17.349  12.993
16514W        W17378  15.132  16.628  13.179
16515W        W17379  14.547  16.133  12.911
16516W        W17380  15.615  16.214  13.954
16517W        W17381  17.836  16.107  14.224
16518W        W17382  15.464  17.386  12.632
16519W        W17383  16.514  17.320  13.789
16520W        W17384  15.961  15.609  13.085
16521W        W17385  16.106  16.560  12.772
16522W        W17386  17.009  17.516  14.469
16523W        W17387  16.206  16.633  14.519
16524W        W17388  16.106  16.447  14.038
16525W        W17389  14.524  15.765  14.485
16526W        W17390  17.398  17.381  14.138
16527W        W17391  15.071  14.863  12.176
16528W        W17392  15.612  17.219  13.213
16529W        W17393  18.037  16.983  12.718
16530W        W17394  17.545  15.277  13.048
16531W        W17395  17.738  15.177  10.893
16532W        W17396  18.185  16.074  13.405
16533W        W17397  16.146  17.860  12.978
16534W        W17398  17.944  17.494  11.508
16535W        W17399  15.003  18.108  11.691
16536W        W17400  15.418  18.089  12.048
16537W        W17401  15.259  14.875  13.435
16538W        W17402  17.753  16.018  13.702
16539W        W17403  17.057  16.237  12.209
16540W        W17404  17.403  16.171  11.158
16541W        W17405  16.451  17.087  13.330
16542W        W17406  16.222  15.421  12.637
16543W        W17407  16.868  17.517  13.473
16544W        W17408  17.527  16.415  12.248
16545W        W17409  16.739  14.968  11.835
16546W        W17410  15.346  17.708  11.694
16547W        W17411  14.677  15.215  12.294
16548W        W17412  17.080  15.984  12.648
16549W        W17413  14.913  17.459  12.735
16550W        W17414  16.153  17.848  11.300
16551W        W17415  17.627  15.741  10.952
16552W        W17416  14.751  17.488  13.266
16553W        W17417  15.515  17.240  13.723
16554W        W17418  15.764  16.651  12.346
16555W        W17419  15.759  14.927  13.247
16556W        W17420  18.144  14.787  12.897
16557W        W17421  15.307  16.654  10.758
16558W        W17422  14.858  15.377  11.156
16559W        W17423  15.104  17.463  12.261
16560W        W17424  15.812  17.154  12.287
16561W        W17425  17.673  17.823  13.911
16562W        W17426  16.470  15.573  11.668
16563W        W17427  17.825  17.975  12.610
16564W        W17428  17.381  15.924  14.066
16565W        W17429  18.193  17.391  12.381
16566W        W17430  16.711  16.829  13.742
16567W        W17431  14.632  16.227  12.036
16568W        W17432  15.508  16.780  13.492
16569W        W17433  16.748  15.917  11.961
16570W        W17434  16.609  16.424  12.006
16571W        W17435  15.235  15.789  13.344
16572W        W17436  15.026  15.814  14.300
16573W        W17437  15.015  14.723  12.654
16574W        W17438  16.700  15.231  12.974
16575W        W17439  16.485  15.222  14.282
16576W        W17440  16.811  15.365  11.331
16577W        W17441  18.157  17.645  14.111
16578W        W17442  16.901  14.866  14.198
16579W        W17443  17.864  17.161  14.290
16580W        W17444  17.362  15.280  13.768
16581W        W17445  17.200  15.184  12.117
16582W        W17446  17.439  16.361  14.443
16583W        W17447  15.274  17.861  12.556
16584W        W17448  16.086  15.401  11.350
16585W        W17449  15.559  14.920  14.211
16586W        W17450  17.563  15.468  11.882
16587W        W17451  17.912  15.867  11.868
16588W        W17452  15.898  17.853  14.229
16589W        W17453  15.555  14.694  11.580
16590W        W17454  17.859  15.093  12.621
16591W        W17455  18.077  17.656  10.996
16592W        W17456  14.823  16.581  12.776
16593W        W17457  16.958  15.098  10.858
16594W        W17458  18.037  17.470  12.878
16595W        W17459  18.013  14.744  13.395
16596W        W17460  16.484  16.072  14.114
16597W        W17461  16.298  17.098  11.715
16598W        W17462  16.948  16.550  14.618
16599W        W17463  16.668  14.697  12.807
16600W        W17464  15.335  15.528  12.886
16601W        W17465  14.910  16.645  13.635
16602W        W17466  16.809  17.859  12.478
16603W        W17467  17.830  15.701  13.281
16604W        W17468  16.672  17.953  13.702
16605W        W17469  17.724  16.592  11.122
16606W        W17470  16.176  16.319  12.305
16607W        W17471  18.037  14.706  13.926
16608W        W17472  16.220  16.765  13.654
16609W        W17473  16.463  15.694  13.029
16610W        W17474  17.424  15.986  11.951
16611W        W17475  17.515  15.795  11.474
16612W        W17476  17.570  17.741  11.783
16613W        W17477  17.129  17.018  12.808
16614W        W17478  17.113  16.148  11.585
16615W        W17479  16.568  16.604  12.496
16616W        W17480  17.496  16.294  12.764
16617W        W17481  15.046  15.307  13.236
16618W        W17482  17.520  16.410  13.947
16619W        W17483  18.022  17.929  13.097
16620W        W17484  15.949  17.547  12.572
16621W        W17485  17.194  18.006  13.753
16622W        W17486  17.097  15.242  13.321
16623W        W17487  16.253  18.195  13.502
16624W        W17488  17.813  15.019  12.099
16625W        W17489  17.628  16.199  13.252
16626W        W17490  14.817  15.620  13.565
16627W        W17491  17.456  15.406  12.534
16628W        W17492  17.763  15.574  13.930
16629W        W17493  16.721  17.130  12.498
16630W        W17494  16.094  17.821  12.144
16631W        W17495  15.156  15.038  11.506
16632W        W17496  16.572  14.866  13.311
16633W        W17497  15.171  18.097  11.158
16634W        W17498  15.841  16.383  11.915
16635W        W17499  16.274  16.987  14.109
16636W        W17500  16.293  15.132  12.089
16637W        W17501  17.455  14.840  12.418
16638W        W17502  17.213  18.056  12.735
16639W        W17503  16.677  17.874  13.002
16640W        W17504  15.967  16.859  13.217
16641W        W17505  17.809  17.523  13.341
16642W        W17506  15.504  15.035  11.966
16643W        W17507  16.083  17.342  13.036
16644W        W17508  15.620  15.263  10.817
16645W        W17509  16.240  15.792  13.484
16646W        W17510  17.062  14.766  13.157
16647W        W17511  14.598  16.566  13.234
16648W        W17512  16.376  16.364  11.175
16649W        W17513  15.599  14.770  10.969
16650W        W17514  16.333  15.701  12.219
16651W        W17515  16.990  14.878  13.680
16652W        W17516  15.799  16.857  13.923
16653W        W17517  16.602  16.584  14.208
16654W        W17518  17.100  16.678  14.124
16655W        W17519  16.551  14.901  14.660
16656W        W17520  15.759  15.207  12.813
16657W        W17521  15.295  15.256  12.452
16658W        W17522  14.929  17.953  12.190
16659W        W17523  16.378  17.547  14.230
16660W        W17524  15.965  16.949  11.312
16661W        W17525  17.005  16.492  12.773
16662W        W17526  17.140  16.142  13.122
16663W        W17527  16.354  16.540  13.218
16664W        W17528  17.136  17.293  10.963
16665W        W17529  16.616  15.112  12.489
16666W        W17530  18.080  15.289  11.761
16667W        W17531  14.916  17.870  13.994
16668W        W17532  15.088  17.106  13.389
16669W        W17533  14.487  18.015  11.649
16670W        W17534  16.633  15.437  13.454
16671W        W17535  15.769  17.462  11.342
16672W        W17536  17.701  17.898  11.296
16673W        W17537  16.637  16.030  11.478
16674W        W17538  15.994  15.525  11.869
16675W        W17539  16.448  15.353  10.965
16676W        W17540  16.789  17.109  14.199
16677W        W17541  17.261  15.150  11.585
16678W        W17542  14.710  14.875  11.278
16679W        W17543  16.024  17.244  13.585
16680W        W17544  15.716  16.940  12.771
16681W        W17545  15.580  17.114  10.972
16682W        W17546  14.805  17.591  11.840
16683W        W17547  15.275  16.278  14.366
16684W        W17548  16.056  14.929  14.474
16685W        W17549  16.507  15.056  13.789
16686W        W17550  15.920  14.725  12.132
16687W        W17551  16.888  14.857  11.335
16688W        W17552  14.851  14.841  13.135
16689W        W17553  14.924  15.630  12.500
16690W        W17554  17.590  14.750  12.947
16691W        W17555  15.072  15.344  11.977
16692W        W17556  17.484  14.881  13.434
16693W        W17557  17.921  16.085  11.216
16694W        W17558  15.324  14.997  12.942
16695W        W17559  16.426  15.574  13.914
16696W        W17560  14.362  15.270  11.257
16697W        W17561  15.327  16.625  13.964
16698W        W17562  16.614  16.187  12.936
16699W        W17563  16.506  18.213  11.243
16700W        W17564  14.541  16.163  10.867
16701W        W17565  15.445  17.037  14.258
16702W        W17566  15.009  16.220  13.909
16703W        W17567  15.871  16.403  13.541
16704W        W17568  17.495  14.812  13.945
16705W        W17569  18.085  16.382  13.840
16706W        W17570  18.028  16.603  11.547
16707W        W17571  16.765  16.532  11.517
16708W        W17572  17.489  18.254  10.997
16709W        W17573  16.558  16.216  14.605
16710W        W17574  15.137  17.202  14.636
16711W        W17575  18.295  15.212  14.495
16712W        W17576  17.471  15.793  12.928
16713W        W17577  16.275  18.008  14.518
16714W        W17578  16.013  14.660  11.351
16715W        W17579  17.619  17.418  11.089
16716W        W17580  15.296  15.381  14.208
16717W        W17581  15.890  17.360  14.076
16718W        W17582  17.862  15.150  13.676
16719W        W17583  17.316  18.214  11.478
16720W        W17584  17.345  16.658  13.129
16721W        W17585  15.654  15.029  13.727
16722W        W17586  16.051  16.131  14.435
16723W        W17587  15.426  17.228  11.924
16724W        W17588  17.207  16.578  11.851
16725W        W17589  15.225  15.316  13.712
16726W        W17590  16.291  17.338  12.197
16727W        W17591  18.089  16.004  12.376
16728W        W17592  16.408  14.712  14.169
16729W        W17593  17.231  17.410  13.147
16730W        W17594  17.557  17.733  12.956
16731W        W17595  16.666  17.724  11.169
16732W        W17596  14.801  17.274  14.268
16733W        W17597  15.569  15.393  13.338
16734W        W17598  15.540  14.814  12.496
16735W        W17599  16.978  15.660  13.045
16736W        W17600  16.481  16.885  11.259
16737W        W17601  17.849  16.619  13.032
16738W        W17602  15.240  17.485  14.093
16739W        W17603  17.641  18.232  11.937
16740W        W17604  15.832  15.249  12.301
16741W        W17605  15.326  16.534  12.668
16742W        W17606  15.828  18.191  13.213
16743W        W17607  17.852  18.142  14.251
16744W        W17608  16.844  16.501  13.316
16745W        W17609  14.932  15.778  10.824
16746W        W17610  17.936  17.814  12.149
16747W        W17611  17.729  15.338  11.382
16748W        W17612  15.927  14.648  13.961
16749W        W17613  17.691  17.485  12.512
16750W        W17614  17.585  15.906  12.433
16751W        W17615  15.761  15.673  12.613
16752W        W17616  16.028  15.918  13.947
16753W        W17617  17.103  17.144  13.790
16754W        W17618  15.708  15.512  13.891
16755W        W17619  15.771  18.026  12.508
16756W        W17620  15.390  17.954  14.276
16757W        W17621  15.307  17.625  10.960
16758W        W17622  17.805  17.323  12.028
16759W        W17623  15.292  15.805  13.855
16760W        W17624  18.097  15.510  11.052
16761W        W17625  15.832  16.895  11.834
16762W        W17626  16.833  16.340  13.819
16763W        W17627  16.738  15.974  13.406
16764W        W17628  15.344  16.273  13.499
16765W        W17629  17.624  18.007  13.432
16766W        W17630  17.386  14.972  14.435
16767W        W17631  15.045  14.885  13.981
16768W        W17632  15.587  15.964  13.030
16769W        W17633  16.004  15.663  10.904
16770W        W17634  14.716  17.413  13.782
16771W        W17635  16.064  16.131  13.129
16772W        W17636  16.054  15.018  10.983
16773W        W17637  15.415  16.287  12.220
16774W        W17638  14.869  18.027  13.493
16775W        W17639  17.606  16.328  11.612
16776W        W17640  17.849  15.121  14.204
16777W        W17641  17.374  17.148  12.302
16778W        W17642  14.746  16.252  14.353
16779W        W17643  17.780  14.871  11.580
16780W        W17644  17.688  17.011  11.438
16781W        W17645  16.258  16.058  11.848
16782W        W17646  17.380  14.886  11.139
16783W        W17647  17.340  15.688  13.431
16784W        W17648  14.877  16.147  12.504
16785W        W17649  15.341  16.962  12.370
16786W        W17650  17.135  15.689  12.237
16787W        W17651  16.206  15.142  13.067
16788W        W17652  17.989  17.049  13.331
16789W        W17653  18.054  15.228  13.189
16790W        W17654  14.615  17.846  12.598
16791W        W17655  14.931  17.060  12.003
16792W        W17656  15.129  14.963  14.494
16793W        W17657  16.053  17.526  14.635
16794W        W17658  17.946  16.475  12.549
16795W        W17659  17.241  16.630  11.321
16796W        W17660  16.715  18.308  13.303
16797W        W17661  17.440  16.899  14.431
16798W        W17662  16.312  14.652  11.788
16799W        W17663  16.722  15.608  12.579
16800W        W17664  14.715  17.033  13.010
16801W        W17665  15.960  15.027  11.709
16802W        W17666  15.711  16.573  14.348
16803W        W17667  16.736  15.413  12.082
16804W        W17668  16.971  17.002  13.313
16805W        W17669  15.153  17.596  13.603
16806W        W17670  15.568  17.504  14.475
16807W        W17671  15.640  15.133  11.321
16808W        W17672  17.078  15.624  11.704
16809W        W17673  16.942  17.596  13.971
16810W        W17674  15.758  16.217  12.621
16811W        W17675  15.382  17.962  13.334
16812W        W17676  18.002  18.167  10.985
16813W        W17677  14.948  16.759  14.329
16814W        W17678  16.651  16.839  12.932
16815W        W17679  15.352  16.708  11.926
16816W        W17680  15.852  17.685  13.381
16817W        W17681  16.116  14.912  12.582
16818W        W17682  14.464  17.192  11.792
16819W        W17683  16.553  15.859  11.007
16820W        W17684  14.961  16.585  12.254
16821W        W17685  16.057  15.157  14.022
16822W        W17686  17.863  14.714  11.067
16823W        W17687  17.868  16.639  14.237
16824W        W17688  16.728  17.933  14.295
16825W        W17689  18.071  16.897  13.830
16826W        W17690  17.728  17.661  14.405
16827W        W17691  15.429  18.219  12.888
16828W        W17692  18.100  16.880  12.229
16829W        W17693  16.622  16.092  12.427
16830W        W17694  16.453  14.665  12.295
16831W        W17695  15.600  17.638  12.193
16832W        W17696  16.065  15.313  13.533
16833W        W17697  16.093  14.631  13.007
16834W        W17698  14.819  17.758  11.344
16835W        W17699  16.229  16.811  12.155
16836W        W17700  15.608  17.734  13.826
16837W        W17701  14.782  16.638  11.745
16838W        W17702  14.864  15.201  12.772
16839W        W17703  16.220  17.047  12.633
16840W        W17704  14.723  14.989  11.817
16841W        W17705  17.245  16.148  13.612
16842W        W17706  17.292  15.390  11.120
16843W        W17707  17.625  17.168  12.953
16844W        W17708  16.437  17.549  12.659
16845W        W17709  15.832  17.904  11.706
16846W        W17710  17.001  14.569  10.931
16847W        W17711  14.973  17.942  12.977
16848W        W17712  16.719  15.700  14.388
16849W        W17713  14.852  15.382  14.547
16850W        W17714  14.690  15.704  12.048
16851W        W17715  16.154  15.913  11.349
16852W        W17716  16.977  16.159  14.289
16853W        W17717  15.642  16.480  13.073
16854W        W17718  16.955  14.770  12.316
16855W        W17719  16.320  18.058  12.548
16856W        W17720  17.368  17.549  13.619
16857W        W17721  17.175  17.522  12.648
16858W        W17722  17.066  16.739  12.336
16859W        W17723  16.404  15.009  11.405
16860W        W17724  18.210  14.652  12.201
16861W        W17725  15.881  16.185  10.813
16862W        W17726  17.904  15.511  12.267
16863W        W17727  16.898  16.826  10.934
16864W        W17728  17.552  16.922  13.931
16865W        W17729  17.225  17.823  11.103
16866W        W17730  15.764  15.347  14.407
16867W        W17731  15.724  15.887  13.521
16868W        W17732  17.822  17.345  13.812
16869W        W17733  16.900  15.334  13.989
16870W        W17734  14.633  15.863  13.973
16871W        W17735  16.363  16.257  13.640
16872W        W17736  14.860  17.011  12.508
16873W        W17737  15.100  16.164  12.988
16874W        W17738  17.213  16.665  13.625
16875W        W17739  17.283  17.916  14.253
16876W        W17740  16.897  15.830  13.878
16877W        W17741  17.428  17.889  12.291
16878W        W17742  16.384  17.613  13.359
16879W        W17743  15.646  17.758  12.928
16880W        W17744  17.488  17.075  13.443
16881W        W17745  16.430  17.142  14.574
16882W        W17746  15.216  17.027  12.884
16883W        W17747  17.542  16.782  12.622
16884W        W17748  17.140  17.924  13.243
16885W        W17749  15.237  17.522  13.104
16886W        W17750  16.184  15.635  14.372
16887W        W17751  16.346  17.633  11.723
16888W        W17752  15.911  17.049  14.482
16889W        W17753  15.903  17.411  11.842
16890W        W17754  15.479  15.759  10.710
16891W        W17755  14.724  18.253  17.993
16892W        W17756  15.068  17.121  17.522
16893W        W17757  17.747  16.644  15.210
16894W        W17758  18.061  17.959  17.325
16895W        W17759  15.737  17.946  14.714
16896W        W17760  16.033  16.128  15.663
16897W        W17761  15.676  16.218  16.535
16898W        W17762  16.452  16.547  15.394
16899W        W17763  16.152  17.873  17.647
16900W        W17764  14.633  15.374  17.562
16901W        W17765  15.328  14.605  17.509
16902W        W17766  17.216  15.112  16.291
16903W        W17767  16.760  15.832  14.917
16904W        W17768  17.324  15.472  17.980
16905W        W17769  14.732  15.042  17.172
16906W        W17770  14.892  17.772  18.094
16907W        W17771  16.112  17.134  14.989
16908W        W17772  14.673  15.846  16.667
16909W        W17773  15.779  15.910  17.829
16910W        W17774  18.017  15.565  16.340
16911W        W17775  17.831  16.675  17.114
16912W        W17776  16.496  15.937  16.234
16913W        W17777  16.928  17.389  16.630
16914W        W17778  15.102  16.798  16.761
16915W        W17779  14.442  16.305  16.557
16916W        W17780  15.783  16.322  17.498
16917W        W17781  17.904  16.124  17.889
16918W        W17782  15.449  17.739  16.230
16919W        W17783  16.699  17.190  17.320
16920W        W17784  16.121  15.889  16.595
16921W        W17785  15.909  16.666  16.284
16922W        W17786  16.952  17.476  18.061
16923W        W17787  16.340  16.646  18.122
16924W        W17788  16.264  16.486  17.622
16925W        W17789  14.686  15.703  17.981
16926W        W17790  17.361  17.359  17.742
16927W        W17791  15.082  14.872  15.760
16928W        W17792  15.589  17.332  16.840
16929W        W17793  18.118  16.826  16.236
16930W        W17794  17.611  15.322  16.566
16931W        W17795  17.691  15.332  14.644
16932W        W17796  18.031  16.203  16.962
16933W        W17797  16.307  17.884  16.897
16934W        W17798  17.914  17.097  15.383
16935W        W17799  15.021  18.355  15.184
16936W        W17800  15.451  18.325  15.504
16937W        W17801  15.356  14.913  17.064
16938W        W17802  17.736  15.900  17.291
16939W        W17803  17.326  16.263  15.808
16940W        W17804  17.178  16.117  14.814
16941W        W17805  16.497  17.214  16.848
16942W        W17806  16.435  15.442  16.159
16943W        W17807  16.787  17.639  17.052
16944W        W17808  17.750  16.272  15.547
16945W        W17809  16.786  15.050  15.514
16946W        W17810  15.194  17.896  15.358
16947W        W17811  14.748  15.248  15.844
16948W        W17812  17.424  15.751  16.361
16949W        W17813  14.974  17.571  16.287
16950W        W17814  16.192  17.873  14.997
16951W        W17815  17.563  15.848  14.575
16952W        W17816  14.747  17.632  16.864
16953W        W17817  15.487  17.399  17.347
16954W        W17818  16.190  16.599  15.842
16955W        W17819  15.876  15.068  16.974
16956W        W17820  18.231  14.614  16.472
16957W        W17821  15.336  16.718  14.679
16958W        W17822  14.950  15.553  15.029
16959W        W17823  15.112  17.594  15.787
16960W        W17824  15.871  16.996  15.892
16961W        W17825  17.592  17.818  17.506
16962W        W17826  16.612  15.514  15.288
16963W        W17827  17.755  18.218  16.164
16964W        W17828  17.454  15.933  17.730
16965W        W17829  18.232  17.486  16.033
16966W        W17830  16.802  16.684  17.339
16967W        W17831  14.602  16.357  15.711
16968W        W17832  15.462  16.930  17.140
16969W        W17833  16.911  15.976  15.498
16970W        W17834  16.911  16.503  15.618
16971W        W17835  14.955  15.839  17.110
16972W        W17836  15.032  15.775  17.604
16973W        W17837  15.019  14.694  16.232
16974W        W17838  16.689  15.145  16.541
16975W        W17839  16.474  15.178  17.830
16976W        W17840  16.886  15.165  15.014
16977W        W17841  18.071  17.708  17.800
16978W        W17842  16.860  14.704  17.728
16979W        W17843  17.845  17.184  17.913
16980W        W17844  17.417  15.463  17.461
16981W        W17845  17.215  15.208  15.770
16982W        W17846  17.505  16.401  18.065
16983W        W17847  15.189  18.074  15.920
16984W        W17848  16.113  15.565  15.236
16985W        W17849  15.412  14.983  17.849
16986W        W17850  17.623  15.455  15.546
16987W        W17851  17.949  15.828  15.362
16988W        W17852  15.770  18.037  17.974
16989W        W17853  15.545  14.771  15.245
16990W        W17854  17.944  15.035  16.285
16991W        W17855  18.172  17.436  14.598
16992W        W17856  14.763  16.719  16.342
16993W        W17857  16.939  15.245  14.517
16994W        W17858  18.013  17.557  16.521
16995W        W17859  18.004  14.858  17.037
16996W        W17860  16.607  15.976  17.835
16997W        W17861  16.218  17.004  15.506
16998W        W17862  16.897  16.687  18.288
16999W        W17863  16.780  14.670  16.333
17000W        W17864  15.173  15.631  16.464
17001W        W17865  14.915  16.722  17.242
17002W        W17866  16.670  17.818  16.059
17003W        W17867  17.854  15.685  16.839
17004W        W17868  16.606  17.963  17.401
17005W        W17869  17.877  16.492  14.724
17006W        W17870  16.529  16.205  15.799
17007W        W17871  18.114  14.961  17.539
17008W        W17872  16.330  16.855  17.207
17009W        W17873  16.600  15.637  16.645
17010W        W17874  17.422  15.907  15.420
17011W        W17875  17.618  15.609  15.054
17012W        W17876  17.655  17.520  15.554
17013W        W17877  17.268  17.112  16.357
17014W        W17878  17.280  16.372  15.287
17015W        W17879  16.450  16.526  16.284
17016W        W17880  17.408  16.292  16.319
17017W        W17881  14.980  15.381  16.862
17018W        W17882  17.664  16.365  17.506
17019W        W17883  18.085  18.002  16.773
17020W        W17884  15.942  17.582  16.156
17021W        W17885  17.125  17.973  17.321
17022W        W17886  16.944  15.351  17.174
17023W        W17887  16.286  18.305  17.194
17024W        W17888  17.944  15.116  15.748
17025W        W17889  17.487  16.211  16.850
17026W        W17890  14.529  15.547  17.070
17027W        W17891  17.621  15.390  16.053
17028W        W17892  17.853  15.632  17.720
17029W        W17893  16.866  17.322  16.085
17030W        W17894  16.113  17.870  15.746
17031W        W17895  15.114  15.027  15.026
17032W        W17896  16.337  14.844  16.781
17033W        W17897  15.322  17.658  14.911
17034W        W17898  15.940  16.552  15.368
17035W        W17899  16.455  16.946  17.700
17036W        W17900  16.327  15.176  15.727
17037W        W17901  17.552  14.876  15.978
17038W        W17902  17.234  18.231  16.358
17039W        W17903  16.721  17.867  16.586
17040W        W17904  16.095  16.923  16.724
17041W        W17905  17.773  17.666  17.006
17042W        W17906  15.546  15.071  15.670
17043W        W17907  16.063  17.466  16.697
17044W        W17908  15.351  15.378  14.717
17045W        W17909  16.364  15.841  17.064
17046W        W17910  17.111  14.874  16.748
17047W        W17911  14.598  16.717  16.830
17048W        W17912  16.213  16.362  14.958
17049W        W17913  15.590  14.914  14.739
17050W        W17914  16.331  15.711  15.714
17051W        W17915  17.122  14.878  17.295
17052W        W17916  15.927  16.866  17.542
17053W        W17917  16.730  16.502  17.825
17054W        W17918  17.209  16.563  17.665
17055W        W17919  16.411  14.826  18.220
17056W        W17920  15.692  15.573  16.520
17057W        W17921  15.250  15.334  16.011
17058W        W17922  14.799  18.149  15.609
17059W        W17923  16.435  17.452  17.805
17060W        W17924  15.188  16.977  15.129
17061W        W17925  16.919  16.441  16.448
17062W        W17926  17.040  15.963  16.600
17063W        W17927  16.562  16.668  16.792
17064W        W17928  17.002  17.047  14.698
17065W        W17929  16.774  15.094  16.032
17066W        W17930  18.295  15.440  15.395
17067W        W17931  14.878  18.047  17.544
17068W        W17932  15.083  17.266  17.016
17069W        W17933  14.427  18.090  15.261
17070W        W17934  16.420  15.313  17.015
17071W        W17935  15.801  17.555  15.114
17072W        W17936  17.880  17.468  15.023
17073W        W17937  16.788  16.319  15.084
17074W        W17938  15.863  15.481  15.671
17075W        W17939  16.486  15.408  14.771
17076W        W17940  16.947  16.997  17.842
17077W        W17941  17.538  14.929  15.460
17078W        W17942  14.714  14.697  14.933
17079W        W17943  15.952  17.188  17.151
17080W        W17944  15.776  17.155  16.386
17081W        W17945  15.588  17.171  14.860
17082W        W17946  14.723  17.673  15.449
17083W        W17947  15.379  16.230  17.832
17084W        W17948  15.944  14.850  17.969
17085W        W17949  16.618  14.963  17.346
17086W        W17950  15.962  14.794  15.834
17087W        W17951  17.107  14.738  15.248
17088W        W17952  14.966  14.884  16.738
17089W        W17953  14.740  15.650  16.185
17090W        W17954  17.642  14.817  16.667
17091W        W17955  15.111  15.308  15.471
17092W        W17956  17.448  15.183  17.025
17093W        W17957  18.056  16.012  14.701
17094W        W17958  15.390  15.151  16.584
17095W        W17959  16.521  15.554  17.473
17096W        W17960  14.581  15.199  14.955
17097W        W17961  15.386  16.656  17.552
17098W        W17962  16.563  16.152  16.698
17099W        W17963  16.585  18.214  14.884
17100W        W17964  14.764  16.537  14.794
17101W        W17965  15.542  17.104  17.762
17102W        W17966  15.053  16.256  17.408
17103W        W17967  15.887  16.621  17.091
17104W        W17968  17.624  14.854  17.391
17105W        W17969  18.173  16.451  17.431
17106W        W17970  18.122  16.289  15.169
17107W        W17971  16.991  16.788  15.173
17108W        W17972  17.538  18.098  14.677
17109W        W17973  16.645  16.234  18.270
17110W        W17974  15.141  17.225  18.049
17111W        W17975  18.213  15.149  18.009
17112W        W17976  17.835  16.042  16.479
17113W        W17977  16.256  18.017  18.143
17114W        W17978  16.026  14.747  14.970
17115W        W17979  17.815  16.996  14.792
17116W        W17980  15.459  15.533  17.703
17117W        W17981  15.926  17.417  17.632
17118W        W17982  17.893  15.353  17.261
17119W        W17983  17.697  17.926  15.153
17120W        W17984  17.312  16.694  16.652
17121W        W17985  15.633  15.140  17.426
17122W        W17986  16.176  16.162  18.037
17123W        W17987  15.374  17.403  15.381
17124W        W17988  17.452  16.736  15.625
17125W        W17989  15.125  15.307  17.373
17126W        W17990  16.333  17.375  15.873
17127W        W17991  18.251  15.981  16.151
17128W        W17992  16.343  14.692  17.700
17129W        W17993  17.440  17.459  16.680
17130W        W17994  17.625  17.907  16.531
17131W        W17995  16.565  17.634  14.717
17132W        W17996  14.699  17.355  17.832
17133W        W17997  15.473  15.440  17.023
17134W        W17998  15.480  14.887  16.147
17135W        W17999  17.101  15.419  16.692
17136W        W18000  15.828  16.711  14.876
17137W        W18001  17.795  16.566  16.596
17138W        W18002  15.129  17.610  17.673
17139W        W18003  17.680  18.226  15.589
17140W        W18004  15.879  15.221  16.116
17141W        W18005  15.422  16.817  16.174
17142W        W18006  15.798  18.208  17.052
17143W        W18007  17.800  18.146  17.849
17144W        W18008  16.954  16.358  16.951
17145W        W18009  14.799  16.021  14.824
17146W        W18010  17.925  17.848  15.851
17147W        W18011  17.897  15.179  15.187
17148W        W18012  15.842  14.650  17.448
17149W        W18013  17.620  17.518  16.178
17150W        W18014  17.707  15.924  15.953
17151W        W18015  16.006  15.712  16.121
17152W        W18016  16.201  15.999  17.518
17153W        W18017  17.176  17.046  17.391
17154W        W18018  15.916  15.586  17.453
17155W        W18019  15.798  18.103  16.135
17156W        W18020  15.260  18.103  17.896
17157W        W18021  14.879  17.391  15.038
17158W        W18022  17.861  17.161  15.903
17159W        W18023  15.477  15.922  17.361
17160W        W18024  18.121  15.531  14.881
17161W        W18025  15.727  17.021  15.330
17162W        W18026  16.726  16.183  17.400
17163W        W18027  16.868  15.838  17.059
17164W        W18028  15.420  16.401  17.070
17165W        W18029  17.551  18.261  16.898
17166W        W18030  17.317  14.859  17.884
17167W        W18031  14.922  14.905  17.647
17168W        W18032  15.396  15.919  16.846
17169W        W18033  15.773  15.706  14.781
17170W        W18034  14.703  17.578  17.369
17171W        W18035  16.121  16.410  16.674
17172W        W18036  15.992  15.246  14.865
17173W        W18037  15.678  16.519  15.827
17174W        W18038  14.817  18.139  17.042
17175W        W18039  17.653  16.137  15.018
17176W        W18040  17.715  15.159  17.790
17177W        W18041  17.344  17.187  15.857
17178W        W18042  14.863  16.174  17.886
17179W        W18043  17.961  14.666  15.176
17180W        W18044  17.445  17.071  15.161
17181W        W18045  16.417  16.018  15.304
17182W        W18046  17.395  15.112  14.993
17183W        W18047  17.363  15.716  16.996
17184W        W18048  14.867  16.189  16.289
17185W        W18049  15.481  17.307  15.983
17186W        W18050  17.254  15.715  15.856
17187W        W18051  16.157  15.316  16.565
17188W        W18052  18.035  17.199  16.998
17189W        W18053  18.121  15.250  16.731
17190W        W18054  14.718  17.975  16.089
17191W        W18055  14.908  17.196  15.522
17192W        W18056  14.999  14.954  18.208
17193W        W18057  16.004  17.569  18.161
17194W        W18058  17.904  16.366  16.086
17195W        W18059  17.384  16.640  14.864
17196W        W18060  16.772  18.213  16.976
17197W        W18061  17.421  16.902  18.028
17198W        W18062  16.253  14.630  15.423
17199W        W18063  16.933  15.569  16.242
17200W        W18064  14.768  17.184  16.600
17201W        W18065  15.963  15.061  15.377
17202W        W18066  15.848  16.577  17.952
17203W        W18067  16.796  15.523  15.756
17204W        W18068  16.973  16.963  16.922
17205W        W18069  15.157  17.767  17.195
17206W        W18070  15.528  17.591  17.974
17207W        W18071  15.563  15.304  15.176
17208W        W18072  17.138  15.485  15.334
17209W        W18073  16.917  17.570  17.562
17210W        W18074  16.068  16.208  16.171
17211W        W18075  15.322  18.137  16.892
17212W        W18076  18.021  17.943  14.705
17213W        W18077  14.927  16.685  17.795
17214W        W18078  16.767  16.942  16.416
17215W        W18079  15.340  16.937  15.660
17216W        W18080  15.856  17.700  17.125
17217W        W18081  16.311  14.942  16.229
17218W        W18082  14.643  17.027  14.712
17219W        W18083  16.256  15.862  14.833
17220W        W18084  15.019  16.602  15.905
17221W        W18085  16.139  15.113  17.440
17222W        W18086  17.967  14.911  14.736
17223W        W18087  17.971  16.649  17.869
17224W        W18088  16.684  17.897  17.905
17225W        W18089  18.144  16.973  17.468
17226W        W18090  17.641  17.649  18.053
17227W        W18091  15.351  18.213  16.398
17228W        W18092  17.971  16.699  15.715
17229W        W18093  16.958  16.072  16.085
17230W        W18094  16.529  14.674  15.851
17231W        W18095  15.586  17.839  15.724
17232W        W18096  15.956  15.571  16.958
17233W        W18097  15.871  14.877  16.494
17234W        W18098  14.792  17.887  14.969
17235W        W18099  16.625  16.871  15.893
17236W        W18100  15.578  17.878  17.524
17237W        W18101  14.783  16.695  15.326
17238W        W18102  14.891  15.184  16.344
17239W        W18103  16.271  17.019  16.246
17240W        W18104  14.730  14.955  15.400
17241W        W18105  17.240  16.124  17.312
17242W        W18106  17.186  15.572  14.800
17243W        W18107  17.778  17.088  16.534
17244W        W18108  16.463  17.471  16.383
17245W        W18109  15.819  18.036  15.304
17246W        W18110  17.040  14.757  14.732
17247W        W18111  14.896  18.017  16.552
17248W        W18112  16.803  15.557  18.063
17249W        W18113  15.034  15.342  17.888
17250W        W18114  14.707  15.848  15.699
17251W        W18115  15.889  16.033  15.175
17252W        W18116  17.066  16.133  17.972
17253W        W18117  15.602  16.746  16.678
17254W        W18118  17.066  14.715  15.857
17255W        W18119  16.249  17.963  16.362
17256W        W18120  17.293  17.505  17.187
17257W        W18121  17.150  17.715  16.312
17258W        W18122  17.105  16.710  16.053
17259W        W18123  16.410  15.050  15.147
17260W        W18124  18.251  14.766  15.978
17261W        W18125  15.661  16.237  14.742
17262W        W18126  18.070  15.606  15.826
17263W        W18127  16.546  16.751  14.896
17264W        W18128  17.626  16.876  17.547
17265W        W18129  17.452  17.345  14.694
17266W        W18130  15.865  15.325  17.890
17267W        W18131  15.877  16.085  17.035
17268W        W18132  17.772  17.349  17.418
17269W        W18133  16.976  15.225  17.667
17270W        W18134  14.551  15.892  17.492
17271W        W18135  16.330  16.347  17.133
17272W        W18136  14.989  17.111  16.046
17273W        W18137  14.934  16.301  16.852
17274W        W18138  17.330  16.615  17.168
17275W        W18139  17.220  17.891  17.857
17276W        W18140  16.994  15.743  17.578
17277W        W18141  17.400  17.941  15.924
17278W        W18142  16.322  17.529  17.284
17279W        W18143  15.755  17.894  16.627
17280W        W18144  17.521  17.070  17.003
17281W        W18145  16.576  17.108  18.187
17282W        W18146  15.269  17.200  16.476
17283W        W18147  17.603  16.774  16.142
17284W        W18148  17.183  17.896  16.811
17285W        W18149  15.249  17.674  16.701
17286W        W18150  16.241  15.651  17.915
17287W        W18151  16.271  17.507  15.351
17288W        W18152  16.065  17.074  18.012
17289W        W18153  15.853  17.424  15.628
17290W        W18154  15.284  15.883  14.734
17291W        W18155  14.681  18.266  21.655
17292W        W18156  15.070  17.140  21.165
17293W        W18157  17.745  16.764  18.869
17294W        W18158  18.088  17.913  20.859
17295W        W18159  15.672  17.893  18.456
17296W        W18160  15.910  16.060  19.251
17297W        W18161  15.440  15.844  19.726
17298W        W18162  16.306  16.575  19.019
17299W        W18163  16.133  17.866  21.299
17300W        W18164  14.651  15.352  21.261
17301W        W18165  15.147  14.534  21.067
17302W        W18166  17.223  15.092  19.914
17303W        W18167  16.863  15.828  18.550
17304W        W18168  17.249  15.575  21.489
17305W        W18169  14.777  15.023  20.829
17306W        W18170  14.824  17.794  21.792
17307W        W18171  16.177  17.236  18.536
17308W        W18172  14.738  15.710  20.313
17309W        W18173  15.836  15.968  21.428
17310W        W18174  18.107  15.575  19.988
17311W        W18175  17.810  16.733  20.742
17312W        W18176  16.371  15.992  19.873
17313W        W18177  16.871  17.418  20.281
17314W        W18178  15.249  16.683  20.505
17315W        W18179  14.545  16.166  20.149
17316W        W18180  15.778  16.319  21.057
17317W        W18181  17.928  16.083  21.396
17318W        W18182  15.511  17.523  19.900
17319W        W18183  16.682  17.283  20.916
17320W        W18184  16.094  15.743  20.215
17321W        W18185  16.096  16.632  19.870
17322W        W18186  17.081  17.587  21.697
17323W        W18187  16.314  16.623  21.769
17324W        W18188  16.303  16.532  21.228
17325W        W18189  14.679  15.713  21.654
17326W        W18190  17.444  17.486  21.323
17327W        W18191  15.087  14.903  19.384
17328W        W18192  15.616  17.102  20.444
17329W        W18193  18.020  17.028  19.756
17330W        W18194  17.632  15.394  20.193
17331W        W18195  17.799  15.465  18.214
17332W        W18196  18.466  16.027  20.712
17333W        W18197  16.225  17.885  20.447
17334W        W18198  17.922  17.256  18.878
17335W        W18199  14.994  18.092  18.928
17336W        W18200  15.396  18.060  19.286
17337W        W18201  15.311  14.925  20.765
17338W        W18202  17.803  15.963  20.917
17339W        W18203  17.220  16.377  19.526
17340W        W18204  17.150  16.248  18.463
17341W        W18205  16.449  17.209  20.456
17342W        W18206  16.419  15.461  19.769
17343W        W18207  16.856  17.727  20.687
17344W        W18208  17.678  16.469  19.280
17345W        W18209  16.796  15.092  19.077
17346W        W18210  15.335  17.707  18.919
17347W        W18211  14.744  15.275  19.451
17348W        W18212  17.215  15.989  19.859
17349W        W18213  15.008  17.489  19.945
17350W        W18214  16.150  17.763  18.642
17351W        W18215  17.518  15.923  18.248
17352W        W18216  14.800  17.515  20.473
17353W        W18217  15.535  17.165  20.931
17354W        W18218  15.928  16.585  19.380
17355W        W18219  15.732  15.075  20.477
17356W        W18220  18.212  14.816  20.094
17357W        W18221  15.372  16.730  18.085
17358W        W18222  14.936  15.445  18.385
17359W        W18223  15.178  17.541  19.425
17360W        W18224  15.917  17.106  19.467
17361W        W18225  17.642  17.927  21.121
17362W        W18226  16.549  15.561  18.892
17363W        W18227  17.769  18.251  19.746
17364W        W18228  17.430  15.999  21.270
17365W        W18229  18.235  17.502  19.608
17366W        W18230  16.839  16.798  21.057
17367W        W18231  14.740  16.298  19.306
17368W        W18232  15.725  16.692  20.709
17369W        W18233  16.847  15.985  19.058
17370W        W18234  16.779  16.495  19.263
17371W        W18235  15.102  15.815  20.702
17372W        W18236  15.082  15.796  21.251
17373W        W18237  15.020  14.786  19.879
17374W        W18238  16.713  15.108  20.114
17375W        W18239  16.444  15.231  21.416
17376W        W18240  16.846  15.309  18.548
17377W        W18241  18.038  17.790  21.418
17378W        W18242  16.792  14.870  21.504
17379W        W18243  17.884  17.295  21.528
17380W        W18244  17.337  15.546  20.974
17381W        W18245  17.232  15.271  19.393
17382W        W18246  17.440  16.380  21.638
17383W        W18247  15.204  17.932  19.747
17384W        W18248  16.079  15.485  18.732
17385W        W18249  15.445  15.031  21.428
17386W        W18250  17.557  15.542  19.073
17387W        W18251  17.892  15.988  19.097
17388W        W18252  15.736  18.052  21.608
17389W        W18253  15.543  14.746  18.824
17390W        W18254  17.917  15.150  19.783
17391W        W18255  18.065  17.445  18.343
17392W        W18256  15.062  16.602  20.027
17393W        W18257  16.876  15.035  18.130
17394W        W18258  18.085  17.536  20.100
17395W        W18259  17.987  14.758  20.575
17396W        W18260  16.597  16.158  21.429
17397W        W18261  16.435  17.096  19.027
17398W        W18262  17.127  16.700  21.900
17399W        W18263  16.854  14.669  19.826
17400W        W18264  15.211  15.644  20.143
17401W        W18265  14.899  16.735  20.895
17402W        W18266  16.638  17.803  19.674
17403W        W18267  18.040  15.816  20.464
17404W        W18268  16.617  17.981  21.057
17405W        W18269  17.862  16.616  18.373
17406W        W18270  16.334  16.283  19.447
17407W        W18271  18.016  14.757  21.092
17408W        W18272  16.431  16.814  20.773
17409W        W18273  16.601  15.595  20.260
17410W        W18274  17.317  15.919  18.825
17411W        W18275  17.785  15.746  18.647
17412W        W18276  17.636  17.546  19.205
17413W        W18277  17.205  17.061  20.074
17414W        W18278  17.214  16.397  18.971
17415W        W18279  16.604  16.470  19.840
17416W        W18280  17.582  16.364  19.952
17417W        W18281  15.041  15.334  20.525
17418W        W18282  17.658  16.474  21.175
17419W        W18283  18.087  17.993  20.347
17420W        W18284  16.004  17.531  19.802
17421W        W18285  17.172  18.095  20.931
17422W        W18286  16.911  15.426  20.689
17423W        W18287  16.287  18.289  20.829
17424W        W18288  17.758  15.112  19.257
17425W        W18289  17.774  16.279  20.489
17426W        W18290  14.659  15.563  20.796
17427W        W18291  17.463  15.552  19.747
17428W        W18292  17.737  15.589  21.297
17429W        W18293  16.787  17.300  19.793
17430W        W18294  16.137  17.860  19.426
17431W        W18295  15.108  15.013  18.690
17432W        W18296  16.344  14.749  20.297
17433W        W18297  15.175  18.078  18.424
17434W        W18298  15.809  16.464  18.878
17435W        W18299  16.375  17.039  21.259
17436W        W18300  16.337  15.211  19.302
17437W        W18301  17.567  14.811  19.634
17438W        W18302  17.269  18.241  19.926
17439W        W18303  16.707  17.946  20.237
17440W        W18304  16.093  16.828  20.352
17441W        W18305  17.803  17.613  20.527
17442W        W18306  15.555  15.089  19.243
17443W        W18307  16.002  17.394  20.300
17444W        W18308  15.440  15.339  18.224
17445W        W18309  16.421  15.983  20.558
17446W        W18310  17.236  14.723  20.465
17447W        W18311  14.749  16.546  20.452
17448W        W18312  16.206  16.348  18.535
17449W        W18313  15.523  14.827  18.317
17450W        W18314  16.328  15.770  19.359
17451W        W18315  17.146  14.896  20.972
17452W        W18316  15.892  16.842  21.160
17453W        W18317  16.759  16.656  21.538
17454W        W18318  17.250  16.804  21.397
17455W        W18319  16.349  14.907  21.824
17456W        W18320  15.700  15.452  20.068
17457W        W18321  15.209  15.348  19.685
17458W        W18322  14.837  17.922  19.372
17459W        W18323  16.517  17.529  21.354
17460W        W18324  15.487  16.926  18.704
17461W        W18325  17.086  16.515  20.028
17462W        W18326  17.302  16.151  20.323
17463W        W18327  16.512  16.483  20.362
17464W        W18328  17.139  17.140  18.401
17465W        W18329  16.783  15.113  19.597
17466W        W18330  18.048  15.463  18.979
17467W        W18331  14.815  17.920  21.276
17468W        W18332  15.099  17.143  20.638
17469W        W18333  14.481  17.929  18.962
17470W        W18334  16.478  15.155  20.591
17471W        W18335  15.727  17.441  18.684
17472W        W18336  17.865  17.759  18.776
17473W        W18337  16.724  16.376  18.749
17474W        W18338  15.899  15.498  19.219
17475W        W18339  16.387  15.352  18.309
17476W        W18340  16.885  17.174  21.433
17477W        W18341  17.309  15.033  18.936
17478W        W18342  14.689  14.669  18.548
17479W        W18343  16.033  17.145  20.767
17480W        W18344  15.778  17.055  19.964
17481W        W18345  15.630  17.174  18.264
17482W        W18346  14.823  17.520  19.048
17483W        W18347  15.378  16.219  21.381
17484W        W18348  15.881  14.807  21.625
17485W        W18349  16.632  14.927  21.019
17486W        W18350  15.986  14.785  19.399
17487W        W18351  16.866  14.808  18.643
17488W        W18352  14.981  14.825  20.400
17489W        W18353  14.791  15.683  19.794
17490W        W18354  17.683  14.876  20.163
17491W        W18355  15.110  15.340  19.095
17492W        W18356  17.560  15.102  20.614
17493W        W18357  18.038  16.120  18.375
17494W        W18358  15.321  15.132  20.155
17495W        W18359  16.475  15.546  20.977
17496W        W18360  14.535  15.156  18.573
17497W        W18361  15.383  16.684  21.109
17498W        W18362  16.799  16.082  20.162
17499W        W18363  16.554  18.111  18.572
17500W        W18364  14.691  16.483  18.270
17501W        W18365  15.531  17.114  21.425
17502W        W18366  15.051  16.250  20.985
17503W        W18367  16.148  16.405  20.718
17504W        W18368  17.570  14.615  20.868
17505W        W18369  18.124  16.357  20.910
17506W        W18370  18.129  16.401  18.817
17507W        W18371  16.952  16.837  18.818
17508W        W18372  17.480  18.087  18.277
17509W        W18373  16.697  16.279  21.924
17510W        W18374  15.107  17.117  21.701
17511W        W18375  17.972  15.144  21.454
17512W        W18376  17.707  15.894  20.071
17513W        W18377  16.251  18.011  21.784
17514W        W18378  16.012  14.696  18.549
17515W        W18379  17.690  17.100  18.430
17516W        W18380  15.515  15.555  21.394
17517W        W18381  15.948  17.373  21.232
17518W        W18382  17.897  15.446  20.826
17519W        W18383  17.395  17.911  18.933
17520W        W18384  17.432  16.688  20.373
17521W        W18385  15.643  15.245  20.979
17522W        W18386  16.184  16.131  21.778
17523W        W18387  15.520  17.257  19.112
17524W        W18388  17.272  16.819  19.251
17525W        W18389  15.139  15.341  21.039
17526W        W18390  16.376  17.377  19.480
17527W        W18391  18.128  15.989  19.688
17528W        W18392  16.307  14.712  21.348
17529W        W18393  17.359  17.513  20.303
17530W        W18394  17.643  17.882  20.084
17531W        W18395  16.512  17.605  18.313
17532W        W18396  14.730  17.384  21.474
17533W        W18397  15.539  15.563  20.560
17534W        W18398  15.498  14.915  19.718
17535W        W18399  17.142  15.649  20.263
17536W        W18400  15.933  16.778  18.444
17537W        W18401  17.899  16.704  20.159
17538W        W18402  15.201  17.580  21.426
17539W        W18403  17.663  18.246  19.221
17540W        W18404  15.935  15.217  19.666
17541W        W18405  15.547  16.652  19.734
17542W        W18406  15.817  18.111  20.709
17543W        W18407  17.749  18.217  21.530
17544W        W18408  16.984  16.481  20.553
17545W        W18409  14.827  15.996  18.382
17546W        W18410  17.949  17.884  19.437
17547W        W18411  17.730  15.199  18.686
17548W        W18412  15.752  14.712  20.976
17549W        W18413  17.722  17.485  19.728
17550W        W18414  17.637  16.033  19.558
17551W        W18415  15.954  15.724  19.706
17552W        W18416  16.238  16.036  21.068
17553W        W18417  17.173  17.194  21.014
17554W        W18418  15.965  15.609  21.096
17555W        W18419  15.734  17.996  19.761
17556W        W18420  15.222  18.091  21.554
17557W        W18421  15.268  17.560  18.426
17558W        W18422  17.718  17.060  19.326
17559W        W18423  15.523  15.869  20.997
17560W        W18424  18.296  15.836  18.728
17561W        W18425  15.940  16.960  18.955
17562W        W18426  17.063  16.358  21.215
17563W        W18427  16.942  15.951  20.650
17564W        W18428  15.461  16.234  20.638
17565W        W18429  17.630  18.098  20.635
17566W        W18430  17.277  15.057  21.509
17567W        W18431  14.940  14.931  21.322
17568W        W18432  15.617  15.978  20.207
17569W        W18433  15.868  15.674  18.284
17570W        W18434  14.714  17.496  20.979
17571W        W18435  16.074  16.252  20.232
17572W        W18436  15.916  15.159  18.380
17573W        W18437  15.451  16.270  19.401
17574W        W18438  14.827  17.996  20.744
17575W        W18439  17.644  16.272  18.685
17576W        W18440  17.601  15.106  21.116
17577W        W18441  17.279  17.254  19.581
17578W        W18442  14.868  16.181  21.526
17579W        W18443  17.821  14.677  18.670
17580W        W18444  17.404  17.154  18.871
17581W        W18445  16.353  16.059  18.940
17582W        W18446  17.315  14.993  18.407
17583W        W18447  17.537  15.756  20.553
17584W        W18448  14.984  16.159  19.761
17585W        W18449  15.401  17.117  19.599
17586W        W18450  17.219  15.812  19.363
17587W        W18451  16.184  15.241  20.170
17588W        W18452  18.042  17.176  20.623
17589W        W18453  18.082  15.235  20.379
17590W        W18454  14.677  17.922  19.848
17591W        W18455  15.031  17.081  19.237
17592W        W18456  14.976  14.970  21.901
17593W        W18457  16.147  17.505  21.704
17594W        W18458  18.017  16.501  19.687
17595W        W18459  17.369  16.699  18.528
17596W        W18460  16.774  18.282  20.643
17597W        W18461  17.407  17.176  21.743
17598W        W18462  16.263  14.579  18.967
17599W        W18463  16.932  15.554  19.822
17600W        W18464  14.750  17.028  20.221
17601W        W18465  15.967  15.028  18.949
17602W        W18466  15.881  16.487  21.532
17603W        W18467  16.771  15.550  19.351
17604W        W18468  16.987  17.001  20.570
17605W        W18469  15.215  17.588  20.897
17606W        W18470  15.655  17.550  21.660
17607W        W18471  15.561  15.277  18.743
17608W        W18472  17.067  15.506  18.952
17609W        W18473  16.989  17.657  21.185
17610W        W18474  15.833  16.212  19.765
17611W        W18475  15.336  17.991  20.604
17612W        W18476  17.981  17.951  18.308
17613W        W18477  14.949  16.683  21.411
17614W        W18478  16.720  16.895  20.133
17615W        W18479  15.484  16.762  19.210
17616W        W18480  15.742  17.587  20.711
17617W        W18481  16.345  14.923  19.787
17618W        W18482  14.658  16.997  18.863
17619W        W18483  16.343  15.848  18.443
17620W        W18484  15.081  16.621  19.508
17621W        W18485  16.137  15.099  21.015
17622W        W18486  17.821  14.942  18.243
17623W        W18487  17.738  16.792  21.616
17624W        W18488  16.731  17.959  21.556
17625W        W18489  18.147  17.044  21.150
17626W        W18490  17.626  17.713  21.733
17627W        W18491  15.400  18.191  20.134
17628W        W18492  18.118  16.760  19.239
17629W        W18493  16.787  16.039  19.574
17630W        W18494  16.550  14.708  19.371
17631W        W18495  15.677  17.625  19.414
17632W        W18496  16.056  15.450  20.629
17633W        W18497  15.895  14.845  20.036
17634W        W18498  14.792  17.756  18.592
17635W        W18499  16.403  16.825  19.486
17636W        W18500  15.622  17.796  21.171
17637W        W18501  15.019  16.628  18.993
17638W        W18502  14.825  15.246  20.047
17639W        W18503  16.292  17.101  19.926
17640W        W18504  14.706  14.968  19.028
17641W        W18505  17.365  16.213  20.816
17642W        W18506  17.336  15.504  18.508
17643W        W18507  17.718  17.177  20.163
17644W        W18508  16.429  17.564  20.075
17645W        W18509  15.818  17.914  19.002
17646W        W18510  16.994  14.544  18.228
17647W        W18511  14.989  17.918  20.236
17648W        W18512  16.685  15.780  21.799
17649W        W18513  15.057  15.366  21.565
17650W        W18514  14.766  15.776  19.286
17651W        W18515  15.896  15.967  18.723
17652W        W18516  17.070  16.042  21.630
17653W        W18517  15.657  16.551  20.216
17654W        W18518  17.115  14.764  19.369
17655W        W18519  16.231  18.019  19.921
17656W        W18520  17.364  17.631  20.807
17657W        W18521  17.094  17.741  19.926
17658W        W18522  16.942  16.828  19.649
17659W        W18523  16.413  15.044  18.717
17660W        W18524  18.096  14.728  19.489
17661W        W18525  15.721  16.199  18.281
17662W        W18526  17.894  15.585  19.472
17663W        W18527  16.467  16.803  18.591
17664W        W18528  17.639  17.016  21.149
17665W        W18529  17.461  17.562  18.527
17666W        W18530  15.943  15.298  21.507
17667W        W18531  15.904  15.950  20.661
17668W        W18532  17.850  17.465  21.016
17669W        W18533  16.915  15.312  21.204
17670W        W18534  14.600  15.887  21.181
17671W        W18535  16.645  16.318  20.902
17672W        W18536  14.894  17.024  19.734
17673W        W18537  15.064  16.143  20.295
17674W        W18538  17.310  16.717  20.879
17675W        W18539  17.275  18.010  21.469
17676W        W18540  16.917  15.839  21.159
17677W        W18541  17.431  17.902  19.551
17678W        W18542  16.274  17.598  20.872
17679W        W18543  15.747  17.839  20.252
17680W        W18544  17.518  17.151  20.641
17681W        W18545  16.491  17.116  21.765
17682W        W18546  15.261  17.067  20.099
17683W        W18547  17.520  16.813  19.737
17684W        W18548  17.191  18.007  20.394
17685W        W18549  15.324  17.530  20.377
17686W        W18550  16.290  15.715  21.481
17687W        W18551  16.480  17.734  19.065
17688W        W18552  15.991  17.006  21.636
17689W        W18553  16.043  17.452  19.085
17690W        W18554  15.221  15.799  18.086
17691W        W18555  14.810  18.138  25.356
17692W        W18556  15.015  17.059  24.864
17693W        W18557  17.804  16.885  23.084
17694W        W18558  18.134  17.894  24.708
17695W        W18559  15.659  17.891  22.088
17696W        W18560  15.872  16.127  23.071
17697W        W18561  15.418  15.838  23.458
17698W        W18562  16.397  16.430  22.783
17699W        W18563  16.055  17.862  24.829
17700W        W18564  14.659  15.358  25.010
17701W        W18565  15.286  14.569  24.850
17702W        W18566  17.109  15.087  23.650
17703W        W18567  16.832  15.872  22.289
17704W        W18568  17.321  15.496  25.211
17705W        W18569  14.793  15.018  24.575
17706W        W18570  14.916  17.643  25.459
17707W        W18571  16.075  17.184  22.119
17708W        W18572  14.611  15.674  23.996
17709W        W18573  15.712  15.854  25.218
17710W        W18574  17.757  15.733  23.692
17711W        W18575  17.787  16.740  24.541
17712W        W18576  16.268  16.104  23.660
17713W        W18577  16.852  17.459  23.966
17714W        W18578  15.182  16.650  24.154
17715W        W18579  14.492  16.205  23.851
17716W        W18580  15.627  16.255  24.873
17717W        W18581  17.878  16.073  25.132
17718W        W18582  15.493  17.389  23.621
17719W        W18583  16.538  17.293  24.643
17720W        W18584  15.952  15.822  23.955
17721W        W18585  16.095  16.602  23.729
17722W        W18586  16.576  17.640  25.564
17723W        W18587  16.223  16.669  25.446
17724W        W18588  16.254  16.532  24.963
17725W        W18589  14.581  15.713  25.378
17726W        W18590  17.332  17.239  25.100
17727W        W18591  15.024  14.855  23.070
17728W        W18592  15.527  17.044  24.212
17729W        W18593  17.855  17.107  23.563
17730W        W18594  17.571  15.331  23.983
17731W        W18595  17.631  15.392  21.781
17732W        W18596  18.226  16.042  24.381
17733W        W18597  16.072  17.867  23.974
17734W        W18598  18.007  17.565  22.515
17735W        W18599  15.061  18.098  22.591
17736W        W18600  15.499  18.110  22.973
17737W        W18601  15.268  14.881  24.426
17738W        W18602  17.772  15.975  24.637
17739W        W18603  17.158  16.309  23.523
17740W        W18604  17.188  16.215  22.100
17741W        W18605  16.372  17.248  24.137
17742W        W18606  16.329  15.422  23.439
17743W        W18607  16.810  17.677  24.423
17744W        W18608  17.599  16.466  23.285
17745W        W18609  16.729  15.109  22.719
17746W        W18610  15.326  17.676  22.724
17747W        W18611  14.637  15.132  23.267
17748W        W18612  17.249  15.809  23.685
17749W        W18613  14.988  17.520  23.703
17750W        W18614  16.123  17.712  22.200
17751W        W18615  17.590  15.902  21.767
17752W        W18616  14.779  17.545  24.198
17753W        W18617  15.488  17.241  24.691
17754W        W18618  15.761  16.641  23.324
17755W        W18619  15.627  15.145  24.174
17756W        W18620  18.203  14.842  23.746
17757W        W18621  15.422  16.671  21.660
17758W        W18622  14.922  15.458  22.061
17759W        W18623  15.173  17.452  23.233
17760W        W18624  15.799  17.160  23.274
17761W        W18625  17.642  18.043  24.761
17762W        W18626  16.468  15.542  22.567
17763W        W18627  17.765  18.149  23.505
17764W        W18628  17.387  15.980  25.001
17765W        W18629  18.239  17.446  23.343
17766W        W18630  16.756  16.810  24.761
17767W        W18631  14.519  16.335  22.898
17768W        W18632  15.478  16.706  24.580
17769W        W18633  16.697  15.984  22.781
17770W        W18634  16.724  16.310  23.187
17771W        W18635  15.010  15.829  24.406
17772W        W18636  15.051  15.764  25.156
17773W        W18637  14.966  14.742  23.573
17774W        W18638  16.597  15.175  23.826
17775W        W18639  16.397  15.199  25.153
17776W        W18640  16.816  15.350  22.238
17777W        W18641  18.163  17.679  25.160
17778W        W18642  16.744  14.795  25.118
17779W        W18643  17.852  17.323  25.370
17780W        W18644  17.421  15.240  24.781
17781W        W18645  17.070  15.253  23.106
17782W        W18646  17.578  16.376  25.454
17783W        W18647  15.268  17.942  23.437
17784W        W18648  15.989  15.520  22.380
17785W        W18649  15.592  14.926  25.104
17786W        W18650  17.411  15.577  22.948
17787W        W18651  17.741  15.917  22.781
17788W        W18652  15.766  18.143  25.156
17789W        W18653  15.510  14.679  22.519
17790W        W18654  17.951  15.262  23.642
17791W        W18655  18.080  17.521  21.953
17792W        W18656  14.835  16.613  23.767
17793W        W18657  16.866  15.313  21.730
17794W        W18658  18.074  17.717  23.957
17795W        W18659  18.064  14.697  24.461
17796W        W18660  16.575  16.100  25.032
17797W        W18661  16.260  16.825  22.456
17798W        W18662  17.041  16.456  25.597
17799W        W18663  16.765  14.695  23.737
17800W        W18664  15.110  15.656  23.842
17801W        W18665  14.973  16.620  24.625
17802W        W18666  16.852  17.846  23.567
17803W        W18667  17.776  15.489  24.451
17804W        W18668  16.569  18.003  24.757
17805W        W18669  17.583  16.592  22.122
17806W        W18670  16.226  16.433  23.264
17807W        W18671  18.298  14.687  24.965
17808W        W18672  16.297  16.853  24.555
17809W        W18673  16.456  15.680  23.881
17810W        W18674  17.223  16.030  22.598
17811W        W18675  17.454  15.601  22.425
17812W        W18676  17.577  17.713  22.766
17813W        W18677  17.240  17.115  23.952
17814W        W18678  17.193  16.324  23.004
17815W        W18679  16.593  16.499  23.635
17816W        W18680  17.616  16.226  23.759
17817W        W18681  15.009  15.322  24.223
17818W        W18682  17.607  16.443  24.922
17819W        W18683  18.050  18.125  24.260
17820W        W18684  15.951  17.613  23.541
17821W        W18685  17.161  18.028  24.533
17822W        W18686  16.922  15.349  24.477
17823W        W18687  16.195  18.191  24.439
17824W        W18688  17.994  15.079  23.158
17825W        W18689  17.782  16.323  24.248
17826W        W18690  14.596  15.502  24.485
17827W        W18691  17.460  15.386  23.435
17828W        W18692  17.798  15.569  24.999
17829W        W18693  16.880  17.331  23.453
17830W        W18694  16.079  17.902  23.100
17831W        W18695  15.040  14.989  22.420
17832W        W18696  16.254  14.812  24.010
17833W        W18697  15.182  18.073  22.076
17834W        W18698  15.911  16.449  22.607
17835W        W18699  16.306  17.046  25.044
17836W        W18700  16.285  15.099  23.004
17837W        W18701  17.620  14.875  23.478
17838W        W18702  17.265  18.193  23.635
17839W        W18703  16.567  17.909  24.007
17840W        W18704  16.005  16.880  24.143
17841W        W18705  17.775  17.690  24.390
17842W        W18706  15.472  15.047  22.900
17843W        W18707  15.860  17.383  24.002
17844W        W18708  15.470  15.372  21.869
17845W        W18709  16.333  15.856  24.366
17846W        W18710  17.199  14.997  24.137
17847W        W18711  14.663  16.561  24.243
17848W        W18712  16.297  16.359  22.248
17849W        W18713  15.483  14.858  21.942
17850W        W18714  16.371  15.932  23.187
17851W        W18715  17.083  14.871  24.622
17852W        W18716  15.857  16.878  24.874
17853W        W18717  16.700  16.662  25.247
17854W        W18718  17.257  16.720  25.199
17855W        W18719  16.554  14.947  25.574
17856W        W18720  15.619  15.483  23.770
17857W        W18721  15.134  15.304  23.357
17858W        W18722  14.926  17.852  23.036
17859W        W18723  16.427  17.580  25.060
17860W        W18724  15.761  16.956  22.495
17861W        W18725  16.991  16.655  23.896
17862W        W18726  17.164  16.187  24.038
17863W        W18727  16.479  16.663  24.112
17864W        W18728  17.335  17.031  22.254
17865W        W18729  16.684  15.042  23.337
17866W        W18730  17.832  15.385  22.737
17867W        W18731  14.879  17.849  24.944
17868W        W18732  15.020  17.106  24.347
17869W        W18733  14.563  18.035  22.707
17870W        W18734  16.438  15.334  24.288
17871W        W18735  15.660  17.447  22.352
17872W        W18736  17.740  17.987  22.371
17873W        W18737  16.782  16.357  22.438
17874W        W18738  16.085  15.563  22.958
17875W        W18739  16.365  15.405  21.917
17876W        W18740  16.798  17.195  25.110
17877W        W18741  17.520  15.038  22.988
17878W        W18742  14.660  14.645  22.218
17879W        W18743  15.984  17.263  24.502
17880W        W18744  15.671  16.917  23.740
17881W        W18745  15.584  17.107  21.950
17882W        W18746  14.649  17.520  22.777
17883W        W18747  15.311  16.177  25.316
17884W        W18748  16.076  14.859  25.392
17885W        W18749  16.539  15.013  24.695
17886W        W18750  15.888  14.769  23.098
17887W        W18751  17.250  15.142  22.555
17888W        W18752  14.876  14.821  24.089
17889W        W18753  14.739  15.637  23.468
17890W        W18754  17.752  14.756  23.963
17891W        W18755  14.928  15.326  22.864
17892W        W18756  17.628  14.984  24.399
17893W        W18757  17.647  16.084  22.281
17894W        W18758  15.260  15.132  23.821
17895W        W18759  16.471  15.553  24.775
17896W        W18760  14.547  15.134  22.255
17897W        W18761  15.273  16.597  25.031
17898W        W18762  16.641  16.170  24.061
17899W        W18763  16.506  18.087  22.246
17900W        W18764  14.599  16.413  21.915
17901W        W18765  15.463  17.034  25.178
17902W        W18766  15.085  16.161  24.828
17903W        W18767  15.941  16.484  24.537
17904W        W18768  17.675  14.685  24.817
17905W        W18769  18.120  16.380  24.767
17906W        W18770  17.939  16.800  22.567
17907W        W18771  16.835  16.690  22.856
17908W        W18772  17.474  18.156  21.960
17909W        W18773  16.562  16.240  25.534
17910W        W18774  15.024  17.119  25.439
17911W        W18775  18.331  15.003  25.373
17912W        W18776  17.562  15.863  24.147
17913W        W18777  16.223  17.999  25.343
17914W        W18778  15.927  14.690  22.205
17915W        W18779  17.822  17.067  22.065
17916W        W18780  15.421  15.429  25.120
17917W        W18781  15.897  17.387  24.996
17918W        W18782  17.964  15.117  24.769
17919W        W18783  17.349  18.315  22.496
17920W        W18784  17.395  16.667  24.207
17921W        W18785  15.554  15.257  24.663
17922W        W18786  16.095  16.187  25.329
17923W        W18787  15.462  17.201  22.877
17924W        W18788  17.321  16.826  22.970
17925W        W18789  15.071  15.445  24.725
17926W        W18790  16.272  17.382  23.206
17927W        W18791  17.997  16.086  23.420
17928W        W18792  16.282  14.636  24.986
17929W        W18793  17.286  17.567  24.236
17930W        W18794  17.597  17.924  23.953
17931W        W18795  16.590  17.626  21.924
17932W        W18796  14.627  17.268  25.176
17933W        W18797  15.452  15.615  24.262
17934W        W18798  15.438  14.873  23.403
17935W        W18799  16.933  15.704  24.082
17936W        W18800  15.887  16.657  22.058
17937W        W18801  17.854  16.863  24.039
17938W        W18802  15.196  17.470  25.071
17939W        W18803  17.672  18.208  22.903
17940W        W18804  15.840  15.236  23.340
17941W        W18805  15.334  16.515  23.675
17942W        W18806  15.775  18.250  24.138
17943W        W18807  17.993  18.170  25.150
17944W        W18808  16.923  16.507  24.382
17945W        W18809  14.774  15.962  22.086
17946W        W18810  17.977  17.831  23.101
17947W        W18811  17.713  15.163  22.279
17948W        W18812  15.803  14.571  24.773
17949W        W18813  17.791  17.636  23.555
17950W        W18814  17.508  15.969  23.273
17951W        W18815  15.939  15.750  23.440
17952W        W18816  16.112  16.051  24.821
17953W        W18817  17.050  17.248  24.650
17954W        W18818  15.927  15.579  24.843
17955W        W18819  15.778  18.102  23.478
17956W        W18820  15.315  17.921  25.294
17957W        W18821  15.256  17.557  21.979
17958W        W18822  17.717  17.384  23.131
17959W        W18823  15.446  15.793  24.750
17960W        W18824  17.899  15.630  22.158
17961W        W18825  16.052  16.840  22.941
17962W        W18826  17.011  16.352  24.908
17963W        W18827  16.857  16.004  24.507
17964W        W18828  15.356  16.232  24.411
17965W        W18829  17.552  18.284  24.311
17966W        W18830  17.253  14.781  25.094
17967W        W18831  15.076  15.024  25.013
17968W        W18832  15.461  16.025  23.951
17969W        W18833  15.913  15.683  21.865
17970W        W18834  14.675  17.426  24.691
17971W        W18835  16.136  16.274  24.123
17972W        W18836  15.922  15.161  22.013
17973W        W18837  15.384  16.299  23.216
17974W        W18838  14.865  18.073  24.458
17975W        W18839  17.647  16.426  22.773
17976W        W18840  17.667  15.075  25.209
17977W        W18841  17.362  17.141  23.420
17978W        W18842  14.774  16.206  25.231
17979W        W18843  17.928  14.878  22.661
17980W        W18844  17.635  17.199  22.654
17981W        W18845  16.190  15.978  22.662
17982W        W18846  17.259  15.132  22.029
17983W        W18847  17.302  15.706  24.563
17984W        W18848  14.978  16.113  23.548
17985W        W18849  15.323  16.933  23.322
17986W        W18850  17.018  15.848  23.164
17987W        W18851  16.092  15.308  23.881
17988W        W18852  18.020  17.228  24.381
17989W        W18853  18.068  15.138  24.170
17990W        W18854  14.740  17.953  23.497
17991W        W18855  14.940  17.113  22.948
17992W        W18856  15.134  14.820  25.476
17993W        W18857  16.097  17.518  25.455
17994W        W18858  17.979  16.595  23.610
17995W        W18859  17.236  16.569  22.506
17996W        W18860  16.714  18.269  24.328
17997W        W18861  17.645  16.876  25.535
17998W        W18862  16.167  14.601  22.684
17999W        W18863  16.849  15.507  23.522
18000W        W18864  14.678  17.125  23.897
18001W        W18865  15.926  15.049  22.629
18002W        W18866  15.731  16.562  25.276
18003W        W18867  16.630  15.510  23.047
18004W        W18868  16.826  17.011  24.264
18005W        W18869  15.137  17.608  24.571
18006W        W18870  15.586  17.480  25.396
18007W        W18871  15.519  15.182  22.352
18008W        W18872  16.985  15.569  22.679
18009W        W18873  16.931  17.677  24.934
18010W        W18874  15.771  16.216  23.601
18011W        W18875  15.351  18.003  24.309
18012W        W18876  17.989  18.017  21.937
18013W        W18877  14.801  16.719  25.174
18014W        W18878  16.644  17.011  23.766
18015W        W18879  15.511  16.688  22.881
18016W        W18880  15.777  17.737  24.383
18017W        W18881  16.220  14.909  23.501
18018W        W18882  14.597  17.041  22.566
18019W        W18883  16.341  15.848  22.174
18020W        W18884  14.914  16.535  23.249
18021W        W18885  16.023  15.060  24.806
18022W        W18886  17.683  14.893  21.823
18023W        W18887  18.035  16.597  25.264
18024W        W18888  16.723  18.035  25.259
18025W        W18889  18.213  16.905  24.768
18026W        W18890  17.645  17.767  25.189
18027W        W18891  15.359  18.292  23.829
18028W        W18892  18.259  16.908  23.314
18029W        W18893  16.763  15.997  23.596
18030W        W18894  16.461  14.629  23.128
18031W        W18895  15.637  17.642  23.141
18032W        W18896  15.954  15.489  24.351
18033W        W18897  15.789  14.919  23.766
18034W        W18898  14.660  17.733  22.292
18035W        W18899  16.468  16.886  23.288
18036W        W18900  15.542  17.783  24.843
18037W        W18901  14.912  16.644  22.744
18038W        W18902  14.772  15.218  23.763
18039W        W18903  16.144  17.109  23.660
18040W        W18904  14.631  14.924  22.737
18041W        W18905  17.344  16.237  24.522
18042W        W18906  17.185  15.657  21.989
18043W        W18907  17.696  17.364  23.985
18044W        W18908  16.434  17.529  23.687
18045W        W18909  15.821  17.854  22.635
18046W        W18910  16.813  14.869  22.031
18047W        W18911  14.963  17.981  23.955
18048W        W18912  16.744  15.516  25.373
18049W        W18913  14.981  15.354  25.455
18050W        W18914  14.711  15.815  22.943
18051W        W18915  15.881  16.051  22.251
18052W        W18916  17.017  15.983  25.376
18053W        W18917  15.671  16.493  24.075
18054W        W18918  17.144  14.746  23.277
18055W        W18919  16.319  18.031  23.551
18056W        W18920  17.397  17.605  24.737
18057W        W18921  17.289  17.590  23.704
18058W        W18922  16.979  16.773  23.381
18059W        W18923  16.352  15.075  22.329
18060W        W18924  18.306  14.667  23.283
18061W        W18925  15.612  16.180  21.841
18062W        W18926  17.863  15.597  23.208
18063W        W18927  16.661  16.758  22.124
18064W        W18928  17.736  16.935  25.015
18065W        W18929  17.588  17.509  22.208
18066W        W18930  15.901  15.315  25.274
18067W        W18931  15.802  15.987  24.417
18068W        W18932  17.854  17.407  24.841
18069W        W18933  16.933  15.232  24.978
18070W        W18934  14.676  15.857  24.836
18071W        W18935  16.460  16.342  24.538
18072W        W18936  14.823  17.002  23.431
18073W        W18937  14.976  16.187  24.048
18074W        W18938  17.273  16.773  24.692
18075W        W18939  17.170  18.182  25.014
18076W        W18940  16.935  15.736  24.932
18077W        W18941  17.425  17.860  23.252
18078W        W18942  16.296  17.684  24.407
18079W        W18943  15.577  17.832  23.866
18080W        W18944  17.518  17.163  24.444
18081W        W18945  16.459  17.126  25.519
18082W        W18946  15.174  17.037  23.821
18083W        W18947  17.471  16.725  23.699
18084W        W18948  17.064  17.973  24.036
18085W        W18949  15.304  17.488  24.109
18086W        W18950  16.257  15.710  25.240
18087W        W18951  16.324  17.708  22.682
18088W        W18952  15.898  17.053  25.442
18089W        W18953  15.943  17.364  22.797
18090W        W18954  15.208  15.831  21.751
18091W        W18955  14.704  18.190  28.825
18092W        W18956  15.079  17.110  28.513
18093W        W18957  17.726  16.391  26.344
18094W        W18958  18.007  17.927  28.244
18095W        W18959  15.714  17.912  25.636
18096W        W18960  15.757  16.057  26.582
18097W        W18961  15.296  15.886  26.779
18098W        W18962  16.206  16.570  26.334
18099W        W18963  16.084  17.817  28.308
18100W        W18964  14.840  15.375  28.495
18101W        W18965  15.375  14.791  28.238
18102W        W18966  17.287  15.104  27.269
18103W        W18967  16.732  15.817  25.797
18104W        W18968  17.411  15.286  28.828
18105W        W18969  14.885  14.979  28.121
18106W        W18970  14.876  17.547  28.823
18107W        W18971  16.149  16.910  25.901
18108W        W18972  14.838  15.752  27.531
18109W        W18973  15.661  15.850  28.757
18110W        W18974  17.872  15.510  27.366
18111W        W18975  17.883  16.673  28.071
18112W        W18976  16.286  15.999  27.210
18113W        W18977  16.836  17.433  27.623
18114W        W18978  15.161  16.740  27.855
18115W        W18979  14.535  16.185  27.423
18116W        W18980  15.787  16.198  28.391
18117W        W18981  18.009  16.058  28.708
18118W        W18982  15.389  17.313  27.075
18119W        W18983  16.661  17.280  28.145
18120W        W18984  15.914  15.731  27.456
18121W        W18985  16.082  16.598  27.166
18122W        W18986  16.813  17.496   0.029
18123W        W18987  16.237  16.624  28.879
18124W        W18988  16.333  16.407  28.438
18125W        W18989  14.705  15.617  28.919
18126W        W18990  17.375  17.320  28.776
18127W        W18991  15.115  14.815  26.718
18128W        W18992  15.530  17.170  27.703
18129W        W18993  18.163  17.047  27.196
18130W        W18994  17.443  15.399  27.662
18131W        W18995  17.800  15.439  25.541
18132W        W18996  18.434  16.127  27.949
18133W        W18997  16.019  17.871  27.567
18134W        W18998  18.219  17.128  26.315
18135W        W18999  15.154  18.268  26.211
18136W        W19000  15.497  18.093  26.547
18137W        W19001  15.487  14.946  27.740
18138W        W19002  18.030  15.948  28.204
18139W        W19003  17.195  16.250  26.754
18140W        W19004  17.201  16.048  25.866
18141W        W19005  16.449  17.110  27.667
18142W        W19006  16.257  15.501  27.027
18143W        W19007  17.006  17.704  28.027
18144W        W19008  17.658  16.478  26.841
18145W        W19009  16.776  15.117  26.364
18146W        W19010  15.194  17.758  26.286
18147W        W19011  14.762  15.172  26.763
18148W        W19012  17.319  15.947  27.174
18149W        W19013  14.846  17.363  27.143
18150W        W19014  16.143  17.814  25.880
18151W        W19015  17.548  15.873  25.492
18152W        W19016  14.678  17.655  27.977
18153W        W19017  15.466  17.278  28.207
18154W        W19018  15.827  16.600  26.706
18155W        W19019  16.024  15.011  27.809
18156W        W19020  18.169  14.728  27.389
18157W        W19021  15.237  16.646  25.543
18158W        W19022  14.990  15.575  25.954
18159W        W19023  15.071  17.450  26.690
18160W        W19024  15.945  17.097  26.763
18161W        W19025  17.592  17.778  28.549
18162W        W19026  16.484  15.578  26.205
18163W        W19027  18.026  18.007  27.199
18164W        W19028  17.565  15.949  28.451
18165W        W19029  18.317  17.310  26.779
18166W        W19030  16.831  16.579  28.301
18167W        W19031  14.523  16.305  26.526
18168W        W19032  15.666  16.806  28.032
18169W        W19033  16.899  15.877  26.292
18170W        W19034  16.677  16.258  26.588
18171W        W19035  15.234  15.821  27.903
18172W        W19036  15.176  15.796  28.926
18173W        W19037  14.897  14.707  27.156
18174W        W19038  16.910  15.259  27.574
18175W        W19039  16.399  15.243  28.747
18176W        W19040  16.773  15.305  25.868
18177W        W19041  18.095  17.713  28.723
18178W        W19042  16.917  14.753  28.647
18179W        W19043  17.888  17.234  28.830
18180W        W19044  17.499  15.417  28.330
18181W        W19045  17.169  15.228  26.694
18182W        W19046  17.630  16.302  28.975
18183W        W19047  15.173  17.765  27.155
18184W        W19048  15.999  15.437  26.164
18185W        W19049  15.531  14.890  28.741
18186W        W19050  17.595  15.494  26.482
18187W        W19051  17.925  15.868  26.348
18188W        W19052  15.705  17.921  28.814
18189W        W19053  15.570  14.671  26.080
18190W        W19054  17.993  15.121  27.071
18191W        W19055  18.028  17.796  25.633
18192W        W19056  14.836  16.587  27.292
18193W        W19057  17.065  15.096  25.470
18194W        W19058  18.240  17.496  27.490
18195W        W19059  18.113  14.786  27.908
18196W        W19060  16.533  15.755  28.848
18197W        W19061  16.322  17.072  26.385
18198W        W19062  17.174  16.447   0.132
18199W        W19063  16.915  14.766  27.447
18200W        W19064  15.314  15.611  27.308
18201W        W19065  14.789  16.796  28.221
18202W        W19066  16.670  18.001  27.167
18203W        W19067  17.835  15.556  27.946
18204W        W19068  16.591  17.815  28.282
18205W        W19069  17.949  16.579  25.848
18206W        W19070  16.196  16.249  26.770
18207W        W19071  18.196  14.765  28.409
18208W        W19072  16.419  16.775  28.047
18209W        W19073  16.614  15.644  27.389
18210W        W19074  17.415  15.982  26.329
18211W        W19075  17.571  15.651  25.977
18212W        W19076  17.893  17.478  26.525
18213W        W19077  17.198  17.122  27.382
18214W        W19078  17.082  16.367  26.259
18215W        W19079  16.577  16.408  27.103
18216W        W19080  17.608  16.344  27.338
18217W        W19081  15.081  15.322  27.691
18218W        W19082  17.724  16.454  28.496
18219W        W19083  18.059  17.997  27.723
18220W        W19084  15.900  17.506  27.079
18221W        W19085  17.147  18.025  28.431
18222W        W19086  17.067  15.369  28.048
18223W        W19087  16.283  18.156  27.988
18224W        W19088  17.941  15.105  26.571
18225W        W19089  17.643  16.230  28.012
18226W        W19090  14.782  15.565  28.026
18227W        W19091  17.528  15.469  26.994
18228W        W19092  17.916  15.571  28.568
18229W        W19093  16.763  17.316  27.115
18230W        W19094  15.978  17.845  26.629
18231W        W19095  15.151  15.048  25.969
18232W        W19096  16.403  14.812  27.513
18233W        W19097  15.229  18.124  25.741
18234W        W19098  15.741  16.395  26.198
18235W        W19099  16.511  16.916  28.531
18236W        W19100  16.313  15.206  26.566
18237W        W19101  17.554  14.920  26.872
18238W        W19102  17.540  18.273  27.267
18239W        W19103  16.659  17.915  27.682
18240W        W19104  16.008  16.826  27.650
18241W        W19105  17.874  17.541  27.865
18242W        W19106  15.455  15.060  26.420
18243W        W19107  15.994  17.332  27.554
18244W        W19108  15.458  15.208  25.564
18245W        W19109  16.323  15.900  27.733
18246W        W19110  17.267  14.926  27.775
18247W        W19111  14.671  16.540  27.808
18248W        W19112  16.147  16.384  25.857
18249W        W19113  15.622  14.714  25.572
18250W        W19114  16.112  15.688  26.592
18251W        W19115  17.272  14.943  28.323
18252W        W19116  16.000  16.794  28.425
18253W        W19117  16.747  16.512  28.818
18254W        W19118  17.242  16.579  28.620
18255W        W19119  16.561  14.810   0.001
18256W        W19120  15.742  15.251  27.296
18257W        W19121  15.343  15.333  26.869
18258W        W19122  14.975  17.964  26.706
18259W        W19123  16.452  17.426  28.623
18260W        W19124  15.331  16.750  26.156
18261W        W19125  17.091  16.434  27.254
18262W        W19126  17.232  16.217  27.710
18263W        W19127  16.414  16.534  27.579
18264W        W19128  16.983  16.983  25.551
18265W        W19129  16.651  15.148  27.134
18266W        W19130  18.376  15.610  26.259
18267W        W19131  14.650  17.857  28.451
18268W        W19132  14.978  17.213  28.002
18269W        W19133  14.674  18.189  26.338
18270W        W19134  16.547  15.418  27.888
18271W        W19135  15.827  17.387  25.865
18272W        W19136  17.988  17.880  26.169
18273W        W19137  16.626  16.257  26.051
18274W        W19138  15.605  15.576  26.489
18275W        W19139  16.299  15.393  25.652
18276W        W19140  17.040  17.031  28.444
18277W        W19141  17.492  15.000  26.319
18278W        W19142  14.772  14.716  25.845
18279W        W19143  16.066  17.164  28.063
18280W        W19144  15.738  16.981  27.233
18281W        W19145  15.436  17.096  25.734
18282W        W19146  14.714  17.557  26.301
18283W        W19147  15.302  16.236  28.651
18284W        W19148  16.032  14.849  28.879
18285W        W19149  16.731  15.031  28.231
18286W        W19150  15.984  14.686  26.742
18287W        W19151  17.064  14.888  25.968
18288W        W19152  14.971  14.807  27.653
18289W        W19153  14.889  15.624  26.984
18290W        W19154  17.741  15.008  27.499
18291W        W19155  15.101  15.434  26.435
18292W        W19156  17.692  15.059  28.016
18293W        W19157  18.072  16.172  25.575
18294W        W19158  15.251  15.076  27.293
18295W        W19159  16.592  15.554  28.373
18296W        W19160  14.648  15.220  25.834
18297W        W19161  15.308  16.664  28.362
18298W        W19162  16.745  16.136  27.524
18299W        W19163  16.552  18.117  25.782
18300W        W19164  14.711  16.509  25.645
18301W        W19165  15.573  17.008  28.647
18302W        W19166  14.986  16.272  28.205
18303W        W19167  16.039  16.432  28.006
18304W        W19168  17.692  14.600  28.272
18305W        W19169  18.238  16.409  28.351
18306W        W19170  18.241  16.175  26.072
18307W        W19171  16.700  16.711  26.326
18308W        W19172  17.548  18.359  25.318
18309W        W19173  16.794  16.094   0.153
18310W        W19174  15.164  17.125   0.011
18311W        W19175  18.204  15.169  28.761
18312W        W19176  17.648  15.905  27.593
18313W        W19177  16.215  17.833  28.816
18314W        W19178  16.061  14.650  25.883
18315W        W19179  18.169  16.987  25.623
18316W        W19180  15.394  15.396  28.652
18317W        W19181  15.868  17.414  28.508
18318W        W19182  18.115  15.240  28.238
18319W        W19183  17.581  18.504  25.934
18320W        W19184  17.405  16.717  27.625
18321W        W19185  15.708  15.179  28.161
18322W        W19186  16.109  16.118  28.841
18323W        W19187  15.441  17.297  26.226
18324W        W19188  17.354  16.725  26.510
18325W        W19189  15.238  15.347  28.166
18326W        W19190  16.324  17.464  26.793
18327W        W19191  18.009  16.003  27.179
18328W        W19192  16.397  14.766  28.526
18329W        W19193  17.350  17.475  27.727
18330W        W19194  17.644  17.800  27.473
18331W        W19195  16.350  17.368  25.962
18332W        W19196  14.664  17.033  28.854
18333W        W19197  15.576  15.469  27.749
18334W        W19198  15.571  14.860  26.976
18335W        W19199  17.083  15.744  27.574
18336W        W19200  15.717  16.674  25.774
18337W        W19201  17.957  16.814  27.594
18338W        W19202  15.387  17.502  28.714
18339W        W19203  17.811  18.346  26.505
18340W        W19204  15.848  15.225  26.757
18341W        W19205  15.387  16.600  27.044
18342W        W19206  15.737  18.113  27.915
18343W        W19207  17.862  18.185  28.733
18344W        W19208  16.895  16.605  27.775
18345W        W19209  14.893  16.008  25.688
18346W        W19210  18.087  17.927  26.696
18347W        W19211  17.917  15.302  26.096
18348W        W19212  15.891  14.774  28.392
18349W        W19213  17.956  17.519  27.057
18350W        W19214  17.651  15.965  26.784
18351W        W19215  15.743  15.687  26.978
18352W        W19216  16.228  15.925  28.254
18353W        W19217  17.361  17.400  28.246
18354W        W19218  15.637  15.673  28.274
18355W        W19219  15.635  17.947  27.030
18356W        W19220  15.170  17.989  28.642
18357W        W19221  15.314  17.612  25.808
18358W        W19222  17.868  16.989  26.732
18359W        W19223  15.145  15.802  28.411
18360W        W19224  18.065  15.745  25.858
18361W        W19225  15.808  16.920  26.278
18362W        W19226  16.716  16.073  28.479
18363W        W19227  16.829  15.845  28.004
18364W        W19228  15.460  16.321  27.989
18365W        W19229  17.633  18.276  27.766
18366W        W19230  17.408  14.749  28.833
18367W        W19231  15.032  14.916  28.615
18368W        W19232  15.494  16.054  27.504
18369W        W19233  15.824  15.611  25.669
18370W        W19234  14.632  17.324  28.400
18371W        W19235  15.976  16.261  27.530
18372W        W19236  15.882  15.110  25.805
18373W        W19237  15.284  15.909  26.249
18374W        W19238  14.957  18.100  28.122
18375W        W19239  17.711  16.128  25.918
18376W        W19240  17.759  15.023  28.556
18377W        W19241  17.490  17.322  26.991
18378W        W19242  14.803  16.140  28.832
18379W        W19243  17.958  14.788  26.157
18380W        W19244  17.756  16.909  26.206
18381W        W19245  16.218  16.062  26.276
18382W        W19246  17.467  15.170  25.827
18383W        W19247  17.363  15.789  28.003
18384W        W19248  15.043  16.085  27.187
18385W        W19249  15.442  16.984  26.652
18386W        W19250  17.181  15.738  26.701
18387W        W19251  16.237  15.324  27.492
18388W        W19252  18.154  17.120  28.003
18389W        W19253  18.180  15.245  27.692
18390W        W19254  14.673  17.866  27.146
18391W        W19255  14.956  17.065  26.371
18392W        W19256  15.186  14.705   0.089
18393W        W19257  16.303  17.450   0.174
18394W        W19258  18.057  16.524  27.158
18395W        W19259  17.433  16.565  25.933
18396W        W19260  16.853  18.217  28.049
18397W        W19261  17.581  16.820  28.931
18398W        W19262  16.270  14.525  26.356
18399W        W19263  17.024  15.505  27.120
18400W        W19264  14.747  17.007  27.580
18401W        W19265  15.937  14.942  26.309
18402W        W19266  15.738  16.516  28.795
18403W        W19267  16.695  15.538  26.703
18404W        W19268  17.088  17.070  27.915
18405W        W19269  15.075  17.605  28.317
18406W        W19270  15.784  17.456   0.034
18407W        W19271  15.488  15.436  26.023
18408W        W19272  17.160  15.431  26.201
18409W        W19273  16.956  17.540  28.529
18410W        W19274  15.741  16.207  27.070
18411W        W19275  15.307  17.787  27.891
18412W        W19276  17.992  18.309  25.669
18413W        W19277  14.906  16.611  28.673
18414W        W19278  16.749  16.844  27.325
18415W        W19279  15.378  16.397  26.572
18416W        W19280  15.789  17.587  27.945
18417W        W19281  16.156  14.999  27.097
18418W        W19282  14.649  16.696  26.122
18419W        W19283  16.228  15.892  25.777
18420W        W19284  14.924  16.413  26.812
18421W        W19285  16.237  15.161  28.252
18422W        W19286  17.921  14.962  25.677
18423W        W19287  18.128  16.532  28.836
18424W        W19288  16.729  17.948  28.778
18425W        W19289  18.073  16.904  28.491
18426W        W19290  17.699  17.644   0.049
18427W        W19291  15.392  18.118  27.495
18428W        W19292  18.323  16.757  26.785
18429W        W19293  16.815  15.966  27.016
18430W        W19294  16.511  14.775  26.779
18431W        W19295  15.562  17.565  26.657
18432W        W19296  16.045  15.520  27.948
18433W        W19297  15.859  14.721  27.415
18434W        W19298  14.817  17.895  25.924
18435W        W19299  16.382  16.757  26.781
18436W        W19300  15.561  17.827  28.336
18437W        W19301  14.982  16.334  26.269
18438W        W19302  14.767  15.215  27.277
18439W        W19303  16.268  17.089  27.180
18440W        W19304  14.732  14.956  26.298
18441W        W19305  17.157  16.191  28.240
18442W        W19306  17.167  15.568  25.684
18443W        W19307  17.741  17.272  27.453
18444W        W19308  16.392  17.585  27.349
18445W        W19309  15.695  17.812  26.156
18446W        W19310  16.929  14.590  25.550
18447W        W19311  14.895  17.949  27.599
18448W        W19312  17.043  15.658  28.982
18449W        W19313  15.109  15.223   0.031
18450W        W19314  14.827  15.880  26.518
18451W        W19315  15.774  15.887  26.094
18452W        W19316  17.163  16.102  28.764
18453W        W19317  15.559  16.583  27.543
18454W        W19318  17.031  14.793  26.941
18455W        W19319  16.153  17.988  27.087
18456W        W19320  17.508  17.852  28.036
18457W        W19321  17.166  17.658  27.272
18458W        W19322  16.911  16.684  26.818
18459W        W19323  16.356  15.065  26.052
18460W        W19324  18.262  14.757  26.825
18461W        W19325  15.703  16.155  25.662
18462W        W19326  17.999  15.593  26.819
18463W        W19327  16.609  16.698  25.792
18464W        W19328  17.570  16.967  28.440
18465W        W19329  17.975  17.375  25.936
18466W        W19330  15.899  15.300  28.618
18467W        W19331  15.815  15.967  27.908
18468W        W19332  17.866  17.392  28.346
18469W        W19333  16.916  15.266  28.660
18470W        W19334  14.634  15.863  28.421
18471W        W19335  16.554  16.271  27.999
18472W        W19336  14.997  16.941  26.907
18473W        W19337  15.045  16.243  27.672
18474W        W19338  17.334  16.653  28.118
18475W        W19339  17.219  17.804  28.905
18476W        W19340  17.091  15.706  28.451
18477W        W19341  17.586  17.857  26.947
18478W        W19342  16.322  17.587  27.887
18479W        W19343  15.572  17.631  27.461
18480W        W19344  17.623  17.085  27.930
18481W        W19345  16.583  17.032   0.022
18482W        W19346  15.208  16.948  27.379
18483W        W19347  17.636  16.854  27.183
18484W        W19348  17.188  18.024  27.651
18485W        W19349  15.093  17.447  27.569
18486W        W19350  16.053  15.616   0.006
18487W        W19351  16.381  17.740  26.336
18488W        W19352  16.100  17.103  28.840
18489W        W19353  15.959  17.418  26.353
18490W        W19354  15.336  15.728  25.590
18491W        W19355  14.511  21.923   3.358
18492W        W19356  15.094  20.856   2.842
18493W        W19357  17.797  20.473   0.691
18494W        W19358  17.914  21.629   2.688
18495W        W19359  15.926  21.629   0.289
18496W        W19360  15.737  19.635   1.108
18497W        W19361  15.307  19.391   1.271
18498W        W19362  16.493  20.210   0.768
18499W        W19363  15.968  21.565   2.972
18500W        W19364  14.620  18.964   2.874
18501W        W19365  15.335  18.076   2.812
18502W        W19366  17.090  18.634   1.559
18503W        W19367  16.803  19.263   0.409
18504W        W19368  17.455  19.141   3.135
18505W        W19369  14.762  18.583   2.490
18506W        W19370  14.727  21.477   3.449
18507W        W19371  16.252  20.592   0.374
18508W        W19372  14.792  19.372   1.937
18509W        W19373  15.825  19.656   3.140
18510W        W19374  17.861  19.185   1.822
18511W        W19375  17.948  20.390   2.627
18512W        W19376  16.018  19.729   1.528
18513W        W19377  16.845  21.065   1.950
18514W        W19378  15.452  20.209   1.934
18515W        W19379  14.562  19.915   1.912
18516W        W19380  15.809  20.008   2.755
18517W        W19381  18.007  19.756   3.182
18518W        W19382  15.396  21.152   1.663
18519W        W19383  16.620  20.914   2.698
18520W        W19384  16.055  19.408   1.965
18521W        W19385  16.110  20.225   1.687
18522W        W19386  16.966  21.243   3.439
18523W        W19387  16.296  20.410   3.533
18524W        W19388  16.345  20.177   2.976
18525W        W19389  14.191  19.298   3.228
18526W        W19390  17.376  21.025   3.165
18527W        W19391  15.172  18.484   0.983
18528W        W19392  15.613  20.851   2.061
18529W        W19393  17.984  20.713   1.545
18530W        W19394  17.439  18.848   1.894
18531W        W19395  17.900  19.101   0.156
18532W        W19396  18.273  19.771   2.373
18533W        W19397  16.127  21.625   2.063
18534W        W19398  18.047  20.979   0.730
18535W        W19399  15.245  21.889   0.599
18536W        W19400  15.480  21.734   1.063
18537W        W19401  15.431  18.600   2.222
18538W        W19402  17.846  19.734   2.670
18539W        W19403  17.323  19.943   1.329
18540W        W19404  17.231  19.627   0.301
18541W        W19405  16.458  20.870   2.211
18542W        W19406  16.165  19.059   1.621
18543W        W19407  16.910  21.222   2.434
18544W        W19408  17.823  20.066   1.041
18545W        W19409  16.672  18.782   0.981
18546W        W19410  15.257  21.363   0.752
18547W        W19411  14.775  18.783   1.176
18548W        W19412  17.435  19.462   1.733
18549W        W19413  14.881  21.099   1.684
18550W        W19414  16.270  21.213   0.754
18551W        W19415  17.553  19.399  28.917
18552W        W19416  14.633  21.200   2.208
18553W        W19417  15.456  21.076   2.498
18554W        W19418  15.751  20.134   1.284
18555W        W19419  15.952  18.640   2.299
18556W        W19420  18.135  18.307   1.755
18557W        W19421  15.383  19.960   0.249
18558W        W19422  15.015  19.139   0.359
18559W        W19423  15.041  21.188   1.208
18560W        W19424  16.089  20.558   1.300
18561W        W19425  17.483  21.550   2.965
18562W        W19426  16.414  19.188   0.752
18563W        W19427  17.844  21.665   1.519
18564W        W19428  17.518  19.641   3.066
18565W        W19429  18.159  21.086   1.225
18566W        W19430  16.846  20.425   2.778
18567W        W19431  14.581  19.848   1.125
18568W        W19432  15.721  20.360   2.362
18569W        W19433  16.926  19.755   1.048
18570W        W19434  15.118  19.393   2.358
18571W        W19435  15.028  19.401   2.869
18572W        W19436  14.961  18.318   1.474
18573W        W19437  16.883  18.855   1.970
18574W        W19438  16.306  18.941   3.079
18575W        W19439  17.029  18.839   0.611
18576W        W19440  17.964  21.529   3.216
18577W        W19441  16.780  18.575   3.019
18578W        W19442  17.852  20.993   3.365
18579W        W19443  17.510  18.845   2.735
18580W        W19444  17.151  18.925   1.112
18581W        W19445  17.633  19.978   3.481
18582W        W19446  15.183  21.605   1.472
18583W        W19447  15.913  19.369   0.679
18584W        W19448  15.438  18.566   3.217
18585W        W19449  17.637  19.214   0.944
18586W        W19450  17.991  19.603   0.882
18587W        W19451  15.593  21.843   3.219
18588W        W19452  15.915  18.117   0.745
18589W        W19453  17.908  18.721   1.589
18590W        W19454  18.129  21.052   0.181
18591W        W19455  14.913  20.271   1.845
18592W        W19456  16.961  18.745   0.080
18593W        W19457  18.121  21.226   1.741
18594W        W19458  18.057  18.318   2.310
18595W        W19459  16.661  19.787   3.071
18596W        W19460  16.350  20.704   0.850
18597W        W19461  17.194  20.219   3.571
18598W        W19462  16.680  18.420   1.811
18599W        W19463  15.262  19.158   1.760
18600W        W19464  15.149  20.317   2.318
18601W        W19465  16.838  21.527   1.611
18602W        W19466  17.692  19.093   2.306
18603W        W19467  16.622  21.660   2.833
18604W        W19468  17.911  20.361   0.218
18605W        W19469  16.288  20.068   1.222
18606W        W19470  18.121  18.353   2.873
18607W        W19471  16.348  20.496   2.562
18608W        W19472  16.576  19.296   1.881
18609W        W19473  17.455  19.740   0.870
18610W        W19474  17.694  19.470   0.472
18611W        W19475  17.648  21.232   0.955
18612W        W19476  17.434  20.743   1.681
18613W        W19477  17.057  20.024   0.621
18614W        W19478  16.649  20.170   1.646
18615W        W19479  17.655  19.936   1.752
18616W        W19480  15.001  18.917   2.142
18617W        W19481  17.647  20.130   2.983
18618W        W19482  18.057  21.644   2.050
18619W        W19483  15.903  21.043   1.548
18620W        W19484  17.114  21.701   2.593
18621W        W19485  17.205  18.937   2.345
18622W        W19486  16.182  21.806   2.552
18623W        W19487  17.850  18.744   1.081
18624W        W19488  17.723  20.075   2.290
18625W        W19489  14.584  19.156   2.385
18626W        W19490  17.533  19.027   1.426
18627W        W19491  17.860  19.228   2.822
18628W        W19492  16.822  20.932   1.459
18629W        W19493  16.031  21.427   1.193
18630W        W19494  15.136  18.647   0.466
18631W        W19495  16.255  18.288   2.073
18632W        W19496  15.360  21.585   0.175
18633W        W19497  15.612  19.970   0.730
18634W        W19498  16.405  20.666   3.076
18635W        W19499  16.168  18.815   1.157
18636W        W19500  17.519  18.457   1.355
18637W        W19501  17.348  21.791   1.730
18638W        W19502  16.628  21.506   2.080
18639W        W19503  16.072  20.566   2.061
18640W        W19504  17.918  21.249   2.350
18641W        W19505  15.688  18.584   0.946
18642W        W19506  16.045  21.120   2.057
18643W        W19507  15.584  18.769   0.088
18644W        W19508  16.432  19.550   2.341
18645W        W19509  17.148  18.424   2.120
18646W        W19510  14.626  20.313   2.285
18647W        W19511  16.374  19.998   0.290
18648W        W19512  15.655  18.281   0.265
18649W        W19513  16.152  19.339   1.179
18650W        W19514  17.115  18.527   2.639
18651W        W19515  15.930  20.498   2.869
18652W        W19516  16.758  20.322   3.289
18653W        W19517  17.250  20.478   3.118
18654W        W19518  16.451  18.649   3.474
18655W        W19519  15.739  18.960   1.948
18656W        W19520  15.271  18.874   1.316
18657W        W19521  14.935  21.683   1.004
18658W        W19522  16.544  21.210   3.131
18659W        W19523  15.466  20.433   0.486
18660W        W19524  17.162  20.116   1.793
18661W        W19525  17.331  19.769   2.139
18662W        W19526  16.563  20.323   2.127
18663W        W19527  17.056  20.638   0.057
18664W        W19528  16.619  18.860   1.505
18665W        W19529  18.149  19.108   0.850
18666W        W19530  14.712  21.604   2.930
18667W        W19531  14.887  20.774   2.374
18668W        W19532  14.496  21.691   0.707
18669W        W19533  16.694  19.096   2.377
18670W        W19534  15.865  20.929   0.503
18671W        W19535  17.848  21.395   0.494
18672W        W19536  16.627  19.698   0.629
18673W        W19537  15.685  19.097   1.056
18674W        W19538  16.560  19.057   0.021
18675W        W19539  16.896  20.833   3.110
18676W        W19540  17.432  18.577   0.842
18677W        W19541  14.726  18.306   0.309
18678W        W19542  15.934  20.840   2.477
18679W        W19543  15.695  20.558   1.638
18680W        W19544  15.794  20.592   0.121
18681W        W19545  14.718  21.227   0.816
18682W        W19546  15.361  19.914   3.006
18683W        W19547  15.935  18.629   3.336
18684W        W19548  16.422  18.681   2.582
18685W        W19549  15.995  18.283   1.239
18686W        W19550  16.818  18.361   0.610
18687W        W19551  14.929  18.408   2.034
18688W        W19552  14.863  19.221   1.442
18689W        W19553  17.611  18.337   1.856
18690W        W19554  15.130  19.016   0.858
18691W        W19555  17.601  18.572   2.314
18692W        W19556  18.057  19.839   0.182
18693W        W19557  15.305  18.639   1.751
18694W        W19558  16.572  19.309   2.825
18695W        W19559  14.627  18.799   0.259
18696W        W19560  15.410  20.402   2.765
18697W        W19561  16.816  19.805   2.083
18698W        W19562  16.445  21.627   0.282
18699W        W19563  14.864  20.168   0.221
18700W        W19564  15.621  20.913   2.947
18701W        W19565  15.036  19.878   2.601
18702W        W19566  16.157  20.053   2.363
18703W        W19567  17.582  18.319   2.774
18704W        W19568  18.275  20.052   2.822
18705W        W19569  18.127  20.081   0.620
18706W        W19570  16.926  20.522   0.818
18707W        W19571  17.611  21.762   0.116
18708W        W19572  16.790  19.929   3.689
18709W        W19573  15.268  20.903   3.330
18710W        W19574  18.330  18.764   3.299
18711W        W19575  17.821  19.581   2.158
18712W        W19576  16.035  21.758   3.477
18713W        W19577  16.172  18.346   0.375
18714W        W19578  17.686  20.818   0.322
18715W        W19579  15.518  19.020   2.959
18716W        W19580  16.117  21.067   2.888
18717W        W19581  17.993  18.768   2.597
18718W        W19582  17.444  21.978   0.551
18719W        W19583  17.419  20.475   2.115
18720W        W19584  15.454  18.566   2.713
18721W        W19585  16.334  19.891   3.463
18722W        W19586  15.439  20.874   0.800
18723W        W19587  17.386  20.308   0.941
18724W        W19588  15.106  18.943   2.645
18725W        W19589  16.351  21.005   1.259
18726W        W19590  18.213  19.647   1.488
18727W        W19591  16.298  18.417   3.024
18728W        W19592  17.318  20.984   2.135
18729W        W19593  17.637  21.372   1.925
18730W        W19594  16.695  20.874   0.473
18731W        W19595  14.706  21.018   3.204
18732W        W19596  15.619  19.059   2.449
18733W        W19597  15.482  18.340   1.381
18734W        W19598  17.056  19.343   2.075
18735W        W19599  15.920  20.192   0.388
18736W        W19600  17.892  20.381   1.910
18737W        W19601  15.106  21.333   3.103
18738W        W19602  17.692  21.880   1.007
18739W        W19603  15.753  18.767   1.466
18740W        W19604  15.269  20.277   1.473
18741W        W19605  15.729  21.865   2.271
18742W        W19606  17.635  21.933   3.282
18743W        W19607  17.045  20.186   2.320
18744W        W19608  14.943  19.634   0.484
18745W        W19609  18.079  21.525   0.955
18746W        W19610  17.780  18.855   0.576
18747W        W19611  15.807  18.270   2.947
18748W        W19612  17.701  21.144   1.461
18749W        W19613  17.728  19.623   1.326
18750W        W19614  15.723  19.305   1.551
18751W        W19615  16.233  19.716   2.789
18752W        W19616  17.209  20.866   2.707
18753W        W19617  15.971  19.268   2.829
18754W        W19618  15.702  21.581   1.559
18755W        W19619  15.069  21.826   3.271
18756W        W19620  15.381  20.897   0.232
18757W        W19621  17.746  20.744   1.109
18758W        W19622  15.508  19.502   2.724
18759W        W19623  18.212  19.430   0.448
18760W        W19624  15.887  20.449   0.827
18761W        W19625  17.127  19.992   3.083
18762W        W19626  16.926  19.564   2.543
18763W        W19627  15.486  19.894   2.367
18764W        W19628  17.566  21.741   2.282
18765W        W19629  17.327  18.634   3.166
18766W        W19630  14.989  18.499   2.961
18767W        W19631  15.543  19.466   2.058
18768W        W19632  15.853  19.202   0.191
18769W        W19633  14.567  21.070   2.713
18770W        W19634  16.347  19.834   1.917
18771W        W19635  16.134  18.782   0.112
18772W        W19636  15.275  19.879   1.119
18773W        W19637  14.733  21.706   2.404
18774W        W19638  17.619  19.999   0.462
18775W        W19639  17.842  18.733   3.112
18776W        W19640  17.279  20.923   1.226
18777W        W19641  14.808  19.841   3.064
18778W        W19642  17.832  18.345   0.522
18779W        W19643  17.385  20.821   0.740
18780W        W19644  16.118  19.842   0.747
18781W        W19645  17.365  18.558   0.337
18782W        W19646  17.386  19.353   2.641
18783W        W19647  14.942  19.842   1.523
18784W        W19648  15.342  20.776   1.319
18785W        W19649  17.264  19.428   1.241
18786W        W19650  16.379  18.809   2.037
18787W        W19651  18.213  20.798   2.418
18788W        W19652  18.061  18.779   2.086
18789W        W19653  14.668  21.498   1.435
18790W        W19654  14.952  20.744   0.946
18791W        W19655  15.007  18.567   3.505
18792W        W19656  16.093  21.255   3.383
18793W        W19657  18.100  20.179   1.459
18794W        W19658  17.338  20.428   0.429
18795W        W19659  16.662  21.912   2.372
18796W        W19660  17.627  20.512   3.489
18797W        W19661  16.318  18.444   0.843
18798W        W19662  17.043  19.146   1.593
18799W        W19663  14.633  20.711   1.914
18800W        W19664  16.029  18.844   0.630
18801W        W19665  15.927  20.150   3.268
18802W        W19666  16.751  19.270   1.165
18803W        W19667  16.924  20.687   2.329
18804W        W19668  14.999  21.305   2.598
18805W        W19669  15.597  21.332   3.265
18806W        W19670  15.532  19.012   0.549
18807W        W19671  17.167  19.331   0.749
18808W        W19672  17.015  21.312   2.925
18809W        W19673  15.478  19.782   1.606
18810W        W19674  15.251  21.652   2.333
18811W        W19675  18.114  21.602   0.084
18812W        W19676  14.883  20.363   2.758
18813W        W19677  16.944  20.576   1.832
18814W        W19678  15.393  20.384   0.989
18815W        W19679  15.874  21.382   2.491
18816W        W19680  16.196  18.550   1.630
18817W        W19681  14.599  20.666   0.547
18818W        W19682  16.313  19.439   0.290
18819W        W19683  14.904  20.243   1.119
18820W        W19684  15.932  18.748   2.798
18821W        W19685  17.790  18.589   0.068
18822W        W19686  18.054  20.330   3.219
18823W        W19687  16.540  21.678   3.358
18824W        W19688  18.194  20.756   2.929
18825W        W19689  17.521  21.419   3.468
18826W        W19690  15.356  21.856   1.890
18827W        W19691  18.188  20.458   1.027
18828W        W19692  16.951  19.663   1.600
18829W        W19693  16.556  18.382   1.311
18830W        W19694  15.543  21.246   1.186
18831W        W19695  16.155  19.110   2.387
18832W        W19696  15.767  18.378   1.864
18833W        W19697  14.893  21.541   0.431
18834W        W19698  16.601  20.501   1.245
18835W        W19699  15.467  21.511   2.790
18836W        W19700  15.105  20.085   0.672
18837W        W19701  14.811  18.776   1.685
18838W        W19702  16.432  20.681   1.709
18839W        W19703  14.708  18.527   0.751
18840W        W19704  17.342  19.878   2.634
18841W        W19705  17.375  19.088   0.313
18842W        W19706  17.824  20.885   2.001
18843W        W19707  16.409  21.220   1.711
18844W        W19708  15.778  21.406   0.739
18845W        W19709  17.022  18.217   0.140
18846W        W19710  14.883  21.577   1.913
18847W        W19711  16.722  19.466   3.486
18848W        W19712  15.049  18.966   3.170
18849W        W19713  14.888  19.460   0.978
18850W        W19714  15.380  19.482   0.755
18851W        W19715  17.192  19.690   3.493
18852W        W19716  15.840  19.890   1.989
18853W        W19717  17.030  18.395   1.101
18854W        W19718  16.274  21.705   1.575
18855W        W19719  17.433  21.297   2.523
18856W        W19720  17.233  21.213   1.655
18857W        W19721  17.099  20.429   1.359
18858W        W19722  16.530  18.765   0.454
18859W        W19723  18.147  18.308   1.225
18860W        W19724  15.861  19.709   0.278
18861W        W19725  18.012  19.189   1.331
18862W        W19726  16.736  20.367   0.347
18863W        W19727  17.696  20.658   2.984
18864W        W19728  17.213  21.065   0.291
18865W        W19729  15.868  19.143   3.314
18866W        W19730  15.908  19.588   2.418
18867W        W19731  17.811  21.149   2.868
18868W        W19732  17.012  19.004   2.816
18869W        W19733  14.535  19.479   2.799
18870W        W19734  16.628  19.996   2.567
18871W        W19735  14.848  20.633   1.448
18872W        W19736  15.088  19.815   2.038
18873W        W19737  17.398  20.395   2.625
18874W        W19738  17.094  21.726   3.257
18875W        W19739  17.039  19.447   3.061
18876W        W19740  17.384  21.544   1.284
18877W        W19741  16.381  21.320   2.491
18878W        W19742  15.612  21.407   2.049
18879W        W19743  17.675  20.811   2.485
18880W        W19744  16.606  20.835   3.519
18881W        W19745  15.186  20.696   1.838
18882W        W19746  17.617  20.348   1.428
18883W        W19747  17.152  21.482   2.086
18884W        W19748  15.144  21.166   2.114
18885W        W19749  16.285  19.442   3.220
18886W        W19750  16.540  21.490   1.177
18887W        W19751  15.967  20.768   3.309
18888W        W19752  15.904  20.941   1.016
18889W        W19753  15.402  19.450   0.231
18890W        W19754  14.820  21.837   7.160
18891W        W19755  15.124  20.747   6.578
18892W        W19756  17.776  20.436   4.463
18893W        W19757  18.152  21.510   6.344
18894W        W19758  15.571  21.651   3.702
18895W        W19759  15.876  20.090   4.670
18896W        W19760  15.518  19.551   5.230
18897W        W19761  16.399  20.092   4.498
18898W        W19762  16.206  21.515   6.620
18899W        W19763  14.714  19.025   6.674
18900W        W19764  15.345  18.252   6.475
18901W        W19765  17.166  18.604   5.310
18902W        W19766  16.952  19.439   3.955
18903W        W19767  17.360  18.997   6.915
18904W        W19768  14.745  18.731   6.236
18905W        W19769  14.898  21.326   7.188
18906W        W19770  16.164  20.894   3.776
18907W        W19771  14.806  19.432   5.734
18908W        W19772  15.810  19.533   6.853
18909W        W19773  17.844  19.083   5.470
18910W        W19774  17.817  20.343   6.264
18911W        W19775  16.351  19.763   5.323
18912W        W19776  16.855  21.131   5.703
18913W        W19777  15.192  20.378   5.807
18914W        W19778  14.584  19.871   5.600
18915W        W19779  15.815  19.968   6.549
18916W        W19780  17.832  19.670   6.784
18917W        W19781  15.495  21.269   5.375
18918W        W19782  16.637  20.969   6.445
18919W        W19783  15.896  19.576   5.588
18920W        W19784  16.166  20.475   5.426
18921W        W19785  17.086  21.263   7.166
18922W        W19786  16.267  20.311   7.193
18923W        W19787  16.252  20.196   6.685
18924W        W19788  14.801  19.317   7.102
18925W        W19789  17.423  21.070   6.826
18926W        W19790  14.869  18.317   4.782
18927W        W19791  15.642  21.081   5.946
18928W        W19792  17.986  20.661   5.302
18929W        W19793  17.329  19.017   5.631
18930W        W19794  17.622  18.921   3.563
18931W        W19795  18.269  19.741   6.057
18932W        W19796  16.299  21.679   5.791
18933W        W19797  18.000  20.924   4.508
18934W        W19798  14.846  21.780   4.328
18935W        W19799  15.368  21.727   4.790
18936W        W19800  15.231  18.563   6.086
18937W        W19801  17.784  19.514   6.256
18938W        W19802  17.240  20.046   5.097
18939W        W19803  17.233  19.871   3.971
18940W        W19804  16.515  20.866   5.955
18941W        W19805  16.431  18.972   5.154
18942W        W19806  16.982  21.385   6.128
18943W        W19807  17.719  20.173   4.912
18944W        W19808  16.774  18.673   4.257
18945W        W19809  15.148  21.395   4.464
18946W        W19810  14.649  18.788   4.843
18947W        W19811  17.331  19.461   5.316
18948W        W19812  14.954  21.213   5.435
18949W        W19813  15.979  21.383   3.877
18950W        W19814  17.634  19.451   3.531
18951W        W19815  14.814  21.213   5.950
18952W        W19816  15.591  20.943   6.443
18953W        W19817  15.760  20.392   5.114
18954W        W19818  15.674  18.742   5.843
18955W        W19819  18.105  18.369   5.425
18956W        W19820  15.544  20.480   3.254
18957W        W19821  14.910  19.043   3.675
18958W        W19822  15.168  21.229   4.963
18959W        W19823  16.028  20.825   5.029
18960W        W19824  17.699  21.536   6.654
18961W        W19825  16.573  19.172   4.239
18962W        W19826  17.786  21.843   5.234
18963W        W19827  17.362  19.478   6.609
18964W        W19828  18.118  21.050   5.019
18965W        W19829  16.801  20.446   6.504
18966W        W19830  14.381  20.109   4.656
18967W        W19831  15.582  20.536   6.136
18968W        W19832  16.772  19.508   4.577
18969W        W19833  16.676  19.927   4.927
18970W        W19834  15.090  19.460   6.184
18971W        W19835  15.149  19.420   6.701
18972W        W19836  15.042  18.421   5.250
18973W        W19837  16.684  18.775   5.562
18974W        W19838  16.490  18.833   6.885
18975W        W19839  16.774  18.967   3.807
18976W        W19840  18.094  21.415   6.941
18977W        W19841  16.905  18.395   6.756
18978W        W19842  17.859  20.905   7.036
18979W        W19843  17.405  18.972   6.384
18980W        W19844  17.192  18.729   4.764
18981W        W19845  17.554  19.957   7.206
18982W        W19846  15.178  21.660   5.258
18983W        W19847  16.088  19.236   4.102
18984W        W19848  15.485  18.578   6.854
18985W        W19849  17.549  19.026   4.477
18986W        W19850  17.777  19.496   4.400
18987W        W19851  15.808  21.721   6.954
18988W        W19852  15.448  18.395   4.266
18989W        W19853  17.951  18.747   5.105
18990W        W19854  18.132  21.301   3.687
18991W        W19855  14.797  20.311   5.449
18992W        W19856  16.775  19.014   3.277
18993W        W19857  18.062  21.170   5.539
18994W        W19858  17.992  18.304   6.071
18995W        W19859  16.617  19.866   6.802
18996W        W19860  16.267  20.586   4.620
18997W        W19861  17.086  20.097   7.426
18998W        W19862  16.733  18.259   5.467
18999W        W19863  15.398  19.486   5.756
19000W        W19864  15.007  20.361   6.281
19001W        W19865  16.868  21.649   5.137
19002W        W19866  17.722  19.079   5.976
19003W        W19867  16.744  21.741   6.430
19004W        W19868  17.530  20.292   3.983
19005W        W19869  16.251  20.211   4.991
19006W        W19870  18.118  18.381   6.614
19007W        W19871  16.348  20.541   6.307
19008W        W19872  16.404  19.297   5.574
19009W        W19873  17.261  19.547   4.373
19010W        W19874  17.466  19.273   3.994
19011W        W19875  17.679  21.239   4.778
19012W        W19876  17.230  20.829   5.479
19013W        W19877  17.074  19.943   4.624
19014W        W19878  16.611  20.202   5.362
19015W        W19879  17.630  19.970   5.443
19016W        W19880  15.042  19.025   5.919
19017W        W19881  17.566  20.090   6.677
19018W        W19882  18.125  21.607   5.824
19019W        W19883  16.020  21.321   5.287
19020W        W19884  17.250  21.703   6.444
19021W        W19885  16.865  19.126   6.157
19022W        W19886  16.295  21.913   6.240
19023W        W19887  17.887  18.633   4.589
19024W        W19888  17.806  19.940   5.960
19025W        W19889  14.631  19.232   6.200
19026W        W19890  17.482  18.974   5.120
19027W        W19891  17.798  19.169   6.656
19028W        W19892  16.819  21.042   5.205
19029W        W19893  16.084  21.625   4.834
19030W        W19894  15.020  18.598   4.018
19031W        W19895  16.354  18.419   5.783
19032W        W19896  15.030  21.767   3.786
19033W        W19897  16.006  20.350   4.217
19034W        W19898  16.388  20.681   6.794
19035W        W19899  16.327  18.689   4.715
19036W        W19900  17.572  18.407   4.994
19037W        W19901  17.268  21.905   5.409
19038W        W19902  16.867  21.642   5.662
19039W        W19903  16.042  20.672   5.901
19040W        W19904  17.851  21.208   6.021
19041W        W19905  15.569  18.719   4.688
19042W        W19906  16.139  21.188   5.799
19043W        W19907  15.417  18.972   3.533
19044W        W19908  16.419  19.460   6.081
19045W        W19909  17.139  18.391   5.776
19046W        W19910  14.660  20.253   5.935
19047W        W19911  16.398  20.113   3.964
19048W        W19912  15.472  18.509   3.750
19049W        W19913  16.622  19.425   5.057
19050W        W19914  17.108  18.556   6.286
19051W        W19915  15.905  20.562   6.570
19052W        W19916  16.738  20.332   7.013
19053W        W19917  17.206  20.424   6.843
19054W        W19918  16.474  18.511   7.290
19055W        W19919  15.680  19.111   5.461
19056W        W19920  15.169  18.860   5.010
19057W        W19921  14.837  21.617   4.854
19058W        W19922  16.498  21.195   6.902
19059W        W19923  15.799  20.863   4.156
19060W        W19924  17.087  20.248   5.547
19061W        W19925  17.241  19.796   5.744
19062W        W19926  16.460  20.343   5.850
19063W        W19927  17.138  20.739   3.555
19064W        W19928  16.735  18.583   5.034
19065W        W19929  18.080  19.065   4.362
19066W        W19930  14.904  21.567   6.706
19067W        W19931  15.165  20.836   6.074
19068W        W19932  14.326  21.712   4.332
19069W        W19933  16.407  18.918   5.999
19070W        W19934  15.480  21.285   4.068
19071W        W19935  17.979  21.454   4.396
19072W        W19936  16.772  19.859   4.209
19073W        W19937  16.279  19.209   4.688
19074W        W19938  16.326  19.129   3.615
19075W        W19939  16.886  20.840   6.902
19076W        W19940  17.444  18.518   4.325
19077W        W19941  14.621  18.257   3.934
19078W        W19942  16.108  21.002   6.283
19079W        W19943  15.829  20.891   5.492
19080W        W19944  15.669  21.021   3.659
19081W        W19945  14.631  21.306   4.491
19082W        W19946  15.406  19.867   6.861
19083W        W19947  15.991  18.563   7.040
19084W        W19948  16.601  18.617   6.384
19085W        W19949  15.922  18.388   4.837
19086W        W19950  17.074  18.327   3.986
19087W        W19951  14.867  18.569   5.741
19088W        W19952  15.124  19.266   5.379
19089W        W19953  17.645  18.599   5.498
19090W        W19954  15.090  18.692   4.517
19091W        W19955  17.548  18.597   6.000
19092W        W19956  17.729  19.760   3.953
19093W        W19957  15.267  18.807   5.526
19094W        W19958  16.454  19.140   6.485
19095W        W19959  14.535  18.761   3.904
19096W        W19960  15.422  20.317   6.595
19097W        W19961  16.589  19.848   5.769
19098W        W19962  16.372  21.786   3.870
19099W        W19963  14.540  20.038   3.487
19100W        W19964  15.528  20.740   6.909
19101W        W19965  15.073  19.892   6.460
19102W        W19966  15.999  20.214   6.146
19103W        W19967  17.599  18.316   6.448
19104W        W19968  18.123  19.995   6.488
19105W        W19969  18.033  20.007   4.314
19106W        W19970  16.780  20.377   4.686
19107W        W19971  17.358  21.842   3.719
19108W        W19972  16.624  19.902   7.302
19109W        W19973  15.147  20.852   7.242
19110W        W19974  18.215  18.690   7.056
19111W        W19975  17.687  19.513   5.712
19112W        W19976  16.266  21.653   7.161
19113W        W19977  15.960  18.419   3.887
19114W        W19978  17.830  20.726   4.028
19115W        W19979  15.568  19.108   6.696
19116W        W19980  16.001  21.067   6.765
19117W        W19981  17.893  18.751   6.335
19118W        W19982  17.610  21.798   4.178
19119W        W19983  17.480  20.343   5.852
19120W        W19984  15.626  18.711   6.369
19121W        W19985  16.164  19.831   7.060
19122W        W19986  15.458  21.004   4.559
19123W        W19987  17.311  20.409   4.699
19124W        W19988  15.156  18.967   6.424
19125W        W19989  16.386  21.184   4.946
19126W        W19990  17.847  19.545   5.222
19127W        W19991  16.376  18.347   6.778
19128W        W19992  17.361  21.152   5.848
19129W        W19993  17.642  21.534   5.634
19130W        W19994  16.489  21.304   3.705
19131W        W19995  14.765  20.896   6.909
19132W        W19996  15.519  19.150   6.122
19133W        W19997  15.572  18.555   5.209
19134W        W19998  16.919  19.362   5.689
19135W        W19999  15.812  20.514   3.730
19136W        W20000  17.972  20.329   5.686
19137W        W20001  15.219  21.179   6.812
19138W        W20002  17.745  21.852   4.685
19139W        W20003  15.943  18.868   5.042
19140W        W20004  15.284  20.380   5.306
19141W        W20005  15.875  21.989   5.943
19142W        W20006  17.800  21.857   7.027
19143W        W20007  16.940  20.179   6.033
19144W        W20008  14.698  19.336   3.275
19145W        W20009  18.078  21.543   4.910
19146W        W20010  17.763  18.818   4.043
19147W        W20011  15.845  18.309   6.602
19148W        W20012  17.641  21.081   5.277
19149W        W20013  17.501  19.675   4.838
19150W        W20014  16.071  19.356   5.162
19151W        W20015  16.232  19.654   6.544
19152W        W20016  17.141  20.840   6.461
19153W        W20017  15.958  19.244   6.409
19154W        W20018  15.711  21.731   5.209
19155W        W20019  15.311  21.639   7.086
19156W        W20020  15.194  21.313   3.622
19157W        W20021  17.689  20.716   4.895
19158W        W20022  15.535  19.574   6.411
19159W        W20023  17.970  19.257   3.869
19160W        W20024  15.756  20.601   4.639
19161W        W20025  17.036  19.987   6.558
19162W        W20026  16.904  19.674   6.130
19163W        W20027  15.489  20.021   6.123
19164W        W20028  17.695  21.682   6.160
19165W        W20029  17.355  18.480   7.041
19166W        W20030  14.981  18.552   6.698
19167W        W20031  15.505  19.957   5.559
19168W        W20032  15.991  19.520   3.648
19169W        W20033  14.765  21.121   6.451
19170W        W20034  16.071  20.041   5.671
19171W        W20035  15.872  18.904   3.775
19172W        W20036  15.413  20.011   4.986
19173W        W20037  14.944  21.658   6.152
19174W        W20038  17.532  19.986   4.412
19175W        W20039  17.760  18.678   6.818
19176W        W20040  17.254  20.967   4.952
19177W        W20041  14.887  19.829   6.960
19178W        W20042  17.931  18.351   4.127
19179W        W20043  17.481  20.862   4.444
19180W        W20044  16.225  19.712   4.808
19181W        W20045  17.253  18.806   3.922
19182W        W20046  17.313  19.374   6.057
19183W        W20047  15.040  19.821   5.334
19184W        W20048  15.500  20.840   5.080
19185W        W20049  17.189  19.269   4.807
19186W        W20050  16.120  18.844   5.555
19187W        W20051  18.086  20.769   6.144
19188W        W20052  18.069  18.740   5.809
19189W        W20053  14.559  21.579   5.307
19190W        W20054  14.933  20.896   4.652
19191W        W20055  15.149  18.556   7.250
19192W        W20056  16.109  21.176   7.289
19193W        W20057  18.146  20.182   5.201
19194W        W20058  17.073  20.289   4.236
19195W        W20059  16.724  22.015   5.968
19196W        W20060  17.612  20.467   7.169
19197W        W20061  16.365  18.358   4.314
19198W        W20062  16.959  19.070   5.228
19199W        W20063  14.827  20.759   5.691
19200W        W20064  15.945  18.704   4.327
19201W        W20065  15.794  20.247   6.969
19202W        W20066  16.749  19.004   4.727
19203W        W20067  17.073  20.695   5.965
19204W        W20068  15.236  21.282   6.305
19205W        W20069  15.641  21.231   7.078
19206W        W20070  15.472  18.881   4.117
19207W        W20071  17.071  19.081   4.321
19208W        W20072  16.984  21.307   6.651
19209W        W20073  15.886  19.903   5.184
19210W        W20074  15.494  21.707   6.138
19211W        W20075  17.866  21.735   3.718
19212W        W20076  14.893  20.331   6.799
19213W        W20077  16.755  20.646   5.551
19214W        W20078  15.255  20.496   4.793
19215W        W20079  15.957  21.487   6.169
19216W        W20080  16.268  18.481   5.236
19217W        W20081  14.529  20.810   4.327
19218W        W20082  16.446  19.578   3.902
19219W        W20083  14.862  20.188   4.964
19220W        W20084  16.117  18.743   6.526
19221W        W20085  17.971  18.547   3.618
19222W        W20086  17.999  20.159   6.967
19223W        W20087  16.758  21.645   6.972
19224W        W20088  18.179  20.562   6.608
19225W        W20089  17.642  21.379   7.183
19226W        W20090  15.441  21.899   5.648
19227W        W20091  18.160  20.548   4.831
19228W        W20092  16.895  19.759   5.359
19229W        W20093  16.399  18.174   4.845
19230W        W20094  15.678  21.305   4.907
19231W        W20095  15.982  19.192   5.902
19232W        W20096  15.887  18.354   5.580
19233W        W20097  14.669  21.447   3.972
19234W        W20098  16.525  20.636   5.066
19235W        W20099  15.639  21.425   6.585
19236W        W20100  14.815  20.395   4.483
19237W        W20101  14.770  18.881   5.344
19238W        W20102  16.356  20.936   5.433
19239W        W20103  14.616  18.551   4.380
19240W        W20104  17.392  19.865   6.231
19241W        W20105  17.173  19.180   3.559
19242W        W20106  17.726  20.795   5.707
19243W        W20107  16.504  21.412   5.407
19244W        W20108  15.718  21.526   4.448
19245W        W20109  16.967  18.573   3.530
19246W        W20110  14.910  21.789   5.662
19247W        W20111  16.920  19.269   7.043
19248W        W20112  15.151  18.970   6.942
19249W        W20113  14.801  19.267   4.985
19250W        W20114  16.097  19.769   4.239
19251W        W20115  17.097  19.753   7.025
19252W        W20116  15.686  20.420   5.639
19253W        W20117  17.047  18.173   5.049
19254W        W20118  16.215  21.836   5.310
19255W        W20119  17.435  21.246   6.340
19256W        W20120  17.211  21.352   5.390
19257W        W20121  17.024  20.523   5.119
19258W        W20122  16.334  18.766   3.986
19259W        W20123  18.177  18.316   4.910
19260W        W20124  15.938  20.018   3.780
19261W        W20125  17.872  19.198   4.839
19262W        W20126  16.777  20.432   3.805
19263W        W20127  17.646  20.618   6.662
19264W        W20128  17.694  21.297   3.972
19265W        W20129  16.034  19.070   6.930
19266W        W20130  15.937  19.693   6.098
19267W        W20131  17.890  21.065   6.537
19268W        W20132  16.933  18.933   6.632
19269W        W20133  14.685  19.553   6.591
19270W        W20134  16.510  20.010   6.274
19271W        W20135  14.965  20.754   5.163
19272W        W20136  15.066  19.886   5.851
19273W        W20137  17.302  20.372   6.335
19274W        W20138  17.297  21.698   6.951
19275W        W20139  16.841  19.463   6.582
19276W        W20140  17.383  21.626   4.986
19277W        W20141  16.468  21.376   6.171
19278W        W20142  15.789  21.540   5.693
19279W        W20143  17.566  20.785   6.180
19280W        W20144  16.512  20.812   7.269
19281W        W20145  15.323  20.832   5.578
19282W        W20146  17.520  20.451   5.314
19283W        W20147  17.261  21.801   5.928
19284W        W20148  15.261  21.417   5.795
19285W        W20149  16.432  19.394   6.956
19286W        W20150  16.214  21.519   4.318
19287W        W20151  15.988  20.710   7.114
19288W        W20152  16.005  21.089   4.578
19289W        W20153  15.376  19.416   3.249
19290W        W20154  14.564  21.947  10.729
19291W        W20155  14.939  20.796  10.213
19292W        W20156  17.883  20.300   8.009
19293W        W20157  18.044  21.577   9.927
19294W        W20158  15.768  21.569   7.443
19295W        W20159  15.929  19.567   8.257
19296W        W20160  15.588  19.335   8.984
19297W        W20161  16.290  20.075   8.133
19298W        W20162  16.093  21.528  10.295
19299W        W20163  14.600  18.933  10.283
19300W        W20164  15.289  18.471  10.095
19301W        W20165  17.194  18.627   8.925
19302W        W20166  16.820  19.474   7.521
19303W        W20167  17.415  19.097  10.543
19304W        W20168  14.834  18.650   9.907
19305W        W20169  14.768  21.499  10.852
19306W        W20170  16.125  20.756   7.613
19307W        W20171  14.874  19.387   9.429
19308W        W20172  15.861  19.632  10.533
19309W        W20173  17.931  19.185   8.957
19310W        W20174  17.909  20.352   9.861
19311W        W20175  16.453  19.538   9.000
19312W        W20176  16.783  20.970   9.194
19313W        W20177  15.185  20.327   9.598
19314W        W20178  14.603  19.765   9.204
19315W        W20179  15.765  20.001  10.159
19316W        W20180  17.991  19.796  10.580
19317W        W20181  15.469  21.187   9.017
19318W        W20182  16.675  20.848  10.059
19319W        W20183  16.017  19.460   9.286
19320W        W20184  15.968  20.286   8.944
19321W        W20185  16.976  21.171  10.669
19322W        W20186  16.313  20.382  10.765
19323W        W20187  16.246  20.213  10.268
19324W        W20188  14.581  19.301  10.629
19325W        W20189  17.393  21.054  10.373
19326W        W20190  15.074  18.461   8.427
19327W        W20191  15.666  20.816   9.472
19328W        W20192  18.096  20.523   8.898
19329W        W20193  17.533  18.944   9.193
19330W        W20194  17.781  18.978   7.238
19331W        W20195  18.202  19.679   9.650
19332W        W20196  16.162  21.531   9.587
19333W        W20197  18.132  20.792   8.066
19334W        W20198  15.014  21.882   8.051
19335W        W20199  15.346  21.801   8.445
19336W        W20200  15.500  18.627   9.647
19337W        W20201  17.825  19.418   9.903
19338W        W20202  17.209  19.762   8.420
19339W        W20203  17.290  19.633   7.525
19340W        W20204  16.406  20.874   9.531
19341W        W20205  16.479  19.068   8.772
19342W        W20206  16.834  21.156   9.687
19343W        W20207  17.679  19.885   8.244
19344W        W20208  16.749  18.513   8.140
19345W        W20209  15.362  21.525   7.941
19346W        W20210  14.724  18.789   8.548
19347W        W20211  17.431  19.402   8.972
19348W        W20212  14.970  21.186   9.153
19349W        W20213  16.211  21.489   7.695
19350W        W20214  17.537  19.429   7.124
19351W        W20215  14.774  21.226   9.622
19352W        W20216  15.493  20.816   9.943
19353W        W20217  15.880  20.052   8.468
19354W        W20218  16.005  18.689   9.644
19355W        W20219  18.173  18.308   9.039
19356W        W20220  15.303  20.331   7.143
19357W        W20221  15.131  19.044   7.447
19358W        W20222  14.864  21.270   8.674
19359W        W20223  15.809  20.553   8.495
19360W        W20224  17.599  21.522  10.194
19361W        W20225  16.600  19.157   7.847
19362W        W20226  17.827  21.745   8.935
19363W        W20227  17.475  19.561  10.243
19364W        W20228  18.160  20.970   8.584
19365W        W20229  16.890  20.378  10.061
19366W        W20230  14.673  19.990   8.362
19367W        W20231  15.676  20.354   9.763
19368W        W20232  16.898  19.522   8.061
19369W        W20233  16.741  19.953   8.342
19370W        W20234  15.115  19.475   9.877
19371W        W20235  15.077  19.462  10.411
19372W        W20236  15.005  18.370   8.940
19373W        W20237  16.708  18.794   9.156
19374W        W20238  16.589  18.931  10.447
19375W        W20239  16.873  18.721   7.636
19376W        W20240  18.038  21.421  10.452
19377W        W20241  16.859  18.435  10.505
19378W        W20242  17.839  20.914  10.575
19379W        W20243  17.427  19.087   9.988
19380W        W20244  17.187  18.734   8.366
19381W        W20245  17.565  20.041  10.757
19382W        W20246  15.188  21.627   8.921
19383W        W20247  16.081  19.184   7.854
19384W        W20248  15.405  18.632  10.563
19385W        W20249  17.602  19.029   8.146
19386W        W20250  17.927  19.451   8.049
19387W        W20251  15.757  21.742  10.643
19388W        W20252  15.619  18.260   7.890
19389W        W20253  17.954  18.687   8.756
19390W        W20254  18.121  21.155   7.396
19391W        W20255  15.039  20.297   9.099
19392W        W20256  16.936  18.765   7.131
19393W        W20257  18.061  21.209   9.080
19394W        W20258  18.044  18.369   9.611
19395W        W20259  16.673  19.705  10.369
19396W        W20260  16.164  20.575   8.113
19397W        W20261  17.114  20.241  10.916
19398W        W20262  16.775  18.313   9.000
19399W        W20263  15.432  19.479   9.462
19400W        W20264  14.804  20.369   9.933
19401W        W20265  16.593  21.684   8.845
19402W        W20266  17.985  19.218   9.465
19403W        W20267  16.581  21.591  10.086
19404W        W20268  17.968  20.178   7.486
19405W        W20269  16.305  19.757   8.551
19406W        W20270  18.105  18.425  10.123
19407W        W20271  16.431  20.456   9.828
19408W        W20272  16.568  19.243   9.416
19409W        W20273  17.413  19.493   8.025
19410W        W20274  17.646  19.277   7.637
19411W        W20275  17.736  21.110   8.327
19412W        W20276  17.193  20.722   8.990
19413W        W20277  17.238  19.954   7.932
19414W        W20278  16.602  20.036   8.874
19415W        W20279  17.526  19.888   8.814
19416W        W20280  15.158  19.006   9.596
19417W        W20281  17.686  20.036  10.231
19418W        W20282  18.080  21.633   9.403
19419W        W20283  15.905  21.221   8.749
19420W        W20284  17.168  21.715   9.978
19421W        W20285  16.898  19.050   9.819
19422W        W20286  16.249  21.961   9.864
19423W        W20287  17.953  18.654   8.235
19424W        W20288  17.734  19.899   9.657
19425W        W20289  14.732  19.151   9.856
19426W        W20290  17.533  18.967   8.674
19427W        W20291  17.889  19.267  10.398
19428W        W20292  16.722  20.547   8.853
19429W        W20293  16.170  21.631   8.550
19430W        W20294  15.213  18.616   7.762
19431W        W20295  16.335  18.376   9.343
19432W        W20296  15.193  21.905   7.548
19433W        W20297  15.820  20.178   7.959
19434W        W20298  16.271  20.723  10.347
19435W        W20299  16.327  18.750   8.344
19436W        W20300  17.533  18.425   8.606
19437W        W20301  17.369  21.823   9.131
19438W        W20302  16.609  21.470   9.328
19439W        W20303  16.054  20.455   9.429
19440W        W20304  17.861  21.201   9.586
19441W        W20305  15.497  18.661   8.234
19442W        W20306  16.021  21.123   9.270
19443W        W20307  15.597  18.942   7.186
19444W        W20308  16.348  19.633   9.653
19445W        W20309  17.183  18.369   9.378
19446W        W20310  14.660  20.222   9.456
19447W        W20311  16.232  20.032   7.617
19448W        W20312  15.633  18.515   7.444
19449W        W20313  16.336  19.268   8.315
19450W        W20314  17.161  18.607   9.836
19451W        W20315  15.787  20.509  10.258
19452W        W20316  16.741  20.199  10.527
19453W        W20317  17.254  20.256  10.405
19454W        W20318  16.494  18.555  10.858
19455W        W20319  15.730  19.043   9.389
19456W        W20320  15.245  18.944   8.652
19457W        W20321  14.839  21.756   8.522
19458W        W20322  16.508  21.190  10.419
19459W        W20323  15.268  20.556   7.669
19460W        W20324  17.026  19.738   8.905
19461W        W20325  17.339  19.848   9.311
19462W        W20326  16.558  20.352   9.323
19463W        W20327  17.084  20.598   7.326
19464W        W20328  16.758  18.670   8.648
19465W        W20329  18.247  19.034   7.994
19466W        W20330  14.856  21.703  10.364
19467W        W20331  15.040  20.799   9.702
19468W        W20332  14.541  21.678   8.096
19469W        W20333  16.503  18.775   9.621
19470W        W20334  15.775  21.206   7.814
19471W        W20335  17.961  21.252   7.877
19472W        W20336  16.738  19.951   7.806
19473W        W20337  15.874  19.027   8.331
19474W        W20338  16.539  19.041   7.353
19475W        W20339  16.991  20.695  10.467
19476W        W20340  17.509  18.516   8.033
19477W        W20341  14.793  18.318   7.574
19478W        W20342  16.009  20.754   9.861
19479W        W20343  15.764  20.759   8.971
19480W        W20344  15.630  20.867   7.438
19481W        W20345  14.941  21.362   8.179
19482W        W20346  15.370  19.914  10.492
19483W        W20347  15.866  18.442  10.550
19484W        W20348  16.695  18.593  10.052
19485W        W20349  15.917  18.466   8.475
19486W        W20350  17.100  18.290   7.822
19487W        W20351  15.020  18.533   9.447
19488W        W20352  15.069  19.387   8.967
19489W        W20353  17.661  18.397   9.124
19490W        W20354  15.061  18.929   8.154
19491W        W20355  17.603  18.628   9.584
19492W        W20356  17.980  19.681   7.287
19493W        W20357  15.369  18.796   9.150
19494W        W20358  16.501  19.294  10.059
19495W        W20359  14.708  18.822   7.641
19496W        W20360  15.301  20.351  10.123
19497W        W20361  16.727  19.814   9.332
19498W        W20362  16.608  21.852   7.714
19499W        W20363  14.647  20.520   7.232
19500W        W20364  15.424  20.875  10.434
19501W        W20365  14.999  19.915  10.127
19502W        W20366  16.101  20.063   9.771
19503W        W20367  17.596  18.388  10.048
19504W        W20368  18.197  20.101  10.205
19505W        W20369  18.234  19.744   7.729
19506W        W20370  17.045  20.422   7.858
19507W        W20371  17.495  21.820   7.443
19508W        W20372  16.759  19.856  10.925
19509W        W20373  15.015  20.767  10.729
19510W        W20374  18.238  18.798  10.742
19511W        W20375  17.837  19.651   9.194
19512W        W20376  16.246  21.672  10.794
19513W        W20377  16.080  18.334   7.597
19514W        W20378  17.911  20.688   7.574
19515W        W20379  15.576  19.100  10.455
19516W        W20380  15.879  21.050  10.279
19517W        W20381  17.918  18.888   9.891
19518W        W20382  17.623  21.645   7.915
19519W        W20383  17.382  20.460   9.406
19520W        W20384  15.748  18.723  10.126
19521W        W20385  16.304  19.874  10.675
19522W        W20386  15.305  21.010   7.980
19523W        W20387  17.419  20.319   8.251
19524W        W20388  15.153  18.994  10.148
19525W        W20389  16.213  20.867   8.547
19526W        W20390  18.081  19.621   8.701
19527W        W20391  16.343  18.428  10.388
19528W        W20392  17.263  20.981   9.426
19529W        W20393  17.559  21.348   9.199
19530W        W20394  16.614  21.348   7.387
19531W        W20395  14.595  21.031  10.562
19532W        W20396  15.578  19.135   9.866
19533W        W20397  15.473  18.493   8.758
19534W        W20398  17.035  19.396   9.302
19535W        W20399  15.797  20.365   7.472
19536W        W20400  17.763  20.170   9.205
19537W        W20401  15.076  21.245  10.515
19538W        W20402  17.719  21.846   8.387
19539W        W20403  15.807  18.883   8.824
19540W        W20404  15.458  20.284   8.751
19541W        W20405  15.750  21.818   9.756
19542W        W20406  17.766  21.876  10.509
19543W        W20407  16.995  20.112   9.631
19544W        W20408  14.787  20.040   7.416
19545W        W20409  18.040  21.470   8.555
19546W        W20410  17.858  18.809   7.734
19547W        W20411  15.761  18.186  10.103
19548W        W20412  17.686  20.941   8.832
19549W        W20413  17.638  19.461   8.510
19550W        W20414  16.047  19.328   8.740
19551W        W20415  16.203  19.713  10.155
19552W        W20416  17.179  20.795   9.983
19553W        W20417  15.976  19.255  10.178
19554W        W20418  15.695  21.681   8.811
19555W        W20419  15.259  21.691  10.700
19556W        W20420  15.328  21.286   7.489
19557W        W20421  17.830  20.599   8.436
19558W        W20422  15.520  19.538  10.175
19559W        W20423  18.140  19.250   7.540
19560W        W20424  15.709  20.685   7.912
19561W        W20425  17.081  19.885  10.091
19562W        W20426  16.851  19.560   9.769
19563W        W20427  15.409  19.900   9.803
19564W        W20428  17.607  21.685   9.632
19565W        W20429  17.357  18.583  10.628
19566W        W20430  14.920  18.581  10.434
19567W        W20431  15.753  19.919   9.410
19568W        W20432  15.858  19.340   7.351
19569W        W20433  14.654  21.279  10.114
19570W        W20434  16.238  19.958   9.258
19571W        W20435  16.052  18.857   7.449
19572W        W20436  15.408  19.844   9.040
19573W        W20437  14.741  21.755   9.862
19574W        W20438  17.715  19.817   7.734
19575W        W20439  17.805  18.762  10.403
19576W        W20440  17.341  20.772   8.482
19577W        W20441  14.747  19.829  10.588
19578W        W20442  17.921  18.296   7.803
19579W        W20443  17.592  20.736   7.982
19580W        W20444  16.385  19.615   7.956
19581W        W20445  17.390  18.642   7.536
19582W        W20446  17.498  19.392   9.515
19583W        W20447  14.946  19.877   8.815
19584W        W20448  15.337  20.798   8.687
19585W        W20449  17.195  19.252   8.414
19586W        W20450  16.198  18.948   9.205
19587W        W20451  18.158  20.796   9.727
19588W        W20452  18.025  18.750   9.274
19589W        W20453  14.664  21.631   8.988
19590W        W20454  14.952  20.867   8.346
19591W        W20455  15.050  18.558  10.942
19592W        W20456  16.114  21.171  10.743
19593W        W20457  17.940  20.122   8.624
19594W        W20458  17.503  20.314   7.654
19595W        W20459  16.745  21.873   9.693
19596W        W20460  17.470  20.588  10.737
19597W        W20461  16.241  18.296   8.099
19598W        W20462  17.000  19.109   8.858
19599W        W20463  14.685  20.729   9.328
19600W        W20464  15.921  18.677   7.954
19601W        W20465  15.863  20.151  10.652
19602W        W20466  16.769  19.022   8.298
19603W        W20467  16.897  20.631   9.587
19604W        W20468  15.160  21.212  10.011
19605W        W20469  15.601  21.264  10.710
19606W        W20470  15.597  18.986   7.704
19607W        W20471  17.133  19.058   7.927
19608W        W20472  16.977  21.272  10.170
19609W        W20473  15.902  19.782   8.906
19610W        W20474  15.261  21.669   9.805
19611W        W20475  17.975  21.649   7.491
19612W        W20476  14.889  20.321  10.448
19613W        W20477  17.023  20.223   9.135
19614W        W20478  15.347  20.531   8.243
19615W        W20479  15.772  21.244   9.788
19616W        W20480  16.281  18.574   8.854
19617W        W20481  14.500  20.366   7.713
19618W        W20482  16.317  19.511   7.461
19619W        W20483  14.970  20.365   8.586
19620W        W20484  16.249  18.828  10.067
19621W        W20485  17.846  18.471   7.322
19622W        W20486  17.919  20.366  10.569
19623W        W20487  16.716  21.619  10.606
19624W        W20488  18.156  20.657  10.217
19625W        W20489  17.597  21.381  10.720
19626W        W20490  15.367  21.940   9.372
19627W        W20491  18.318  20.428   8.400
19628W        W20492  16.747  19.477   8.563
19629W        W20493  16.504  18.237   8.535
19630W        W20494  15.353  21.296   8.510
19631W        W20495  16.136  19.170   9.696
19632W        W20496  15.863  18.526   9.171
19633W        W20497  14.892  21.507   7.676
19634W        W20498  16.314  20.347   8.574
19635W        W20499  15.561  21.467  10.227
19636W        W20500  14.837  20.433   8.091
19637W        W20501  14.886  18.889   9.029
19638W        W20502  16.275  20.710   9.043
19639W        W20503  14.717  18.552   8.066
19640W        W20504  17.213  19.111   7.420
19641W        W20505  17.833  20.741   9.286
19642W        W20506  16.411  21.196   8.909
19643W        W20507  15.756  21.549   8.261
19644W        W20508  16.958  18.291   7.326
19645W        W20509  14.960  21.638   9.394
19646W        W20510  16.813  19.356  10.765
19647W        W20511  15.066  19.025  10.666
19648W        W20512  14.854  19.292   8.503
19649W        W20513  15.900  19.672   7.752
19650W        W20514  17.137  19.772  10.583
19651W        W20515  15.556  20.356   9.248
19652W        W20516  17.032  18.255   8.529
19653W        W20517  16.131  21.590   9.072
19654W        W20518  17.390  21.241   9.838
19655W        W20519  17.039  21.420   9.000
19656W        W20520  17.089  20.217   8.637
19657W        W20521  16.397  18.698   7.799
19658W        W20522  18.257  18.320   8.526
19659W        W20523  15.706  19.849   7.294
19660W        W20524  18.001  19.123   8.455
19661W        W20525  16.639  20.380   7.533
19662W        W20526  17.614  20.600  10.231
19663W        W20527  17.478  20.929   7.388
19664W        W20528  16.080  18.899  10.538
19665W        W20529  15.846  19.590   9.787
19666W        W20530  17.844  21.076  10.089
19667W        W20531  17.072  18.842  10.280
19668W        W20532  14.636  19.526  10.175
19669W        W20533  16.592  19.980   9.937
19670W        W20534  14.835  20.778   8.847
19671W        W20535  15.065  19.864   9.413
19672W        W20536  17.389  20.288   9.893
19673W        W20537  17.223  21.685  10.509
19674W        W20538  17.009  19.347  10.246
19675W        W20539  17.496  21.445   8.685
19676W        W20540  16.288  21.177   9.948
19677W        W20541  15.684  21.527   9.333
19678W        W20542  17.624  20.766   9.746
19679W        W20543  16.576  20.817  10.779
19680W        W20544  15.230  20.755   9.211
19681W        W20545  17.548  20.411   8.814
19682W        W20546  17.123  21.532   9.491
19683W        W20547  15.317  21.211   9.525
19684W        W20548  16.319  19.372  10.557
19685W        W20549  16.171  21.257   8.175
19686W        W20550  15.898  20.703  10.718
19687W        W20551  15.726  21.016   8.306
19688W        W20552  15.381  19.415   7.150
19689W        W20553  14.552  21.858  14.335
19690W        W20554  15.118  20.734  13.777
19691W        W20555  17.560  20.384  11.707
19692W        W20556  17.889  21.589  13.669
19693W        W20557  15.625  21.558  11.146
19694W        W20558  15.877  19.758  12.228
19695W        W20559  15.518  19.451  12.502
19696W        W20560  16.691  20.348  11.674
19697W        W20561  16.039  21.419  13.948
19698W        W20562  14.742  18.882  13.975
19699W        W20563  15.306  18.147  13.802
19700W        W20564  17.130  18.665  12.638
19701W        W20565  16.905  19.507  11.356
19702W        W20566  17.418  18.952  14.283
19703W        W20567  14.578  18.756  13.518
19704W        W20568  14.766  21.407  14.456
19705W        W20569  16.225  20.891  11.183
19706W        W20570  14.745  19.252  13.058
19707W        W20571  15.651  19.420  14.197
19708W        W20572  17.992  19.229  12.771
19709W        W20573  17.849  20.369  13.452
19710W        W20574  16.315  19.762  12.553
19711W        W20575  16.770  21.052  12.906
19712W        W20576  15.298  20.443  13.285
19713W        W20577  14.530  20.101  12.821
19714W        W20578  15.798  19.945  14.082
19715W        W20579  17.787  19.694  14.134
19716W        W20580  15.517  21.052  12.618
19717W        W20581  16.651  20.809  13.748
19718W        W20582  16.156  19.478  12.960
19719W        W20583  16.169  20.244  12.677
19720W        W20584  16.976  21.168  14.410
19721W        W20585  16.154  20.164  14.392
19722W        W20586  16.352  19.917  13.993
19723W        W20587  14.877  19.089  14.433
19724W        W20588  17.399  20.972  14.162
19725W        W20589  15.048  18.445  12.107
19726W        W20590  15.663  20.822  13.073
19727W        W20591  17.900  20.682  12.490
19728W        W20592  17.585  18.750  12.872
19729W        W20593  17.887  19.166  10.919
19730W        W20594  18.086  19.818  13.397
19731W        W20595  16.251  21.492  13.038
19732W        W20596  17.920  21.133  11.495
19733W        W20597  15.006  21.872  11.672
19734W        W20598  15.415  21.749  11.981
19735W        W20599  15.395  18.489  13.337
19736W        W20600  17.700  19.483  13.621
19737W        W20601  17.212  19.889  12.330
19738W        W20602  17.252  19.747  11.072
19739W        W20603  16.481  20.803  13.242
19740W        W20604  16.492  19.263  12.647
19741W        W20605  16.873  21.118  13.412
19742W        W20606  17.646  20.032  12.094
19743W        W20607  16.576  18.787  11.835
19744W        W20608  15.304  21.455  11.554
19745W        W20609  14.688  18.792  12.246
19746W        W20610  17.474  19.263  12.795
19747W        W20611  14.963  21.179  12.702
19748W        W20612  16.122  21.401  11.225
19749W        W20613  17.577  19.530  10.743
19750W        W20614  14.767  21.159  13.188
19751W        W20615  15.510  20.962  13.540
19752W        W20616  15.753  20.257  12.359
19753W        W20617  15.889  18.625  13.488
19754W        W20618  18.085  18.357  12.826
19755W        W20619  15.413  20.414  10.634
19756W        W20620  14.976  19.010  11.181
19757W        W20621  15.169  21.055  12.239
19758W        W20622  16.104  20.629  12.151
19759W        W20623  17.463  21.491  13.934
19760W        W20624  16.517  19.260  11.596
19761W        W20625  17.818  21.631  12.557
19762W        W20626  17.320  19.452  13.992
19763W        W20627  18.205  21.135  12.307
19764W        W20628  16.872  20.330  13.768
19765W        W20629  14.610  19.712  12.387
19766W        W20630  15.740  20.459  13.525
19767W        W20631  16.831  19.547  11.885
19768W        W20632  16.724  20.004  12.090
19769W        W20633  15.166  19.402  13.322
19770W        W20634  15.148  19.362  14.111
19771W        W20635  14.988  18.316  12.604
19772W        W20636  16.725  18.748  12.992
19773W        W20637  16.564  18.904  14.163
19774W        W20638  16.814  19.005  11.256
19775W        W20639  17.908  21.454  14.187
19776W        W20640  16.967  18.331  14.089
19777W        W20641  17.837  20.726  14.322
19778W        W20642  17.479  18.882  13.759
19779W        W20643  17.032  18.781  12.120
19780W        W20644  17.520  19.957  14.496
19781W        W20645  15.299  21.505  12.476
19782W        W20646  16.070  19.096  11.363
19783W        W20647  17.543  19.147  11.896
19784W        W20648  17.812  19.601  11.841
19785W        W20649  15.678  21.781  14.172
19786W        W20650  15.489  18.246  11.551
19787W        W20651  17.971  18.760  12.550
19788W        W20652  18.018  21.173  10.971
19789W        W20653  15.019  20.264  12.856
19790W        W20654  16.950  18.847  10.797
19791W        W20655  18.044  21.181  12.787
19792W        W20656  18.047  18.353  13.366
19793W        W20657  16.536  19.436  14.219
19794W        W20658  16.722  20.887  11.365
19795W        W20659  17.094  20.127  14.723
19796W        W20660  16.750  18.312  12.730
19797W        W20661  15.210  19.195  12.844
19798W        W20662  15.053  20.203  13.671
19799W        W20663  16.803  21.526  12.307
19800W        W20664  17.651  19.075  13.289
19801W        W20665  16.636  21.614  13.829
19802W        W20666  17.566  20.314  11.193
19803W        W20667  16.239  20.129  12.178
19804W        W20668  18.129  18.340  13.870
19805W        W20669  16.301  20.459  13.579
19806W        W20670  16.548  19.198  13.165
19807W        W20671  17.315  19.641  11.900
19808W        W20672  17.444  19.420  11.457
19809W        W20673  17.504  21.367  11.735
19810W        W20674  17.344  20.780  12.605
19811W        W20675  17.147  20.155  11.874
19812W        W20676  16.662  20.157  12.577
19813W        W20677  17.597  19.814  12.711
19814W        W20678  15.027  18.892  13.273
19815W        W20679  17.715  19.984  13.731
19816W        W20680  18.040  21.631  13.040
19817W        W20681  15.989  21.108  12.393
19818W        W20682  17.100  21.700  13.600
19819W        W20683  16.831  18.910  13.491
19820W        W20684  16.227  21.719  13.520
19821W        W20685  17.779  18.698  12.067
19822W        W20686  17.575  20.001  13.205
19823W        W20687  14.752  19.237  13.577
19824W        W20688  17.479  18.950  12.390
19825W        W20689  17.790  19.190  14.028
19826W        W20690  16.866  20.891  12.400
19827W        W20691  16.189  21.495  12.103
19828W        W20692  15.107  18.571  11.457
19829W        W20693  16.288  18.370  12.988
19830W        W20694  15.135  21.789  11.179
19831W        W20695  16.184  20.226  11.656
19832W        W20696  16.470  20.458  14.091
19833W        W20697  16.184  18.876  12.290
19834W        W20698  17.564  18.406  12.466
19835W        W20699  17.272  21.771  12.731
19836W        W20700  16.728  21.565  12.822
19837W        W20701  16.053  20.481  13.109
19838W        W20702  17.857  21.222  13.310
19839W        W20703  15.500  18.617  11.921
19840W        W20704  16.130  21.007  12.931
19841W        W20705  15.488  18.939  10.966
19842W        W20706  16.315  19.561  13.447
19843W        W20707  17.155  18.431  13.086
19844W        W20708  14.694  20.237  13.304
19845W        W20709  16.341  20.038  11.178
19846W        W20710  15.564  18.412  11.011
19847W        W20711  16.353  19.626  12.052
19848W        W20712  17.122  18.489  13.599
19849W        W20713  15.972  20.405  13.969
19850W        W20714  16.884  20.215  14.274
19851W        W20715  17.310  20.062  14.026
19852W        W20716  16.549  18.449  14.417
19853W        W20717  15.733  19.203  12.915
19854W        W20718  15.168  18.885  12.394
19855W        W20719  14.941  21.610  12.128
19856W        W20720  16.540  21.188  14.106
19857W        W20721  15.825  20.633  11.657
19858W        W20722  17.128  20.070  12.793
19859W        W20723  17.223  19.625  13.076
19860W        W20724  16.556  20.316  13.070
19861W        W20725  17.057  20.768  10.984
19862W        W20726  16.647  18.778  12.486
19863W        W20727  18.049  18.988  11.756
19864W        W20728  14.807  21.577  13.948
19865W        W20729  14.487  21.832  11.635
19866W        W20730  16.370  18.716  13.361
19867W        W20731  15.737  21.095  11.379
19868W        W20732  17.658  21.486  11.254
19869W        W20733  16.953  20.027  11.375
19870W        W20734  16.111  19.194  11.899
19871W        W20735  16.405  19.041  10.941
19872W        W20736  16.949  20.709  14.158
19873W        W20737  17.375  18.675  11.719
19874W        W20738  14.710  18.296  11.267
19875W        W20739  16.017  20.882  13.443
19876W        W20740  15.894  20.674  12.628
19877W        W20741  15.478  20.840  10.978
19878W        W20742  14.882  21.211  11.811
19879W        W20743  15.306  19.865  14.091
19880W        W20744  15.960  18.368  14.327
19881W        W20745  16.611  18.528  13.778
19882W        W20746  15.891  18.299  12.078
19883W        W20747  16.887  18.541  11.482
19884W        W20748  14.881  18.422  13.156
19885W        W20749  14.778  19.245  12.552
19886W        W20750  17.618  18.247  12.981
19887W        W20751  15.007  18.892  11.849
19888W        W20752  17.578  18.573  13.361
19889W        W20753  17.752  19.744  11.169
19890W        W20754  15.270  18.693  12.862
19891W        W20755  16.362  19.105  13.721
19892W        W20756  14.541  18.772  11.321
19893W        W20757  15.447  20.360  13.953
19894W        W20758  16.662  19.766  12.950
19895W        W20759  16.554  21.751  11.214
19896W        W20760  14.288  20.133  11.108
19897W        W20761  15.663  20.838  14.038
19898W        W20762  14.996  19.679  13.729
19899W        W20763  16.021  20.009  13.602
19900W        W20764  17.596  18.348  13.825
19901W        W20765  18.199  20.147  13.769
19902W        W20766  17.933  20.066  11.560
19903W        W20767  17.033  20.668  11.905
19904W        W20768  17.501  21.845  10.936
19905W        W20769  16.580  19.860  14.479
19906W        W20770  15.251  20.686  14.317
19907W        W20771  18.232  18.822  14.431
19908W        W20772  17.759  19.537  13.116
19909W        W20773  16.072  21.703  14.468
19910W        W20774  15.973  18.335  11.373
19911W        W20775  17.524  21.002  11.079
19912W        W20776  15.181  18.743  14.196
19913W        W20777  16.169  20.887  13.932
19914W        W20778  17.969  18.804  13.625
19915W        W20779  17.285  21.817  11.411
19916W        W20780  17.382  20.455  13.047
19917W        W20781  15.520  18.615  13.836
19918W        W20782  16.090  19.646  14.371
19919W        W20783  15.397  20.989  11.764
19920W        W20784  17.497  20.597  12.152
19921W        W20785  15.203  19.017  13.741
19922W        W20786  16.446  21.019  12.107
19923W        W20787  18.034  19.643  12.417
19924W        W20788  16.330  18.167  14.028
19925W        W20789  17.243  20.956  13.081
19926W        W20790  17.568  21.337  12.904
19927W        W20791  16.575  21.281  10.992
19928W        W20792  14.656  21.052  13.892
19929W        W20793  15.528  19.003  13.339
19930W        W20794  15.473  18.443  12.424
19931W        W20795  17.183  18.945  13.116
19932W        W20796  15.990  20.427  11.174
19933W        W20797  17.895  20.337  12.934
19934W        W20798  15.137  21.163  14.103
19935W        W20799  17.561  21.861  11.865
19936W        W20800  15.691  18.904  12.508
19937W        W20801  15.549  20.370  12.830
19938W        W20802  15.877  21.841  13.172
19939W        W20803  17.639  21.885  14.238
19940W        W20804  16.982  20.073  13.272
19941W        W20805  14.934  19.474  10.942
19942W        W20806  17.870  21.449  12.077
19943W        W20807  17.661  18.955  11.385
19944W        W20808  15.842  18.202  13.820
19945W        W20809  17.670  21.141  12.439
19946W        W20810  17.560  19.489  12.319
19947W        W20811  16.020  19.328  12.476
19948W        W20812  16.008  19.534  13.845
19949W        W20813  17.177  20.794  13.717
19950W        W20814  15.801  19.056  13.785
19951W        W20815  15.815  21.603  12.488
19952W        W20816  15.202  21.649  14.285
19953W        W20817  15.195  21.280  11.048
19954W        W20818  17.833  20.944  11.976
19955W        W20819  15.481  19.459  13.721
19956W        W20820  17.982  19.359  11.412
19957W        W20821  16.339  20.727  11.686
19958W        W20822  16.854  19.812  13.907
19959W        W20823  16.824  19.583  13.411
19960W        W20824  15.508  19.959  13.634
19961W        W20825  17.543  21.678  13.285
19962W        W20826  17.423  18.435  14.306
19963W        W20827  15.006  18.534  13.674
19964W        W20828  15.453  19.637  12.977
19965W        W20829  15.917  19.239  10.879
19966W        W20830  14.483  21.422  13.553
19967W        W20831  16.196  19.959  13.115
19968W        W20832  15.993  18.706  11.005
19969W        W20833  15.348  19.962  12.581
19970W        W20834  14.892  21.745  13.456
19971W        W20835  17.437  19.934  11.515
19972W        W20836  17.844  18.687  14.132
19973W        W20837  17.284  21.063  12.117
19974W        W20838  14.844  19.785  14.269
19975W        W20839  17.796  18.431  11.419
19976W        W20840  17.464  20.870  11.605
19977W        W20841  16.542  19.842  11.606
19978W        W20842  17.280  18.693  11.172
19979W        W20843  17.230  19.273  13.507
19980W        W20844  14.943  19.696  12.828
19981W        W20845  15.624  20.785  12.182
19982W        W20846  17.116  19.274  12.208
19983W        W20847  16.208  18.895  12.853
19984W        W20848  18.128  20.800  13.406
19985W        W20849  18.046  18.809  13.106
19986W        W20850  14.615  21.565  12.527
19987W        W20851  14.863  20.708  12.012
19988W        W20852  15.136  18.139  14.710
19989W        W20853  16.115  21.178  14.411
19990W        W20854  18.024  20.161  12.464
19991W        W20855  17.133  20.500  11.420
19992W        W20856  16.672  21.589  13.322
19993W        W20857  17.373  20.451  14.366
19994W        W20858  16.286  18.167  11.740
19995W        W20859  16.980  19.157  12.690
19996W        W20860  14.709  20.665  13.011
19997W        W20861  16.063  18.679  11.769
19998W        W20862  15.677  20.376  14.404
19999W        W20863  16.603  19.180  12.154
20000W        W20864  16.941  20.592  13.319
20001W        W20865  15.066  21.266  13.594
20002W        W20866  15.621  21.290  14.304
20003W        W20867  15.650  18.736  11.422
20004W        W20868  17.051  19.111  11.703
20005W        W20869  17.007  21.244  13.895
20006W        W20870  15.842  19.847  12.734
20007W        W20871  15.405  21.634  13.352
20008W        W20872  17.985  21.674  10.921
20009W        W20873  14.926  20.288  14.150
20010W        W20874  16.924  20.562  12.808
20011W        W20875  15.271  20.484  12.416
20012W        W20876  15.863  21.369  13.441
20013W        W20877  16.005  18.481  12.565
20014W        W20878  14.404  20.966  11.886
20015W        W20879  16.419  19.517  11.120
20016W        W20880  14.766  20.229  12.381
20017W        W20881  16.134  18.671  13.945
20018W        W20882  17.781  18.661  10.937
20019W        W20883  17.864  20.212  14.190
20020W        W20884  16.568  21.654  14.332
20021W        W20885  18.114  20.634  13.890
20022W        W20886  17.448  21.407  14.442
20023W        W20887  15.463  21.783  12.864
20024W        W20888  17.977  20.435  12.030
20025W        W20889  16.791  19.616  12.428
20026W        W20890  16.401  18.420  12.186
20027W        W20891  15.609  21.307  12.115
20028W        W20892  16.041  19.110  13.317
20029W        W20893  15.766  18.666  12.990
20030W        W20894  14.780  21.490  11.373
20031W        W20895  16.599  20.509  12.166
20032W        W20896  15.516  21.394  13.824
20033W        W20897  14.553  19.995  11.952
20034W        W20898  14.767  18.779  12.773
20035W        W20899  16.436  20.693  12.644
20036W        W20900  14.661  18.500  11.772
20037W        W20901  17.269  19.784  13.584
20038W        W20902  17.257  19.209  11.030
20039W        W20903  17.733  20.829  12.953
20040W        W20904  16.440  21.237  12.569
20041W        W20905  15.824  21.546  11.666
20042W        W20906  16.964  18.308  10.998
20043W        W20907  14.982  21.602  12.976
20044W        W20908  16.984  19.214  14.335
20045W        W20909  15.089  18.681  14.746
20046W        W20910  14.774  19.315  12.050
20047W        W20911  16.105  19.595  11.535
20048W        W20912  17.071  19.724  14.373
20049W        W20913  15.698  20.062  13.185
20050W        W20914  17.069  18.287  12.290
20051W        W20915  16.313  21.746  12.558
20052W        W20916  17.373  21.240  13.507
20053W        W20917  17.146  21.266  12.621
20054W        W20918  17.067  20.386  12.345
20055W        W20919  16.392  18.700  11.355
20056W        W20920  18.057  18.318  12.285
20057W        W20921  15.943  19.740  11.031
20058W        W20922  17.938  19.164  12.240
20059W        W20923  16.680  20.421  11.137
20060W        W20924  17.601  20.550  13.901
20061W        W20925  17.180  21.441  11.045
20062W        W20926  15.726  18.834  14.259
20063W        W20927  15.809  19.580  13.344
20064W        W20928  17.785  21.063  13.831
20065W        W20929  17.023  18.833  13.967
20066W        W20930  14.636  19.379  14.047
20067W        W20931  16.541  20.014  13.514
20068W        W20932  14.837  20.715  12.524
20069W        W20933  15.157  19.941  13.247
20070W        W20934  17.337  20.314  13.546
20071W        W20935  17.061  21.682  14.189
20072W        W20936  16.836  19.294  13.839
20073W        W20937  17.377  21.551  12.253
20074W        W20938  16.381  21.226  13.575
20075W        W20939  15.754  21.365  12.945
20076W        W20940  17.589  20.787  13.432
20077W        W20941  16.560  20.820  14.468
20078W        W20942  15.196  20.750  12.883
20079W        W20943  17.533  20.297  12.562
20080W        W20944  17.119  21.460  13.117
20081W        W20945  15.293  21.198  13.110
20082W        W20946  16.116  19.154  14.185
20083W        W20947  16.402  21.249  11.624
20084W        W20948  16.089  20.671  14.392
20085W        W20949  15.978  21.071  11.863
20086W        W20950  15.439  19.460  10.788
20087W        W20951  14.689  21.777  18.071
20088W        W20952  15.096  20.734  17.535
20089W        W20953  17.777  20.459  15.334
20090W        W20954  17.939  21.495  17.291
20091W        W20955  15.609  21.491  14.772
20092W        W20956  16.095  19.832  15.596
20093W        W20957  15.405  19.954  16.384
20094W        W20958  16.337  20.202  15.229
20095W        W20959  16.138  21.525  17.682
20096W        W20960  14.703  18.941  17.594
20097W        W20961  15.370  18.331  17.366
20098W        W20962  17.118  18.755  16.265
20099W        W20963  16.807  19.456  14.760
20100W        W20964  17.393  19.057  17.958
20101W        W20965  14.803  18.642  17.150
20102W        W20966  14.901  21.319  18.126
20103W        W20967  16.211  20.897  14.865
20104W        W20968  14.742  19.340  16.661
20105W        W20969  15.838  19.575  17.798
20106W        W20970  17.938  19.200  16.337
20107W        W20971  17.785  20.272  17.159
20108W        W20972  16.379  19.506  16.196
20109W        W20973  16.863  20.998  16.613
20110W        W20974  15.322  20.380  16.864
20111W        W20975  14.392  19.733  16.665
20112W        W20976  15.853  19.991  17.430
20113W        W20977  17.923  19.695  17.789
20114W        W20978  15.548  21.017  16.255
20115W        W20979  16.600  20.873  17.333
20116W        W20980  16.051  19.505  16.600
20117W        W20981  16.100  20.305  16.214
20118W        W20982  16.967  21.223  18.092
20119W        W20983  16.320  20.301  18.099
20120W        W20984  16.352  20.137  17.599
20121W        W20985  14.133  19.298  17.889
20122W        W20986  17.374  20.946  17.811
20123W        W20987  15.041  18.598  15.644
20124W        W20988  15.654  20.830  16.759
20125W        W20989  18.029  20.593  16.242
20126W        W20990  17.497  19.107  16.586
20127W        W20991  17.797  19.011  14.617
20128W        W20992  18.218  19.723  17.006
20129W        W20993  16.087  21.627  16.845
20130W        W20994  17.875  20.939  15.079
20131W        W20995  14.920  21.726  15.260
20132W        W20996  15.295  21.640  15.593
20133W        W20997  15.483  18.626  16.920
20134W        W20998  17.794  19.619  17.298
20135W        W20999  17.179  19.883  15.728
20136W        W21000  17.252  19.649  14.860
20137W        W21001  16.463  20.809  16.844
20138W        W21002  16.286  19.017  16.025
20139W        W21003  16.853  21.226  17.104
20140W        W21004  17.634  19.994  15.521
20141W        W21005  16.768  18.581  15.457
20142W        W21006  15.299  21.328  15.166
20143W        W21007  14.646  18.899  15.804
20144W        W21008  17.209  19.416  16.265
20145W        W21009  14.933  21.160  16.324
20146W        W21010  16.089  21.404  14.884
20147W        W21011  17.516  19.427  14.471
20148W        W21012  14.810  21.180  16.825
20149W        W21013  15.539  20.843  17.271
20150W        W21014  16.129  20.342  15.697
20151W        W21015  15.995  18.665  16.948
20152W        W21016  18.059  18.429  16.501
20153W        W21017  15.239  20.121  14.536
20154W        W21018  15.037  19.236  14.893
20155W        W21019  15.184  21.101  15.895
20156W        W21020  15.776  20.698  15.899
20157W        W21021  17.509  21.459  17.580
20158W        W21022  16.569  19.157  15.143
20159W        W21023  17.831  21.681  16.310
20160W        W21024  17.448  19.549  17.697
20161W        W21025  18.258  21.011  15.969
20162W        W21026  16.790  20.403  17.433
20163W        W21027  14.506  19.916  15.679
20164W        W21028  15.793  20.384  17.062
20165W        W21029  16.878  19.552  15.291
20166W        W21030  16.713  20.004  15.521
20167W        W21031  15.170  19.454  17.028
20168W        W21032  15.045  19.346  17.521
20169W        W21033  14.948  18.462  16.151
20170W        W21034  16.655  18.755  16.470
20171W        W21035  16.519  18.823  17.783
20172W        W21036  16.941  18.657  14.971
20173W        W21037  17.956  21.409  17.843
20174W        W21038  16.935  18.286  17.689
20175W        W21039  17.857  20.895  17.989
20176W        W21040  17.438  18.874  17.473
20177W        W21041  17.101  18.859  15.766
20178W        W21042  17.569  19.927  18.073
20179W        W21043  15.334  21.518  16.201
20180W        W21044  16.062  19.041  15.051
20181W        W21045  15.524  18.565  17.818
20182W        W21046  17.510  19.109  15.557
20183W        W21047  17.880  19.518  15.452
20184W        W21048  15.707  21.661  17.960
20185W        W21049  15.516  18.318  14.991
20186W        W21050  17.911  18.731  16.125
20187W        W21051  17.911  21.152  14.605
20188W        W21052  15.012  20.277  16.463
20189W        W21053  17.008  18.710  14.462
20190W        W21054  18.085  21.049  16.482
20191W        W21055  18.039  18.423  17.035
20192W        W21056  16.705  19.620  17.700
20193W        W21057  16.344  20.709  15.370
20194W        W21058  17.159  20.144  18.263
20195W        W21059  16.705  18.282  16.296
20196W        W21060  15.203  19.275  16.415
20197W        W21061  14.908  20.352  17.202
20198W        W21062  16.885  21.413  16.282
20199W        W21063  17.843  19.396  16.828
20200W        W21064  16.672  21.632  17.467
20201W        W21065  17.765  20.378  14.712
20202W        W21066  16.409  19.971  15.983
20203W        W21067  18.185  18.406  17.569
20204W        W21068  16.317  20.467  17.216
20205W        W21069  16.499  19.225  16.603
20206W        W21070  17.382  19.558  15.354
20207W        W21071  17.707  19.426  14.957
20208W        W21072  17.734  21.330  15.422
20209W        W21073  17.508  20.597  16.320
20210W        W21074  17.156  20.000  15.226
20211W        W21075  16.766  20.129  16.340
20212W        W21076  17.597  19.988  16.034
20213W        W21077  15.137  18.983  16.830
20214W        W21078  17.597  20.040  17.576
20215W        W21079  18.086  21.496  16.750
20216W        W21080  16.005  21.198  16.099
20217W        W21081  17.142  21.635  17.234
20218W        W21082  17.006  18.941  17.145
20219W        W21083  16.239  21.825  17.271
20220W        W21084  17.840  18.714  15.603
20221W        W21085  17.667  19.881  16.863
20222W        W21086  14.765  19.146  17.135
20223W        W21087  17.503  19.044  16.070
20224W        W21088  17.820  19.203  17.644
20225W        W21089  16.840  20.836  16.083
20226W        W21090  16.136  21.522  15.727
20227W        W21091  15.349  18.762  15.209
20228W        W21092  16.345  18.376  16.679
20229W        W21093  15.111  21.665  14.787
20230W        W21094  15.840  20.063  15.170
20231W        W21095  16.382  20.635  17.715
20232W        W21096  16.275  18.719  15.585
20233W        W21097  17.464  18.549  15.930
20234W        W21098  17.333  21.715  16.397
20235W        W21099  16.569  21.416  16.722
20236W        W21100  16.136  20.430  16.710
20237W        W21101  17.850  21.103  16.963
20238W        W21102  15.652  18.822  15.648
20239W        W21103  16.109  21.148  16.694
20240W        W21104  15.373  19.082  14.529
20241W        W21105  16.424  19.578  16.959
20242W        W21106  17.080  18.577  16.749
20243W        W21107  14.627  20.148  16.831
20244W        W21108  16.210  19.908  14.824
20245W        W21109  15.476  18.425  14.469
20246W        W21110  16.543  19.551  15.701
20247W        W21111  17.185  18.471  17.254
20248W        W21112  15.887  20.525  17.540
20249W        W21113  16.787  20.332  17.939
20250W        W21114  17.235  20.451  17.743
20251W        W21115  16.520  18.470  18.193
20252W        W21116  15.703  19.053  16.618
20253W        W21117  15.134  18.946  16.006
20254W        W21118  14.905  21.539  15.920
20255W        W21119  16.528  21.196  17.724
20256W        W21120  15.537  20.431  14.901
20257W        W21121  17.253  19.958  16.413
20258W        W21122  17.289  19.558  16.754
20259W        W21123  16.602  20.265  16.824
20260W        W21124  16.997  20.634  14.674
20261W        W21125  16.663  18.682  15.968
20262W        W21126  18.172  19.064  15.363
20263W        W21127  14.797  21.600  17.596
20264W        W21128  15.085  20.809  17.025
20265W        W21129  14.417  21.574  15.210
20266W        W21130  16.510  18.817  16.950
20267W        W21131  15.751  21.036  15.073
20268W        W21132  18.086  21.428  15.048
20269W        W21133  16.707  19.921  14.977
20270W        W21134  16.172  19.235  15.525
20271W        W21135  16.634  18.977  14.669
20272W        W21136  16.858  20.815  17.790
20273W        W21137  17.370  18.637  15.382
20274W        W21138  14.629  18.389  14.869
20275W        W21139  16.027  20.861  17.114
20276W        W21140  16.007  20.778  16.368
20277W        W21141  15.668  20.869  14.596
20278W        W21142  14.882  21.248  15.491
20279W        W21143  15.427  19.944  17.744
20280W        W21144  16.031  18.463  18.032
20281W        W21145  16.692  18.578  17.354
20282W        W21146  15.927  18.367  15.725
20283W        W21147  17.262  18.235  15.091
20284W        W21148  15.007  18.493  16.703
20285W        W21149  14.729  19.297  16.139
20286W        W21150  17.568  18.605  16.486
20287W        W21151  14.849  18.958  15.299
20288W        W21152  17.515  18.772  16.979
20289W        W21153  17.978  19.761  14.638
20290W        W21154  15.354  18.737  16.421
20291W        W21155  16.534  19.191  17.355
20292W        W21156  14.607  18.917  14.835
20293W        W21157  15.403  20.329  17.386
20294W        W21158  16.800  19.644  16.578
20295W        W21159  16.460  21.778  14.827
20296W        W21160  14.483  19.986  14.577
20297W        W21161  15.582  20.926  17.775
20298W        W21162  15.097  19.879  17.340
20299W        W21163  16.192  20.017  17.043
20300W        W21164  17.670  18.365  17.400
20301W        W21165  18.123  20.015  17.436
20302W        W21166  18.100  20.147  15.078
20303W        W21167  16.834  20.398  15.141
20304W        W21168  17.362  21.882  14.678
20305W        W21169  16.729  19.877  18.153
20306W        W21170  15.148  20.847  18.052
20307W        W21171  18.253  18.717  17.997
20308W        W21172  17.657  19.626  16.394
20309W        W21173  16.170  21.708  18.166
20310W        W21174  16.050  18.352  14.839
20311W        W21175  17.482  20.856  14.690
20312W        W21176  15.537  19.116  17.660
20313W        W21177  16.055  21.023  17.596
20314W        W21178  17.923  18.828  17.304
20315W        W21179  17.337  21.721  15.179
20316W        W21180  17.408  20.357  16.780
20317W        W21181  15.708  18.741  17.369
20318W        W21182  16.268  19.794  17.961
20319W        W21183  15.468  20.937  15.503
20320W        W21184  17.279  20.388  15.531
20321W        W21185  15.207  18.884  17.343
20322W        W21186  16.297  20.776  15.931
20323W        W21187  18.023  19.627  16.015
20324W        W21188  16.405  18.323  17.709
20325W        W21189  17.350  20.882  16.746
20326W        W21190  17.625  21.276  16.534
20327W        W21191  16.546  21.281  14.690
20328W        W21192  14.702  20.953  17.806
20329W        W21193  15.587  19.158  17.098
20330W        W21194  15.449  18.493  15.981
20331W        W21195  16.993  19.119  16.653
20332W        W21196  16.045  20.408  14.837
20333W        W21197  17.780  20.184  16.471
20334W        W21198  15.147  21.228  17.669
20335W        W21199  17.623  21.774  15.656
20336W        W21200  15.817  18.787  16.146
20337W        W21201  15.625  20.432  16.433
20338W        W21202  15.783  22.004  17.034
20339W        W21203  17.654  21.861  17.873
20340W        W21204  17.037  20.008  16.874
20341W        W21205  14.891  19.756  14.807
20342W        W21206  17.961  21.407  15.892
20343W        W21207  17.719  18.935  15.122
20344W        W21208  15.900  18.312  17.550
20345W        W21209  17.739  20.997  16.103
20346W        W21210  17.545  19.518  15.863
20347W        W21211  15.872  19.295  16.175
20348W        W21212  16.258  19.657  17.446
20349W        W21213  17.130  20.813  17.376
20350W        W21214  15.979  19.230  17.438
20351W        W21215  15.827  21.735  16.077
20352W        W21216  15.203  21.710  17.896
20353W        W21217  15.218  21.179  14.627
20354W        W21218  17.877  20.883  15.622
20355W        W21219  15.507  19.563  17.410
20356W        W21220  18.196  19.274  14.847
20357W        W21221  15.843  20.578  15.321
20358W        W21222  17.095  19.959  17.717
20359W        W21223  16.904  19.451  17.074
20360W        W21224  15.519  19.938  17.053
20361W        W21225  17.586  21.617  16.908
20362W        W21226  17.361  18.479  17.948
20363W        W21227  15.015  18.533  17.673
20364W        W21228  15.546  19.554  16.696
20365W        W21229  15.851  19.226  14.618
20366W        W21230  14.747  21.170  17.331
20367W        W21231  16.337  19.928  16.528
20368W        W21232  16.167  18.794  14.564
20369W        W21233  15.657  20.197  15.964
20370W        W21234  14.874  21.701  17.079
20371W        W21235  17.624  19.965  15.007
20372W        W21236  17.796  18.696  17.787
20373W        W21237  17.326  20.806  15.845
20374W        W21238  14.908  19.745  17.805
20375W        W21239  17.821  18.427  15.131
20376W        W21240  17.437  20.868  15.330
20377W        W21241  16.370  19.625  15.218
20378W        W21242  17.432  18.630  14.792
20379W        W21243  17.432  19.268  17.151
20380W        W21244  14.857  19.776  16.377
20381W        W21245  15.295  20.587  16.049
20382W        W21246  17.067  19.369  15.742
20383W        W21247  16.161  18.860  16.513
20384W        W21248  18.103  20.709  17.167
20385W        W21249  17.980  18.881  16.760
20386W        W21250  14.520  21.490  16.240
20387W        W21251  14.947  20.711  15.666
20388W        W21252  15.126  18.532  18.183
20389W        W21253  15.934  21.217  18.082
20390W        W21254  18.098  20.117  16.080
20391W        W21255  17.360  20.447  15.018
20392W        W21256  16.695  21.837  16.995
20393W        W21257  17.573  20.454  18.119
20394W        W21258  16.284  18.261  15.329
20395W        W21259  16.780  19.164  16.144
20396W        W21260  14.716  20.642  16.678
20397W        W21261  15.877  18.585  15.256
20398W        W21262  15.885  20.148  17.904
20399W        W21263  16.657  19.067  15.633
20400W        W21264  16.943  20.610  16.966
20401W        W21265  15.227  21.287  17.172
20402W        W21266  15.412  21.284  18.094
20403W        W21267  15.696  18.759  14.792
20404W        W21268  17.068  19.067  15.284
20405W        W21269  17.027  21.271  17.586
20406W        W21270  15.943  19.814  16.184
20407W        W21271  15.420  21.673  16.874
20408W        W21272  17.834  21.660  14.675
20409W        W21273  14.991  20.256  17.708
20410W        W21274  17.028  20.538  16.473
20411W        W21275  15.393  20.425  15.567
20412W        W21276  15.732  21.283  17.024
20413W        W21277  16.218  18.467  16.176
20414W        W21278  14.390  20.499  15.305
20415W        W21279  16.315  19.386  14.741
20416W        W21280  14.950  20.184  15.963
20417W        W21281  16.212  18.772  17.394
20418W        W21282  17.893  18.480  14.624
20419W        W21283  17.993  20.201  17.913
20420W        W21284  16.648  21.647  17.978
20421W        W21285  18.221  20.652  17.678
20422W        W21286  17.502  21.362  18.095
20423W        W21287  15.333  21.991  16.482
20424W        W21288  18.176  20.484  15.741
20425W        W21289  16.849  19.710  16.072
20426W        W21290  16.480  18.237  15.802
20427W        W21291  15.632  21.339  15.800
20428W        W21292  16.121  19.150  16.961
20429W        W21293  15.808  18.432  16.536
20430W        W21294  14.792  21.309  14.972
20431W        W21295  16.661  20.397  15.879
20432W        W21296  15.639  21.370  17.531
20433W        W21297  14.850  20.244  15.442
20434W        W21298  14.820  18.881  16.424
20435W        W21299  16.510  20.576  16.383
20436W        W21300  14.545  18.561  15.426
20437W        W21301  17.284  19.763  17.254
20438W        W21302  17.237  19.112  14.786
20439W        W21303  17.843  20.639  16.724
20440W        W21304  16.455  21.093  16.321
20441W        W21305  15.809  21.477  15.315
20442W        W21306  17.033  18.226  14.610
20443W        W21307  14.968  21.616  16.563
20444W        W21308  16.809  19.211  18.027
20445W        W21309  15.109  18.986  17.897
20446W        W21310  14.671  19.400  15.594
20447W        W21311  15.895  19.552  15.019
20448W        W21312  17.151  19.598  18.101
20449W        W21313  15.841  20.004  16.662
20450W        W21314  17.012  18.317  15.873
20451W        W21315  16.232  21.571  16.364
20452W        W21316  17.387  21.198  17.159
20453W        W21317  17.250  21.054  16.285
20454W        W21318  17.171  20.315  16.031
20455W        W21319  16.414  18.673  15.048
20456W        W21320  18.140  18.330  15.854
20457W        W21321  15.728  19.916  14.631
20458W        W21322  17.950  19.164  15.824
20459W        W21323  16.550  20.338  14.688
20460W        W21324  17.722  20.539  17.615
20461W        W21325  17.551  21.317  14.942
20462W        W21326  15.973  18.918  17.847
20463W        W21327  15.898  19.597  17.078
20464W        W21328  17.794  21.036  17.491
20465W        W21329  17.010  18.790  17.711
20466W        W21330  14.512  19.429  17.487
20467W        W21331  16.696  19.917  17.258
20468W        W21332  14.802  20.652  16.180
20469W        W21333  15.083  19.911  16.813
20470W        W21334  17.263  20.289  17.262
20471W        W21335  17.158  21.694  17.881
20472W        W21336  17.054  19.271  17.544
20473W        W21337  17.455  21.426  15.997
20474W        W21338  16.319  21.300  17.200
20475W        W21339  15.739  21.446  16.505
20476W        W21340  17.569  20.714  17.161
20477W        W21341  16.553  20.748  18.198
20478W        W21342  15.194  20.751  16.521
20479W        W21343  17.688  20.448  15.857
20480W        W21344  17.147  21.402  16.738
20481W        W21345  15.310  21.219  16.673
20482W        W21346  16.317  19.301  17.835
20483W        W21347  16.338  21.256  15.293
20484W        W21348  15.976  20.689  18.019
20485W        W21349  15.977  21.032  15.571
20486W        W21350  15.306  19.595  14.546
20487W        W21351  14.688  21.787  21.739
20488W        W21352  15.006  20.717  21.096
20489W        W21353  17.814  20.501  18.994
20490W        W21354  18.188  21.553  20.892
20491W        W21355  15.641  21.531  18.465
20492W        W21356  16.247  19.760  19.201
20493W        W21357  15.744  19.291  19.932
20494W        W21358  16.328  20.276  19.286
20495W        W21359  16.090  21.538  21.294
20496W        W21360  14.663  18.912  21.226
20497W        W21361  15.379  18.245  21.050
20498W        W21362  17.116  18.761  19.848
20499W        W21363  16.891  19.625  18.577
20500W        W21364  17.258  19.160  21.625
20501W        W21365  14.810  18.610  20.814
20502W        W21366  14.869  21.314  21.780
20503W        W21367  16.114  20.909  18.472
20504W        W21368  14.809  19.362  20.294
20505W        W21369  15.792  19.594  21.507
20506W        W21370  17.967  19.213  20.004
20507W        W21371  17.802  20.288  20.895
20508W        W21372  16.443  19.529  19.962
20509W        W21373  16.831  21.058  20.280
20510W        W21374  15.325  20.316  20.384
20511W        W21375  14.545  19.832  20.211
20512W        W21376  15.776  20.004  21.135
20513W        W21377  17.954  19.767  21.571
20514W        W21378  15.444  21.160  19.966
20515W        W21379  16.642  20.925  21.078
20516W        W21380  16.069  19.404  20.302
20517W        W21381  16.230  20.239  20.071
20518W        W21382  17.084  21.344  21.765
20519W        W21383  16.294  20.298  21.875
20520W        W21384  16.261  20.189  21.283
20521W        W21385  14.653  19.283  21.631
20522W        W21386  17.347  20.924  21.574
20523W        W21387  14.992  18.401  19.357
20524W        W21388  15.483  20.791  20.517
20525W        W21389  17.981  20.663  19.845
20526W        W21390  17.542  19.093  20.268
20527W        W21391  17.857  18.973  18.224
20528W        W21392  18.238  19.701  20.703
20529W        W21393  16.112  21.387  20.501
20530W        W21394  17.959  21.023  18.878
20531W        W21395  14.982  21.769  18.975
20532W        W21396  15.479  21.822  19.327
20533W        W21397  15.464  18.499  20.557
20534W        W21398  17.834  19.793  21.019
20535W        W21399  17.311  19.947  19.409
20536W        W21400  17.382  19.754  18.539
20537W        W21401  16.423  20.966  20.594
20538W        W21402  16.319  19.054  19.731
20539W        W21403  16.881  21.233  20.772
20540W        W21404  17.832  20.014  19.393
20541W        W21405  16.734  18.461  19.062
20542W        W21406  15.345  21.406  19.021
20543W        W21407  14.668  18.772  19.566
20544W        W21408  17.249  19.429  19.956
20545W        W21409  14.917  21.194  19.963
20546W        W21410  16.129  21.434  18.600
20547W        W21411  17.670  19.444  18.210
20548W        W21412  14.684  21.169  20.433
20549W        W21413  15.502  20.862  21.044
20550W        W21414  15.855  20.236  19.714
20551W        W21415  15.964  18.599  20.595
20552W        W21416  18.081  18.436  20.102
20553W        W21417  15.467  20.450  17.889
20554W        W21418  15.051  18.980  18.414
20555W        W21419  15.133  20.973  19.559
20556W        W21420  16.121  20.695  19.841
20557W        W21421  17.699  21.543  21.038
20558W        W21422  16.728  19.122  18.557
20559W        W21423  17.811  21.676  19.964
20560W        W21424  17.502  19.558  21.361
20561W        W21425  18.285  21.083  19.672
20562W        W21426  16.770  20.413  21.089
20563W        W21427  14.522  19.859  19.347
20564W        W21428  15.705  20.405  20.777
20565W        W21429  16.953  19.686  19.126
20566W        W21430  16.812  20.112  19.360
20567W        W21431  15.141  19.420  20.713
20568W        W21432  15.080  19.384  21.255
20569W        W21433  14.965  18.375  19.861
20570W        W21434  16.652  18.767  20.091
20571W        W21435  16.467  18.819  21.506
20572W        W21436  17.016  18.762  18.746
20573W        W21437  18.069  21.451  21.403
20574W        W21438  16.948  18.364  21.310
20575W        W21439  17.852  20.867  21.665
20576W        W21440  17.469  18.944  21.210
20577W        W21441  17.098  18.835  19.273
20578W        W21442  17.568  19.982  21.860
20579W        W21443  15.208  21.598  19.810
20580W        W21444  16.228  19.106  18.703
20581W        W21445  15.511  18.537  21.470
20582W        W21446  17.552  19.097  19.218
20583W        W21447  17.964  19.579  19.176
20584W        W21448  15.714  21.748  21.563
20585W        W21449  15.495  18.247  18.796
20586W        W21450  17.953  18.757  19.742
20587W        W21451  18.043  21.182  18.374
20588W        W21452  14.858  20.285  20.153
20589W        W21453  16.961  18.755  18.226
20590W        W21454  18.090  21.143  20.138
20591W        W21455  18.034  18.409  20.633
20592W        W21456  16.642  19.689  21.410
20593W        W21457  16.374  20.787  19.389
20594W        W21458  17.092  20.141  21.900
20595W        W21459  16.749  18.310  19.890
20596W        W21460  15.251  19.199  20.079
20597W        W21461  15.055  20.291  20.810
20598W        W21462  16.765  21.456  19.928
20599W        W21463  17.866  19.412  20.496
20600W        W21464  16.754  21.710  21.155
20601W        W21465  17.780  20.156  18.496
20602W        W21466  16.406  19.937  19.669
20603W        W21467  18.089  18.346  21.145
20604W        W21468  16.304  20.575  20.928
20605W        W21469  16.539  19.200  20.348
20606W        W21470  17.457  19.571  19.045
20607W        W21471  17.644  19.179  18.702
20608W        W21472  17.640  21.313  19.164
20609W        W21473  17.459  20.622  19.966
20610W        W21474  17.068  20.075  18.799
20611W        W21475  16.718  20.070  20.082
20612W        W21476  17.621  20.115  19.849
20613W        W21477  15.152  18.925  20.507
20614W        W21478  17.542  20.074  21.343
20615W        W21479  18.074  21.579  20.395
20616W        W21480  15.934  21.177  19.794
20617W        W21481  17.197  21.659  20.891
20618W        W21482  16.822  19.052  20.792
20619W        W21483  16.218  21.860  20.901
20620W        W21484  17.902  18.710  19.230
20621W        W21485  17.736  19.918  20.523
20622W        W21486  14.728  19.115  20.746
20623W        W21487  17.533  19.068  19.744
20624W        W21488  17.771  19.297  20.990
20625W        W21489  16.948  20.780  19.850
20626W        W21490  16.019  21.564  19.470
20627W        W21491  15.073  18.544  18.723
20628W        W21492  16.377  18.355  20.283
20629W        W21493  15.128  21.695  18.419
20630W        W21494  16.068  20.142  18.862
20631W        W21495  16.412  20.642  21.442
20632W        W21496  16.269  18.669  19.263
20633W        W21497  17.489  18.616  19.524
20634W        W21498  17.321  21.759  20.062
20635W        W21499  16.593  21.496  20.415
20636W        W21500  16.106  20.537  20.462
20637W        W21501  17.895  21.173  20.686
20638W        W21502  15.428  18.594  19.167
20639W        W21503  15.896  20.969  20.254
20640W        W21504  15.544  18.944  18.164
20641W        W21505  16.405  19.488  20.749
20642W        W21506  17.096  18.551  20.329
20643W        W21507  14.602  20.181  20.595
20644W        W21508  16.324  19.957  18.457
20645W        W21509  15.594  18.399  18.310
20646W        W21510  16.599  19.443  19.442
20647W        W21511  17.126  18.632  20.874
20648W        W21512  15.892  20.560  21.237
20649W        W21513  16.692  20.213  21.565
20650W        W21514  17.139  20.446  21.462
20651W        W21515  16.500  18.474  21.890
20652W        W21516  15.675  18.961  20.331
20653W        W21517  15.169  18.841  19.622
20654W        W21518  14.907  21.439  19.403
20655W        W21519  16.553  21.310  21.420
20656W        W21520  15.817  20.635  18.813
20657W        W21521  17.233  19.947  20.128
20658W        W21522  17.347  19.550  20.450
20659W        W21523  16.567  20.295  20.554
20660W        W21524  17.099  20.664  18.219
20661W        W21525  16.686  18.726  19.559
20662W        W21526  18.098  19.108  18.982
20663W        W21527  14.854  21.500  21.291
20664W        W21528  14.945  20.731  20.564
20665W        W21529  14.485  21.653  19.031
20666W        W21530  16.471  18.745  20.580
20667W        W21531  15.736  21.140  18.780
20668W        W21532  17.928  21.510  18.766
20669W        W21533  16.582  19.976  18.892
20670W        W21534  16.203  19.192  19.211
20671W        W21535  16.376  18.962  18.234
20672W        W21536  16.845  20.903  21.540
20673W        W21537  17.471  18.654  18.955
20674W        W21538  14.696  18.270  18.535
20675W        W21539  15.930  20.916  20.763
20676W        W21540  15.716  20.509  20.127
20677W        W21541  15.608  20.869  18.334
20678W        W21542  14.579  21.162  19.103
20679W        W21543  15.312  19.850  21.415
20680W        W21544  16.018  18.459  21.680
20681W        W21545  16.629  18.627  21.033
20682W        W21546  15.882  18.314  19.371
20683W        W21547  17.204  18.304  18.660
20684W        W21548  14.982  18.407  20.384
20685W        W21549  14.833  19.229  19.774
20686W        W21550  17.580  18.625  20.066
20687W        W21551  14.938  18.853  19.119
20688W        W21552  17.560  18.653  20.586
20689W        W21553  17.847  19.667  18.695
20690W        W21554  15.328  18.685  20.084
20691W        W21555  16.506  19.202  21.163
20692W        W21556  14.614  18.763  18.617
20693W        W21557  15.395  20.349  21.197
20694W        W21558  16.858  19.600  20.244
20695W        W21559  16.498  21.823  18.567
20696W        W21560  14.441  20.039  18.373
20697W        W21561  15.504  20.717  21.552
20698W        W21562  15.007  19.824  20.995
20699W        W21563  16.149  20.100  20.791
20700W        W21564  17.562  18.436  21.085
20701W        W21565  18.175  20.104  21.208
20702W        W21566  18.087  20.066  18.947
20703W        W21567  16.737  20.462  18.984
20704W        W21568  17.386  21.844  18.343
20705W        W21569  16.665  19.849  21.919
20706W        W21570  14.955  20.654  21.610
20707W        W21571  18.232  18.866  21.757
20708W        W21572  17.686  19.651  20.071
20709W        W21573  16.211  21.683  21.813
20710W        W21574  16.039  18.262  18.531
20711W        W21575  17.796  20.721  18.502
20712W        W21576  15.528  19.102  21.324
20713W        W21577  16.150  21.022  21.206
20714W        W21578  17.906  18.809  20.937
20715W        W21579  17.448  21.682  18.835
20716W        W21580  17.468  20.360  20.457
20717W        W21581  15.637  18.702  21.000
20718W        W21582  16.222  19.846  21.662
20719W        W21583  15.480  20.907  19.173
20720W        W21584  17.234  20.411  19.177
20721W        W21585  15.156  18.930  21.018
20722W        W21586  16.408  21.263  19.601
20723W        W21587  18.062  19.649  19.723
20724W        W21588  16.397  18.321  21.371
20725W        W21589  17.290  20.884  20.391
20726W        W21590  17.608  21.299  20.284
20727W        W21591  16.435  21.253  18.226
20728W        W21592  14.641  21.012  21.411
20729W        W21593  15.582  19.150  20.786
20730W        W21594  15.446  18.407  19.661
20731W        W21595  17.035  19.086  20.308
20732W        W21596  15.904  20.332  18.395
20733W        W21597  17.927  20.314  20.219
20734W        W21598  15.173  21.091  21.411
20735W        W21599  17.713  21.813  19.285
20736W        W21600  15.783  18.775  19.829
20737W        W21601  15.314  20.321  19.849
20738W        W21602  15.814  21.821  20.565
20739W        W21603  17.728  21.851  21.477
20740W        W21604  17.016  20.042  20.585
20741W        W21605  14.665  19.291  17.974
20742W        W21606  17.968  21.440  19.541
20743W        W21607  17.911  18.730  18.690
20744W        W21608  15.896  18.305  21.186
20745W        W21609  17.704  21.093  19.820
20746W        W21610  17.593  19.547  19.557
20747W        W21611  16.086  19.498  19.603
20748W        W21612  16.195  19.700  21.166
20749W        W21613  17.157  20.816  21.091
20750W        W21614  15.972  19.254  21.136
20751W        W21615  15.720  21.638  19.903
20752W        W21616  15.181  21.881  21.578
20753W        W21617  15.234  21.194  18.560
20754W        W21618  17.900  20.906  19.371
20755W        W21619  15.522  19.557  21.065
20756W        W21620  18.148  19.296  18.502
20757W        W21621  15.899  20.571  19.321
20758W        W21622  17.041  19.968  21.267
20759W        W21623  16.916  19.552  20.744
20760W        W21624  15.454  19.933  20.723
20761W        W21625  17.598  21.724  20.560
20762W        W21626  17.365  18.587  21.572
20763W        W21627  15.002  18.505  21.305
20764W        W21628  15.553  19.490  20.397
20765W        W21629  15.961  19.278  18.233
20766W        W21630  14.624  21.035  20.907
20767W        W21631  16.351  19.840  20.381
20768W        W21632  15.955  18.767  18.427
20769W        W21633  15.443  19.892  20.103
20770W        W21634  14.774  21.584  20.781
20771W        W21635  17.559  20.057  18.952
20772W        W21636  17.868  18.707  21.442
20773W        W21637  17.349  20.904  19.507
20774W        W21638  14.784  19.762  21.459
20775W        W21639  17.729  18.253  18.700
20776W        W21640  17.463  20.859  18.988
20777W        W21641  16.549  19.455  18.911
20778W        W21642  17.446  18.718  18.427
20779W        W21643  17.332  19.130  20.751
20780W        W21644  14.962  19.723  19.938
20781W        W21645  15.597  20.761  19.687
20782W        W21646  17.134  19.326  19.452
20783W        W21647  16.155  18.872  20.189
20784W        W21648  18.094  20.698  20.756
20785W        W21649  18.033  18.886  20.415
20786W        W21650  14.694  21.651  19.834
20787W        W21651  14.768  20.700  19.220
20788W        W21652  15.099  18.527  21.819
20789W        W21653  16.135  21.190  21.694
20790W        W21654  18.142  20.152  19.782
20791W        W21655  17.375  20.455  18.643
20792W        W21656  16.719  21.908  20.687
20793W        W21657  17.507  20.498  21.823
20794W        W21658  16.254  18.201  18.998
20795W        W21659  16.811  19.191  19.844
20796W        W21660  14.637  20.773  20.117
20797W        W21661  15.900  18.575  18.913
20798W        W21662  15.821  20.194  21.612
20799W        W21663  16.645  18.973  19.061
20800W        W21664  16.877  20.702  20.666
20801W        W21665  15.114  21.196  20.911
20802W        W21666  15.701  21.191  21.405
20803W        W21667  15.502  18.787  18.660
20804W        W21668  17.090  19.235  18.925
20805W        W21669  17.072  21.295  21.251
20806W        W21670  15.971  19.799  19.993
20807W        W21671  15.310  21.634  20.710
20808W        W21672  17.868  21.664  18.298
20809W        W21673  14.894  20.235  21.309
20810W        W21674  17.018  20.450  20.240
20811W        W21675  15.235  20.493  19.368
20812W        W21676  15.761  21.392  20.902
20813W        W21677  16.252  18.533  19.800
20814W        W21678  14.397  20.570  18.836
20815W        W21679  16.437  19.472  18.334
20816W        W21680  14.957  20.075  19.549
20817W        W21681  16.145  18.755  21.086
20818W        W21682  17.862  18.459  18.242
20819W        W21683  17.923  20.307  21.610
20820W        W21684  16.726  21.710  21.686
20821W        W21685  18.123  20.642  21.271
20822W        W21686  17.546  21.382  21.503
20823W        W21687  15.385  21.842  20.253
20824W        W21688  18.170  20.449  19.379
20825W        W21689  16.916  19.748  19.721
20826W        W21690  16.486  18.238  19.455
20827W        W21691  15.535  21.331  19.492
20828W        W21692  16.094  19.081  20.680
20829W        W21693  15.877  18.364  20.143
20830W        W21694  14.754  21.407  18.657
20831W        W21695  16.585  20.425  19.719
20832W        W21696  15.369  21.536  21.224
20833W        W21697  14.806  20.207  19.058
20834W        W21698  14.827  18.826  20.096
20835W        W21699  16.538  20.647  20.183
20836W        W21700  14.573  18.450  19.044
20837W        W21701  17.349  19.790  20.904
20838W        W21702  17.215  19.201  18.420
20839W        W21703  17.789  20.792  20.332
20840W        W21704  16.359  21.126  20.098
20841W        W21705  15.838  21.598  18.997
20842W        W21706  16.971  18.218  18.204
20843W        W21707  14.925  21.599  20.280
20844W        W21708  16.752  19.246  21.631
20845W        W21709  15.085  18.962  21.539
20846W        W21710  14.710  19.378  19.304
20847W        W21711  16.086  19.599  18.725
20848W        W21712  17.100  19.653  21.689
20849W        W21713  15.833  20.074  20.395
20850W        W21714  17.050  18.340  19.464
20851W        W21715  16.236  21.617  19.998
20852W        W21716  17.393  21.206  20.791
20853W        W21717  17.221  21.204  19.965
20854W        W21718  17.114  20.288  19.746
20855W        W21719  16.411  18.625  18.687
20856W        W21720  18.195  18.372  19.483
20857W        W21721  15.863  19.794  18.282
20858W        W21722  17.980  19.192  19.490
20859W        W21723  16.713  20.308  18.469
20860W        W21724  17.606  20.577  21.291
20861W        W21725  17.558  21.203  18.590
20862W        W21726  15.955  18.934  21.545
20863W        W21727  15.909  19.640  20.737
20864W        W21728  17.777  21.048  21.177
20865W        W21729  16.960  18.884  21.317
20866W        W21730  14.590  19.420  21.133
20867W        W21731  16.619  19.936  20.943
20868W        W21732  14.841  20.549  19.707
20869W        W21733  15.028  19.874  20.442
20870W        W21734  17.275  20.324  20.951
20871W        W21735  17.204  21.778  21.414
20872W        W21736  17.036  19.390  21.208
20873W        W21737  17.452  21.513  19.619
20874W        W21738  16.412  21.380  20.918
20875W        W21739  15.629  21.395  20.372
20876W        W21740  17.580  20.737  20.800
20877W        W21741  16.511  20.768  21.932
20878W        W21742  15.166  20.744  20.088
20879W        W21743  17.639  20.477  19.489
20880W        W21744  17.122  21.473  20.410
20881W        W21745  15.181  21.179  20.408
20882W        W21746  16.255  19.344  21.588
20883W        W21747  16.319  21.371  19.084
20884W        W21748  15.996  20.697  21.738
20885W        W21749  15.946  21.085  19.282
20886W        W21750  15.335  19.470  17.954
20887W        W21751  14.615  21.931  25.286
20888W        W21752  15.005  20.827  24.825
20889W        W21753  17.730  20.414  22.669
20890W        W21754  18.071  21.607  24.602
20891W        W21755  15.741  21.594  22.067
20892W        W21756  16.000  19.749  23.145
20893W        W21757  15.481  19.503  23.501
20894W        W21758  16.512  20.313  22.724
20895W        W21759  16.028  21.617  24.778
20896W        W21760  14.673  19.045  24.958
20897W        W21761  15.237  18.227  24.902
20898W        W21762  17.123  18.703  23.587
20899W        W21763  16.820  19.388  22.114
20900W        W21764  17.219  19.202  25.223
20901W        W21765  14.795  18.727  24.517
20902W        W21766  14.810  21.485  25.435
20903W        W21767  16.137  21.019  22.187
20904W        W21768  14.612  19.511  24.010
20905W        W21769  15.696  19.575  25.178
20906W        W21770  17.847  19.209  23.698
20907W        W21771  17.822  20.390  24.493
20908W        W21772  16.313  19.809  23.603
20909W        W21773  16.851  21.074  23.939
20910W        W21774  15.173  20.333  24.100
20911W        W21775  14.530  19.871  23.636
20912W        W21776  15.643  19.999  24.866
20913W        W21777  17.799  19.765  25.193
20914W        W21778  15.501  21.104  23.641
20915W        W21779  16.645  20.895  24.706
20916W        W21780  15.952  19.476  23.984
20917W        W21781  16.135  20.280  23.693
20918W        W21782  16.590  21.206  25.466
20919W        W21783  16.304  20.206  25.456
20920W        W21784  16.145  20.169  24.965
20921W        W21785  14.551  19.370  25.339
20922W        W21786  17.358  21.119  25.122
20923W        W21787  15.036  18.343  23.048
20924W        W21788  15.576  20.888  24.127
20925W        W21789  17.946  20.715  23.537
20926W        W21790  17.374  19.030  23.896
20927W        W21791  17.664  18.958  21.844
20928W        W21792  18.202  19.784  24.412
20929W        W21793  16.206  21.556  24.105
20930W        W21794  17.959  20.903  22.685
20931W        W21795  15.064  21.694  22.626
20932W        W21796  15.417  21.765  23.042
20933W        W21797  15.248  18.480  24.464
20934W        W21798  17.739  19.579  24.553
20935W        W21799  17.233  19.880  23.256
20936W        W21800  17.219  19.704  22.194
20937W        W21801  16.495  20.821  24.208
20938W        W21802  16.372  19.048  23.368
20939W        W21803  16.838  21.301  24.395
20940W        W21804  17.749  20.024  23.065
20941W        W21805  16.774  18.595  22.779
20942W        W21806  15.335  21.300  22.775
20943W        W21807  14.775  18.792  23.107
20944W        W21808  17.310  19.453  23.617
20945W        W21809  14.951  21.175  23.692
20946W        W21810  16.161  21.499  22.366
20947W        W21811  17.588  19.475  21.871
20948W        W21812  14.745  21.214  24.160
20949W        W21813  15.455  20.991  24.622
20950W        W21814  15.815  20.325  23.306
20951W        W21815  15.582  18.739  24.152
20952W        W21816  18.092  18.379  23.817
20953W        W21817  15.276  20.264  21.701
20954W        W21818  15.052  18.990  22.058
20955W        W21819  15.157  21.154  23.229
20956W        W21820  15.915  20.848  23.330
20957W        W21821  17.603  21.575  24.868
20958W        W21822  16.550  19.404  22.570
20959W        W21823  17.793  21.839  23.515
20960W        W21824  17.333  19.645  24.967
20961W        W21825  18.125  21.004  23.160
20962W        W21826  16.805  20.416  24.586
20963W        W21827  15.504  20.498  24.455
20964W        W21828  16.887  19.683  22.893
20965W        W21829  16.807  20.136  23.109
20966W        W21830  15.076  19.528  24.322
20967W        W21831  15.065  19.480  25.148
20968W        W21832  14.929  18.458  23.532
20969W        W21833  16.652  18.833  23.802
20970W        W21834  16.382  18.832  25.075
20971W        W21835  16.755  18.967  22.402
20972W        W21836  18.039  21.463  25.129
20973W        W21837  16.728  18.466  24.980
20974W        W21838  17.802  20.899  25.301
20975W        W21839  17.334  19.052  24.743
20976W        W21840  17.149  18.829  23.063
20977W        W21841  17.449  20.118  25.347
20978W        W21842  15.275  21.566  23.528
20979W        W21843  16.179  19.075  22.444
20980W        W21844  15.561  18.612  25.061
20981W        W21845  17.556  19.164  22.832
20982W        W21846  17.921  19.561  22.825
20983W        W21847  15.667  21.804  25.154
20984W        W21848  15.547  18.251  22.456
20985W        W21849  17.926  18.737  23.487
20986W        W21850  18.131  21.105  22.029
20987W        W21851  14.874  20.290  23.657
20988W        W21852  16.919  18.827  21.874
20989W        W21853  18.063  21.233  23.659
20990W        W21854  17.994  18.403  24.684
20991W        W21855  16.514  19.845  25.134
20992W        W21856  16.492  20.857  22.737
20993W        W21857  16.897  20.358  25.476
20994W        W21858  16.746  18.333  23.696
20995W        W21859  15.099  19.366  23.830
20996W        W21860  14.910  20.383  24.568
20997W        W21861  16.704  21.490  23.365
20998W        W21862  17.804  19.138  24.199
20999W        W21863  16.559  21.625  24.685
21000W        W21864  17.872  20.292  22.153
21001W        W21865  16.293  20.160  23.202
21002W        W21866  18.433  18.311  24.913
21003W        W21867  16.313  20.506  24.583
21004W        W21868  16.452  19.358  23.779
21005W        W21869  17.404  19.689  22.804
21006W        W21870  17.626  19.448  22.396
21007W        W21871  17.645  21.248  22.902
21008W        W21872  17.276  20.866  23.665
21009W        W21873  17.107  20.107  22.657
21010W        W21874  16.639  20.210  23.598
21011W        W21875  17.604  19.919  23.625
21012W        W21876  15.109  18.991  24.203
21013W        W21877  17.597  20.077  24.841
21014W        W21878  18.073  21.629  24.028
21015W        W21879  15.974  21.288  23.570
21016W        W21880  17.091  21.702  24.686
21017W        W21881  16.982  18.957  24.320
21018W        W21882  16.220  21.974  24.430
21019W        W21883  17.813  18.724  22.943
21020W        W21884  17.571  20.073  24.143
21021W        W21885  14.647  19.209  24.419
21022W        W21886  17.492  19.027  23.379
21023W        W21887  17.718  19.299  24.997
21024W        W21888  16.804  20.974  23.449
21025W        W21889  16.115  21.548  23.150
21026W        W21890  15.118  18.532  22.329
21027W        W21891  16.284  18.379  23.963
21028W        W21892  15.132  21.755  22.100
21029W        W21893  15.993  20.115  22.759
21030W        W21894  16.247  20.756  25.020
21031W        W21895  16.299  18.750  22.932
21032W        W21896  17.495  18.513  23.288
21033W        W21897  17.265  21.857  23.667
21034W        W21898  16.737  21.580  23.917
21035W        W21899  16.050  20.536  24.118
21036W        W21900  17.764  21.304  24.320
21037W        W21901  15.401  18.607  22.798
21038W        W21902  16.052  21.050  24.026
21039W        W21903  15.516  18.907  21.820
21040W        W21904  16.293  19.540  24.358
21041W        W21905  17.109  18.498  24.065
21042W        W21906  14.666  20.308  24.123
21043W        W21907  16.293  20.001  22.313
21044W        W21908  15.576  18.414  21.972
21045W        W21909  16.529  19.521  23.236
21046W        W21910  17.058  18.539  24.597
21047W        W21911  15.799  20.523  24.890
21048W        W21912  16.607  20.370  25.052
21049W        W21913  17.132  20.333  25.005
21050W        W21914  16.473  18.480  25.435
21051W        W21915  15.651  19.113  23.794
21052W        W21916  15.110  19.110  23.373
21053W        W21917  14.926  21.628  23.123
21054W        W21918  16.377  21.259  25.002
21055W        W21919  15.533  20.384  22.892
21056W        W21920  17.144  20.144  23.700
21057W        W21921  17.183  19.740  24.007
21058W        W21922  16.505  20.309  24.108
21059W        W21923  17.029  20.654  21.946
21060W        W21924  16.709  18.692  23.289
21061W        W21925  18.099  19.075  22.702
21062W        W21926  14.746  21.571  24.926
21063W        W21927  15.073  20.820  24.295
21064W        W21928  14.606  21.896  22.740
21065W        W21929  16.499  19.089  24.225
21066W        W21930  15.711  21.207  22.427
21067W        W21931  17.893  21.357  22.415
21068W        W21932  16.764  19.831  22.414
21069W        W21933  16.190  19.278  22.938
21070W        W21934  16.430  19.008  21.986
21071W        W21935  16.856  20.818  25.197
21072W        W21936  17.232  18.825  22.558
21073W        W21937  14.719  18.244  22.204
21074W        W21938  15.934  20.831  24.501
21075W        W21939  15.717  20.603  23.735
21076W        W21940  15.684  21.075  21.918
21077W        W21941  14.734  21.296  22.785
21078W        W21942  15.300  19.926  25.276
21079W        W21943  15.994  18.610  25.323
21080W        W21944  16.458  18.667  24.569
21081W        W21945  15.921  18.412  23.083
21082W        W21946  16.887  18.485  22.283
21083W        W21947  14.944  18.516  24.061
21084W        W21948  14.680  19.393  23.488
21085W        W21949  17.588  18.549  23.842
21086W        W21950  15.010  18.944  22.614
21087W        W21951  17.461  18.781  24.331
21088W        W21952  17.951  19.765  22.132
21089W        W21953  15.274  18.786  23.741
21090W        W21954  16.332  19.182  24.716
21091W        W21955  14.617  18.743  22.224
21092W        W21956  15.300  20.391  24.916
21093W        W21957  16.639  19.797  24.045
21094W        W21958  16.554  21.804  22.220
21095W        W21959  14.742  20.123  21.820
21096W        W21960  15.492  20.857  25.111
21097W        W21961  15.039  19.943  24.829
21098W        W21962  15.925  20.198  24.493
21099W        W21963  17.524  18.534  24.783
21100W        W21964  18.128  20.106  24.812
21101W        W21965  18.059  20.020  22.624
21102W        W21966  16.941  20.589  22.851
21103W        W21967  17.431  21.739  21.889
21104W        W21968  16.662  19.907  25.658
21105W        W21969  15.052  20.811  25.364
21106W        W21970  18.291  18.601  25.335
21107W        W21971  17.690  19.591  24.008
21108W        W21972  16.123  21.602  25.316
21109W        W21973  16.019  18.258  22.190
21110W        W21974  17.734  20.780  22.230
21111W        W21975  15.430  19.136  25.066
21112W        W21976  15.890  21.130  24.900
21113W        W21977  17.856  18.924  24.664
21114W        W21978  17.500  21.704  22.411
21115W        W21979  17.374  20.525  24.024
21116W        W21980  15.493  18.892  24.624
21117W        W21981  16.129  19.702  25.437
21118W        W21982  15.636  20.891  22.890
21119W        W21983  17.356  20.344  23.029
21120W        W21984  15.078  19.179  24.690
21121W        W21985  16.357  21.095  23.226
21122W        W21986  18.045  19.653  23.524
21123W        W21987  16.220  18.344  24.946
21124W        W21988  17.310  21.152  24.103
21125W        W21989  17.613  21.461  23.822
21126W        W21990  16.555  21.307  21.969
21127W        W21991  14.665  21.070  25.141
21128W        W21992  15.529  19.282  24.282
21129W        W21993  15.445  18.489  23.337
21130W        W21994  16.924  19.307  23.956
21131W        W21995  16.238  20.535  22.353
21132W        W21996  17.891  20.449  23.970
21133W        W21997  15.150  21.259  25.091
21134W        W21998  17.718  21.821  22.903
21135W        W21999  15.876  18.889  23.326
21136W        W22000  15.383  20.212  23.625
21137W        W22001  15.714  21.834  24.373
21138W        W22002  17.774  21.917  25.225
21139W        W22003  16.992  20.172  24.185
21140W        W22004  14.924  19.612  21.929
21141W        W22005  18.001  21.493  23.193
21142W        W22006  17.706  18.944  22.363
21143W        W22007  15.712  18.273  24.657
21144W        W22008  17.635  21.136  23.414
21145W        W22009  17.630  19.551  23.246
21146W        W22010  16.005  19.378  23.490
21147W        W22011  16.117  19.667  24.858
21148W        W22012  17.150  20.795  24.788
21149W        W22013  15.814  19.279  24.732
21150W        W22014  15.765  21.746  23.476
21151W        W22015  15.154  21.779  25.185
21152W        W22016  15.363  21.433  21.746
21153W        W22017  17.686  20.728  23.097
21154W        W22018  15.393  19.570  24.743
21155W        W22019  18.026  19.255  22.052
21156W        W22020  16.086  20.594  22.920
21157W        W22021  16.874  19.943  24.766
21158W        W22022  16.832  19.492  24.440
21159W        W22023  15.349  19.985  24.424
21160W        W22024  17.638  21.902  24.101
21161W        W22025  17.174  18.706  25.092
21162W        W22026  15.084  18.733  24.938
21163W        W22027  15.467  19.709  23.990
21164W        W22028  15.879  19.268  21.941
21165W        W22029  14.575  21.161  24.648
21166W        W22030  16.131  19.950  24.084
21167W        W22031  15.973  18.768  22.077
21168W        W22032  15.501  19.933  23.199
21169W        W22033  14.685  21.669  24.426
21170W        W22034  17.579  19.976  22.428
21171W        W22035  17.734  18.817  25.155
21172W        W22036  17.225  20.951  23.145
21173W        W22037  14.736  19.868  25.236
21174W        W22038  17.848  18.472  22.479
21175W        W22039  17.409  20.811  22.665
21176W        W22040  16.409  19.822  22.826
21177W        W22041  17.357  18.636  22.091
21178W        W22042  17.332  19.342  24.312
21179W        W22043  15.044  19.808  23.461
21180W        W22044  15.418  20.683  23.323
21181W        W22045  17.175  19.347  23.119
21182W        W22046  16.140  18.944  23.823
21183W        W22047  18.043  20.854  24.408
21184W        W22048  17.946  18.641  24.235
21185W        W22049  14.652  21.594  23.538
21186W        W22050  15.133  20.757  22.899
21187W        W22051  15.142  18.519  25.391
21188W        W22052  16.082  21.071  25.407
21189W        W22053  18.027  20.199  23.484
21190W        W22054  17.340  20.415  22.304
21191W        W22055  16.783  21.893  24.315
21192W        W22056  17.338  20.638  25.389
21193W        W22057  16.200  18.213  22.678
21194W        W22058  16.869  19.164  23.468
21195W        W22059  14.681  20.743  23.842
21196W        W22060  15.904  18.622  22.589
21197W        W22061  15.800  20.078  25.349
21198W        W22062  16.718  19.107  22.953
21199W        W22063  17.019  20.780  24.309
21200W        W22064  15.054  21.307  24.578
21201W        W22065  15.630  21.320  25.289
21202W        W22066  15.517  18.838  22.327
21203W        W22067  17.091  19.332  22.584
21204W        W22068  16.899  21.282  24.933
21205W        W22069  15.807  19.884  23.634
21206W        W22070  15.203  21.752  24.355
21207W        W22071  17.951  21.575  21.907
21208W        W22072  14.839  20.375  25.141
21209W        W22073  16.876  20.576  23.861
21210W        W22074  15.103  20.284  23.188
21211W        W22075  15.793  21.317  24.397
21212W        W22076  16.253  18.551  23.477
21213W        W22077  14.434  20.505  22.517
21214W        W22078  16.320  19.508  22.094
21215W        W22079  14.584  20.333  23.237
21216W        W22080  15.971  18.767  24.771
21217W        W22081  17.868  18.516  21.963
21218W        W22082  17.913  20.314  25.232
21219W        W22083  16.651  21.663  25.199
21220W        W22084  18.144  20.652  24.879
21221W        W22085  17.625  21.445  25.419
21222W        W22086  15.400  21.916  23.898
21223W        W22087  18.116  20.451  23.039
21224W        W22088  16.855  19.707  23.582
21225W        W22089  16.479  18.267  23.109
21226W        W22090  15.652  21.318  23.180
21227W        W22091  15.990  19.047  24.311
21228W        W22092  15.795  18.564  23.721
21229W        W22093  14.700  21.499  22.269
21230W        W22094  16.540  20.600  23.201
21231W        W22095  15.501  21.492  24.781
21232W        W22096  14.788  18.943  23.764
21233W        W22097  16.394  20.716  23.700
21234W        W22098  14.719  18.518  22.679
21235W        W22099  17.283  19.835  24.494
21236W        W22100  17.271  19.147  22.140
21237W        W22101  17.734  20.939  23.942
21238W        W22102  16.434  21.223  23.729
21239W        W22103  15.809  21.605  22.742
21240W        W22104  17.001  18.311  21.819
21241W        W22105  14.938  21.648  23.938
21242W        W22106  16.826  19.452  25.487
21243W        W22107  15.004  19.028  25.393
21244W        W22108  14.803  19.301  22.982
21245W        W22109  16.051  19.593  22.533
21246W        W22110  16.994  19.901  25.264
21247W        W22111  15.671  20.185  24.049
21248W        W22112  17.021  18.302  23.197
21249W        W22113  16.294  21.699  23.611
21250W        W22114  17.312  21.246  24.604
21251W        W22115  17.139  21.360  23.630
21252W        W22116  17.026  20.518  23.373
21253W        W22117  16.385  18.602  22.383
21254W        W22118  18.096  18.351  23.163
21255W        W22119  15.881  19.791  22.031
21256W        W22120  17.946  19.172  23.190
21257W        W22121  16.709  20.316  22.211
21258W        W22122  17.602  20.597  24.920
21259W        W22123  17.581  21.215  21.987
21260W        W22124  15.936  19.101  25.198
21261W        W22125  15.795  19.708  24.427
21262W        W22126  17.779  21.084  24.809
21263W        W22127  16.816  18.970  24.821
21264W        W22128  14.701  19.547  24.809
21265W        W22129  16.419  20.004  24.536
21266W        W22130  14.893  20.730  23.374
21267W        W22131  14.973  19.883  23.959
21268W        W22132  17.313  20.368  24.523
21269W        W22133  17.201  21.653  25.185
21270W        W22134  16.841  19.465  24.966
21271W        W22135  17.422  21.587  23.254
21272W        W22136  16.293  21.215  24.492
21273W        W22137  15.700  21.501  23.935
21274W        W22138  17.535  20.819  24.426
21275W        W22139  16.458  20.686  25.489
21276W        W22140  15.199  20.722  23.789
21277W        W22141  17.533  20.425  23.517
21278W        W22142  17.201  21.643  24.156
21279W        W22143  15.265  21.286  24.103
21280W        W22144  16.404  19.331  25.215
21281W        W22145  16.494  21.460  22.820
21282W        W22146  15.943  20.570  25.404
21283W        W22147  16.065  21.153  22.804
21284W        W22148  15.347  19.394  21.710
21285W        W22149  14.700  21.917  28.822
21286W        W22150  15.085  20.742  28.665
21287W        W22151  17.731  20.557  26.225
21288W        W22152  17.928  21.532  28.214
21289W        W22153  15.628  21.574  25.727
21290W        W22154  15.823  19.652  26.669
21291W        W22155  15.334  19.428  26.811
21292W        W22156  16.340  20.268  26.354
21293W        W22157  16.063  21.562  28.217
21294W        W22158  14.931  18.999  28.456
21295W        W22159  15.396  18.317  28.248
21296W        W22160  17.252  18.711  27.298
21297W        W22161  16.965  19.590  25.984
21298W        W22162  17.389  18.911  28.811
21299W        W22163  14.996  18.644  28.073
21300W        W22164  14.886  21.445  28.930
21301W        W22165  16.199  20.510  25.911
21302W        W22166  14.835  19.467  27.526
21303W        W22167  15.724  19.553  28.788
21304W        W22168  18.053  19.296  27.360
21305W        W22169  17.794  20.290  27.974
21306W        W22170  16.243  19.562  27.032
21307W        W22171  16.769  21.069  27.609
21308W        W22172  15.208  20.392  27.831
21309W        W22173  14.495  19.921  27.521
21310W        W22174  15.751  19.930  28.395
21311W        W22175  18.025  19.669  28.701
21312W        W22176  15.393  21.189  27.198
21313W        W22177  16.687  20.903  28.173
21314W        W22178  16.031  19.304  27.478
21315W        W22179  16.019  20.316  27.240
21316W        W22180  16.754  21.215   0.072
21317W        W22181  16.203  20.347  28.935
21318W        W22182  16.249  20.092  28.496
21319W        W22183  14.748  19.191  28.886
21320W        W22184  17.288  21.021  28.756
21321W        W22185  15.061  18.474  26.666
21322W        W22186  15.537  20.827  27.770
21323W        W22187  18.014  20.697  27.082
21324W        W22188  17.366  19.087  27.622
21325W        W22189  17.646  19.233  25.511
21326W        W22190  18.312  19.730  27.954
21327W        W22191  16.131  21.614  27.662
21328W        W22192  17.901  21.077  26.210
21329W        W22193  15.043  21.893  26.182
21330W        W22194  15.428  21.791  26.548
21331W        W22195  15.461  18.552  27.800
21332W        W22196  18.010  19.424  28.241
21333W        W22197  17.208  19.982  26.836
21334W        W22198  17.165  20.026  25.779
21335W        W22199  16.430  20.734  27.773
21336W        W22200  16.259  19.044  27.059
21337W        W22201  16.920  21.352  28.019
21338W        W22202  17.692  20.105  26.651
21339W        W22203  16.773  18.897  26.372
21340W        W22204  15.159  21.397  26.302
21341W        W22205  14.790  18.896  26.718
21342W        W22206  17.236  19.628  27.243
21343W        W22207  14.894  21.185  27.272
21344W        W22208  16.095  21.393  25.814
21345W        W22209  17.346  19.632  25.499
21346W        W22210  14.729  21.306  27.917
21347W        W22211  15.426  20.816  28.261
21348W        W22212  15.629  20.328  26.772
21349W        W22213  15.977  18.558  27.766
21350W        W22214  18.142  18.443  27.399
21351W        W22215  15.431  20.435  25.415
21352W        W22216  15.036  19.149  25.905
21353W        W22217  14.992  21.209  26.771
21354W        W22218  15.988  20.665  26.858
21355W        W22219  17.532  21.469  28.591
21356W        W22220  16.568  19.363  26.280
21357W        W22221  17.876  21.709  27.074
21358W        W22222  17.575  19.625  28.452
21359W        W22223  18.161  20.975  26.658
21360W        W22224  16.754  20.354  28.244
21361W        W22225  14.450  19.892  26.636
21362W        W22226  15.682  20.391  28.058
21363W        W22227  16.903  19.634  26.535
21364W        W22228  16.702  20.079  26.691
21365W        W22229  15.254  19.463  27.813
21366W        W22230  15.228  19.328  28.761
21367W        W22231  15.053  18.258  27.129
21368W        W22232  16.878  18.885  27.589
21369W        W22233  16.418  18.716  28.672
21370W        W22234  16.709  19.068  25.878
21371W        W22235  17.994  21.275  28.698
21372W        W22236  16.868  18.429  28.628
21373W        W22237  17.764  20.826  28.807
21374W        W22238  17.573  19.111  28.342
21375W        W22239  17.111  18.861  26.792
21376W        W22240  17.608  19.913  28.938
21377W        W22241  15.150  21.662  26.987
21378W        W22242  16.201  19.072  26.083
21379W        W22243  15.534  18.395  28.738
21380W        W22244  17.664  19.249  26.472
21381W        W22245  17.896  19.676  26.289
21382W        W22246  15.708  21.681  28.805
21383W        W22247  15.649  18.326  26.065
21384W        W22248  18.032  18.856  27.104
21385W        W22249  18.017  21.213  25.689
21386W        W22250  14.798  20.366  27.408
21387W        W22251  16.797  18.930  25.375
21388W        W22252  18.125  21.058  27.449
21389W        W22253  18.084  18.485  27.911
21390W        W22254  16.630  19.422  28.672
21391W        W22255  16.308  20.776  26.395
21392W        W22256  17.115  20.102   0.106
21393W        W22257  16.840  18.384  27.490
21394W        W22258  15.352  19.240  27.305
21395W        W22259  14.922  20.481  28.266
21396W        W22260  16.667  21.715  27.129
21397W        W22261  17.835  19.172  27.833
21398W        W22262  16.575  21.572  28.301
21399W        W22263  17.685  20.363  25.728
21400W        W22264  16.104  20.120  26.785
21401W        W22265  18.202  18.412  28.408
21402W        W22266  16.211  20.403  28.100
21403W        W22267  16.553  19.299  27.389
21404W        W22268  17.406  19.704  26.457
21405W        W22269  17.493  19.533  25.988
21406W        W22270  17.615  21.336  26.555
21407W        W22271  17.140  20.779  27.349
21408W        W22272  17.058  20.073  26.294
21409W        W22273  16.478  20.082  27.153
21410W        W22274  17.574  20.018  27.284
21411W        W22275  15.089  18.969  27.655
21412W        W22276  17.632  20.131  28.452
21413W        W22277  18.062  21.554  27.523
21414W        W22278  15.894  21.190  27.100
21415W        W22279  17.080  21.674  28.431
21416W        W22280  17.070  19.047  28.047
21417W        W22281  16.373  21.937  28.004
21418W        W22282  17.956  18.831  26.596
21419W        W22283  17.769  19.790  27.979
21420W        W22284  14.829  19.223  28.009
21421W        W22285  17.580  19.148  27.144
21422W        W22286  17.969  19.146  28.662
21423W        W22287  16.726  20.945  27.097
21424W        W22288  15.979  21.519  26.687
21425W        W22289  15.265  18.655  25.880
21426W        W22290  16.334  18.276  27.495
21427W        W22291  15.155  21.773  25.705
21428W        W22292  15.885  20.023  26.316
21429W        W22293  16.403  20.614  28.516
21430W        W22294  16.351  18.749  26.631
21431W        W22295  17.590  18.656  26.915
21432W        W22296  17.480  21.911  27.355
21433W        W22297  16.659  21.592  27.652
21434W        W22298  15.965  20.568  27.677
21435W        W22299  17.802  21.197  27.828
21436W        W22300  15.437  18.688  26.395
21437W        W22301  15.976  21.087  27.615
21438W        W22302  15.524  18.904  25.501
21439W        W22303  16.279  19.540  27.850
21440W        W22304  17.197  18.560  27.829
21441W        W22305  14.674  20.220  27.914
21442W        W22306  16.182  19.973  25.895
21443W        W22307  15.600  18.406  25.558
21444W        W22308  16.163  19.237  26.595
21445W        W22309  17.247  18.667  28.355
21446W        W22310  15.888  20.467  28.529
21447W        W22311  16.696  20.281  28.836
21448W        W22312  17.138  20.217  28.589
21449W        W22313  16.552  18.406   0.044
21450W        W22314  15.878  18.836  27.331
21451W        W22315  15.308  18.917  26.866
21452W        W22316  14.811  21.677  26.592
21453W        W22317  16.324  21.142  28.445
21454W        W22318  15.413  20.237  26.293
21455W        W22319  17.005  20.086  27.298
21456W        W22320  17.288  19.880  27.718
21457W        W22321  16.356  20.230  27.638
21458W        W22322  16.910  20.808  25.728
21459W        W22323  16.702  18.760  27.110
21460W        W22324  18.198  19.192  26.322
21461W        W22325  14.802  21.573  28.419
21462W        W22326  15.007  20.860  27.944
21463W        W22327  14.416  21.733  26.249
21464W        W22328  16.563  19.120  27.879
21465W        W22329  15.912  20.953  26.037
21466W        W22330  17.909  21.612  26.180
21467W        W22331  16.602  19.877  26.167
21468W        W22332  15.664  19.169  26.500
21469W        W22333  16.303  18.966  25.573
21470W        W22334  16.920  20.699  28.579
21471W        W22335  17.468  18.763  26.412
21472W        W22336  14.790  18.409  25.801
21473W        W22337  15.975  20.867  28.128
21474W        W22338  15.675  20.719  27.278
21475W        W22339  15.612  20.907  25.615
21476W        W22340  14.626  21.257  26.373
21477W        W22341  15.314  19.869  28.726
21478W        W22342  16.042  18.318  28.884
21479W        W22343  16.721  18.696  28.173
21480W        W22344  15.934  18.336  26.701
21481W        W22345  17.127  18.766  26.004
21482W        W22346  15.012  18.454  27.603
21483W        W22347  14.901  19.252  27.062
21484W        W22348  17.733  18.739  27.510
21485W        W22349  15.146  19.128  26.415
21486W        W22350  17.640  18.729  28.020
21487W        W22351  17.787  19.845  25.705
21488W        W22352  15.391  18.706  27.333
21489W        W22353  16.392  19.108  28.348
21490W        W22354  14.614  18.899  25.774
21491W        W22355  15.382  20.320  28.465
21492W        W22356  16.629  19.788  27.550
21493W        W22357  16.492  21.706  25.690
21494W        W22358  14.696  20.144  25.663
21495W        W22359  15.575  20.816  28.740
21496W        W22360  15.031  19.964  28.241
21497W        W22361  15.979  19.976  27.921
21498W        W22362  17.602  18.277  28.293
21499W        W22363  18.129  20.042  28.302
21500W        W22364  18.062  20.163  26.193
21501W        W22365  16.803  20.520  26.434
21502W        W22366  17.502  21.882  25.697
21503W        W22367  16.747  19.705   0.093
21504W        W22368  15.331  20.395  28.976
21505W        W22369  18.227  18.728  28.850
21506W        W22370  17.640  19.542  27.529
21507W        W22371  16.188  21.487  28.819
21508W        W22372  16.066  18.292  25.728
21509W        W22373  17.609  20.866  25.797
21510W        W22374  15.412  18.869  28.590
21511W        W22375  15.807  21.217  28.507
21512W        W22376  18.088  18.906  28.213
21513W        W22377  17.404  21.782  26.213
21514W        W22378  17.363  20.385  27.582
21515W        W22379  15.715  18.736  28.185
21516W        W22380  16.222  19.741  28.869
21517W        W22381  15.413  20.929  26.329
21518W        W22382  17.324  20.448  26.537
21519W        W22383  15.321  19.063  28.127
21520W        W22384  16.308  21.085  26.822
21521W        W22385  18.292  19.686  27.115
21522W        W22386  16.394  18.233  28.503
21523W        W22387  17.278  21.116  27.716
21524W        W22388  17.577  21.398  27.398
21525W        W22389  16.418  20.983  25.910
21526W        W22390  14.718  20.957  28.946
21527W        W22391  15.609  19.057  27.708
21528W        W22392  15.498  18.436  26.928
21529W        W22393  16.974  19.425  27.680
21530W        W22394  15.745  20.286  25.843
21531W        W22395  17.877  20.412  27.495
21532W        W22396  15.330  21.269  28.715
21533W        W22397  17.741  21.877  26.595
21534W        W22398  15.845  18.818  26.819
21535W        W22399  15.285  20.307  27.174
21536W        W22400  15.748  21.853  27.911
21537W        W22401  17.891  21.821  28.667
21538W        W22402  16.869  20.187  27.777
21539W        W22403  14.909  19.606  25.643
21540W        W22404  18.094  21.494  26.645
21541W        W22405  17.610  19.025  25.995
21542W        W22406  15.889  18.278  28.388
21543W        W22407  17.873  21.197  27.020
21544W        W22408  17.671  19.653  26.926
21545W        W22409  15.787  19.284  27.026
21546W        W22410  16.174  19.588  28.360
21547W        W22411  17.196  20.989  28.231
21548W        W22412  15.783  19.206  28.397
21549W        W22413  15.652  21.672  27.043
21550W        W22414  15.197  21.768  28.681
21551W        W22415  15.223  21.255  25.623
21552W        W22416  17.682  20.811  26.681
21553W        W22417  15.371  19.551  28.319
21554W        W22418  17.988  19.367  25.871
21555W        W22419  15.852  20.537  26.346
21556W        W22420  16.723  19.891  28.518
21557W        W22421  16.730  19.504  28.160
21558W        W22422  15.459  19.925  27.960
21559W        W22423  17.702  21.773  27.799
21560W        W22424  17.370  18.384  28.775
21561W        W22425  15.034  18.484  28.562
21562W        W22426  15.618  19.646  27.509
21563W        W22427  15.905  19.281  25.685
21564W        W22428  14.741  21.030  28.390
21565W        W22429  16.097  19.832  27.439
21566W        W22430  15.892  18.756  25.816
21567W        W22431  15.311  19.931  26.739
21568W        W22432  14.761  21.839  27.976
21569W        W22433  17.553  20.069  26.133
21570W        W22434  17.771  18.677  28.555
21571W        W22435  17.375  21.075  27.006
21572W        W22436  14.882  19.702  28.967
21573W        W22437  18.027  18.676  26.115
21574W        W22438  17.386  20.941  26.267
21575W        W22439  16.334  19.728  26.561
21576W        W22440  17.387  18.789  25.548
21577W        W22441  17.396  19.442  27.992
21578W        W22442  15.174  19.729  27.205
21579W        W22443  15.419  20.812  26.839
21580W        W22444  17.250  19.359  26.793
21581W        W22445  16.362  18.811  27.517
21582W        W22446  18.087  20.748  27.897
21583W        W22447  18.237  18.900  27.646
21584W        W22448  14.654  21.625  27.088
21585W        W22449  14.882  20.810  26.464
21586W        W22450  15.170  18.278   0.070
21587W        W22451  16.258  21.132   0.231
21588W        W22452  18.038  20.166  27.075
21589W        W22453  17.241  20.491  26.003
21590W        W22454  16.901  21.908  28.006
21591W        W22455  17.498  20.409  28.923
21592W        W22456  16.124  18.195  26.239
21593W        W22457  17.019  19.174  27.203
21594W        W22458  14.641  20.852  27.580
21595W        W22459  15.944  18.695  26.320
21596W        W22460  15.763  20.084  28.894
21597W        W22461  16.677  19.211  26.789
21598W        W22462  17.010  20.677  27.846
21599W        W22463  15.178  21.278  28.207
21600W        W22464  15.757  21.209   0.043
21601W        W22465  15.542  19.078  26.010
21602W        W22466  17.174  19.221  26.286
21603W        W22467  16.851  21.220  28.558
21604W        W22468  15.697  19.925  27.092
21605W        W22469  15.259  21.708  27.892
21606W        W22470  17.998  21.728  25.679
21607W        W22471  14.920  20.204  28.697
21608W        W22472  16.702  20.511  27.385
21609W        W22473  15.126  20.415  26.682
21610W        W22474  15.667  21.278  27.992
21611W        W22475  16.227  18.528  27.075
21612W        W22476  14.652  20.384  26.154
21613W        W22477  16.401  19.478  25.804
21614W        W22478  14.852  20.077  26.969
21615W        W22479  16.217  18.634  28.211
21616W        W22480  17.915  18.817  25.631
21617W        W22481  18.046  20.193  28.772
21618W        W22482  16.689  21.658  28.810
21619W        W22483  17.931  20.564  28.379
21620W        W22484  17.636  21.259   0.055
21621W        W22485  15.332  21.910  27.404
21622W        W22486  18.073  20.452  26.636
21623W        W22487  16.767  19.662  27.040
21624W        W22488  16.424  18.188  26.694
21625W        W22489  15.487  21.315  26.710
21626W        W22490  16.060  19.058  27.946
21627W        W22491  15.826  18.323  27.333
21628W        W22492  14.772  21.506  25.945
21629W        W22493  16.474  20.522  26.864
21630W        W22494  15.536  21.631  28.330
21631W        W22495  14.902  20.024  26.434
21632W        W22496  14.904  18.752  27.194
21633W        W22497  16.252  20.782  27.283
21634W        W22498  14.882  18.708  26.229
21635W        W22499  17.143  19.830  28.226
21636W        W22500  17.185  19.202  25.745
21637W        W22501  17.644  20.871  27.424
21638W        W22502  16.382  21.282  27.332
21639W        W22503  15.705  21.425  26.234
21640W        W22504  16.991  18.436  25.484
21641W        W22505  14.904  21.638  27.526
21642W        W22506  17.041  19.270  28.960
21643W        W22507  15.070  18.794  28.969
21644W        W22508  14.834  19.527  26.628
21645W        W22509  16.021  19.541  26.170
21646W        W22510  17.158  19.734  28.765
21647W        W22511  15.628  20.189  27.554
21648W        W22512  17.048  18.350  27.005
21649W        W22513  16.152  21.707  27.140
21650W        W22514  17.429  21.427  28.101
21651W        W22515  17.043  21.369  27.293
21652W        W22516  16.989  20.465  26.942
21653W        W22517  16.398  18.611  25.967
21654W        W22518  18.236  18.429  26.852
21655W        W22519  15.719  19.760  25.761
21656W        W22520  18.037  19.304  26.834
21657W        W22521  16.701  20.344  25.952
21658W        W22522  17.434  20.615  28.458
21659W        W22523  17.550  21.363  25.927
21660W        W22524  15.912  18.763  28.650
21661W        W22525  15.771  19.497  27.977
21662W        W22526  17.714  21.045  28.327
21663W        W22527  16.868  18.948  28.596
21664W        W22528  14.808  19.524  28.465
21665W        W22529  16.490  19.953  28.055
21666W        W22530  14.896  20.730  27.006
21667W        W22531  15.032  19.937  27.655
21668W        W22532  17.279  20.300  28.085
21669W        W22533  17.169  21.500  28.939
21670W        W22534  17.134  19.350  28.450
21671W        W22535  17.393  21.602  26.945
21672W        W22536  16.376  21.240  27.927
21673W        W22537  15.645  21.505  27.527
21674W        W22538  17.551  20.736  27.936
21675W        W22539  16.555  20.752  28.985
21676W        W22540  15.158  20.758  27.440
21677W        W22541  17.518  20.486  27.064
21678W        W22542  17.212  21.634  27.699
21679W        W22543  15.219  21.240  27.682
21680W        W22544  16.145  19.227  28.776
21681W        W22545  16.233  21.289  26.302
21682W        W22546  16.083  20.878  28.814
21683W        W22547  15.866  21.030  26.548
21684W        W22548  15.385  19.391  25.556
21685W        W22549  14.662  25.584   3.397
21686W        W22550  15.050  24.440   2.899
21687W        W22551  17.889  24.039   0.761
21688W        W22552  17.969  25.259   2.723
21689W        W22553  15.982  25.217   0.390
21690W        W22554  15.756  23.306   1.073
21691W        W22555  15.456  23.210   1.509
21692W        W22556  16.257  23.910   0.730
21693W        W22557  16.076  25.180   2.924
21694W        W22558  14.596  22.654   2.901
21695W        W22559  15.099  21.902   2.753
21696W        W22560  17.155  22.302   1.766
21697W        W22561  16.866  22.899   0.460
21698W        W22562  17.273  22.728   3.224
21699W        W22563  14.716  22.229   2.531
21700W        W22564  14.790  25.072   3.521
21701W        W22565  16.191  24.297   0.369
21702W        W22566  14.683  23.049   1.986
21703W        W22567  15.769  23.164   3.090
21704W        W22568  17.979  22.892   1.700
21705W        W22569  17.920  24.117   2.630
21706W        W22570  16.333  23.420   1.616
21707W        W22571  16.854  24.713   1.949
21708W        W22572  15.187  23.933   2.203
21709W        W22573  14.477  23.528   1.994
21710W        W22574  15.774  23.663   2.915
21711W        W22575  17.827  23.445   3.171
21712W        W22576  15.547  24.626   1.732
21713W        W22577  16.588  24.628   2.737
21714W        W22578  16.028  23.137   1.941
21715W        W22579  16.179  23.916   1.630
21716W        W22580  16.836  24.782   3.435
21717W        W22581  16.352  23.939   3.464
21718W        W22582  16.306  23.814   2.950
21719W        W22583  14.642  22.994   3.301
21720W        W22584  17.328  24.684   3.280
21721W        W22585  15.164  22.155   1.049
21722W        W22586  15.551  24.308   2.145
21723W        W22587  18.184  24.389   1.661
21724W        W22588  17.608  22.533   1.821
21725W        W22589  17.810  22.680   0.077
21726W        W22590  18.211  23.447   2.404
21727W        W22591  16.102  25.165   2.030
21728W        W22592  18.073  24.533   0.769
21729W        W22593  15.169  25.537   0.693
21730W        W22594  15.494  25.417   1.116
21731W        W22595  15.303  22.196   2.371
21732W        W22596  17.770  23.232   2.568
21733W        W22597  17.239  23.558   1.248
21734W        W22598  17.238  23.283   0.346
21735W        W22599  16.437  24.534   2.212
21736W        W22600  16.465  22.923   1.627
21737W        W22601  16.847  24.950   2.453
21738W        W22602  17.818  23.680   1.136
21739W        W22603  16.734  22.413   0.951
21740W        W22604  15.205  25.034   0.830
21741W        W22605  14.778  22.454   1.214
21742W        W22606  17.489  23.036   1.741
21743W        W22607  15.045  24.769   1.754
21744W        W22608  16.235  24.948   0.767
21745W        W22609  17.563  23.135  28.940
21746W        W22610  14.771  24.807   2.242
21747W        W22611  15.473  24.539   2.623
21748W        W22612  15.565  23.734   1.301
21749W        W22613  15.759  22.375   2.157
21750W        W22614  18.234  21.973   1.698
21751W        W22615  15.324  23.764   0.244
21752W        W22616  15.044  22.877   0.404
21753W        W22617  14.968  24.821   1.247
21754W        W22618  15.916  24.113   1.193
21755W        W22619  17.552  25.070   2.978
21756W        W22620  16.473  22.845   0.798
21757W        W22621  17.816  25.386   1.572
21758W        W22622  17.401  23.313   2.930
21759W        W22623  18.252  24.670   1.235
21760W        W22624  16.823  24.061   2.724
21761W        W22625  14.684  23.518   1.139
21762W        W22626  15.546  24.023   2.584
21763W        W22627  16.897  23.222   0.907
21764W        W22628  16.667  23.630   1.142
21765W        W22629  15.021  23.039   2.389
21766W        W22630  15.012  23.030   2.904
21767W        W22631  14.975  22.089   1.550
21768W        W22632  16.754  22.382   2.122
21769W        W22633  16.354  22.508   3.128
21770W        W22634  17.059  22.354   0.541
21771W        W22635  18.047  25.041   3.219
21772W        W22636  16.736  22.090   3.128
21773W        W22637  17.836  24.536   3.350
21774W        W22638  17.368  22.563   2.737
21775W        W22639  17.148  22.499   1.295
21776W        W22640  17.419  23.673   3.559
21777W        W22641  15.285  25.261   1.578
21778W        W22642  15.950  22.905   0.784
21779W        W22643  15.313  22.259   3.079
21780W        W22644  17.692  22.808   0.838
21781W        W22645  17.975  23.259   0.849
21782W        W22646  15.679  25.346   3.241
21783W        W22647  15.770  21.952   0.709
21784W        W22648  18.027  22.407   1.539
21785W        W22649  18.204  24.850   0.313
21786W        W22650  14.828  23.879   1.817
21787W        W22651  16.968  22.438   0.045
21788W        W22652  18.204  24.850   2.003
21789W        W22653  17.972  22.040   2.374
21790W        W22654  16.594  23.379   3.065
21791W        W22655  16.296  24.420   0.862
21792W        W22656  16.995  23.995   3.615
21793W        W22657  16.677  21.971   1.825
21794W        W22658  15.150  22.925   1.831
21795W        W22659  15.042  23.939   2.714
21796W        W22660  16.841  25.117   1.594
21797W        W22661  17.691  22.807   2.247
21798W        W22662  16.606  25.216   2.839
21799W        W22663  17.892  23.969   0.260
21800W        W22664  16.136  23.647   1.195
21801W        W22665  18.015  22.088   2.896
21802W        W22666  16.366  24.190   2.586
21803W        W22667  16.688  22.906   2.078
21804W        W22668  17.424  23.244   0.848
21805W        W22669  17.726  23.106   0.423
21806W        W22670  17.744  24.718   1.121
21807W        W22671  17.631  24.439   1.701
21808W        W22672  17.133  23.656   0.711
21809W        W22673  16.690  23.807   1.653
21810W        W22674  17.727  23.549   1.656
21811W        W22675  14.923  22.571   2.198
21812W        W22676  17.668  23.706   2.767
21813W        W22677  18.032  25.288   2.193
21814W        W22678  16.065  24.431   1.570
21815W        W22679  17.149  25.341   2.739
21816W        W22680  16.874  22.705   2.507
21817W        W22681  16.247  25.508   2.560
21818W        W22682  17.927  22.397   1.032
21819W        W22683  17.798  23.740   2.265
21820W        W22684  14.525  22.815   2.413
21821W        W22685  17.622  22.691   1.336
21822W        W22686  17.715  22.903   2.960
21823W        W22687  16.823  24.611   1.426
21824W        W22688  16.035  25.214   1.178
21825W        W22689  15.078  22.373   0.502
21826W        W22690  16.251  22.149   2.136
21827W        W22691  15.451  25.195   0.383
21828W        W22692  15.779  23.755   0.826
21829W        W22693  16.495  24.278   3.088
21830W        W22694  16.287  22.615   1.247
21831W        W22695  17.560  22.171   1.420
21832W        W22696  17.291  25.421   1.686
21833W        W22697  16.609  25.176   2.055
21834W        W22698  16.052  24.153   2.051
21835W        W22699  17.850  24.862   2.386
21836W        W22700  15.641  22.334   1.028
21837W        W22701  15.964  24.666   2.020
21838W        W22702  15.541  22.549   0.062
21839W        W22703  16.327  23.165   2.347
21840W        W22704  17.118  21.986   2.153
21841W        W22705  14.684  23.888   2.334
21842W        W22706  16.241  23.571   0.258
21843W        W22707  15.630  22.057   0.227
21844W        W22708  16.388  23.184   1.168
21845W        W22709  17.031  22.212   2.602
21846W        W22710  15.940  24.167   2.907
21847W        W22711  16.770  23.846   3.182
21848W        W22712  17.286  23.866   3.097
21849W        W22713  16.389  22.169   3.514
21850W        W22714  15.648  22.807   1.813
21851W        W22715  15.258  22.541   1.412
21852W        W22716  14.976  25.335   1.162
21853W        W22717  16.406  24.852   3.173
21854W        W22718  15.173  24.207   0.511
21855W        W22719  17.174  23.651   1.795
21856W        W22720  17.119  23.196   2.051
21857W        W22721  16.526  23.987   2.132
21858W        W22722  17.007  24.236   0.104
21859W        W22723  16.704  22.430   1.537
21860W        W22724  18.227  22.722   0.726
21861W        W22725  14.800  25.228   3.020
21862W        W22726  15.021  24.375   2.388
21863W        W22727  14.618  25.351   0.787
21864W        W22728  16.355  22.635   2.368
21865W        W22729  15.887  24.718   0.443
21866W        W22730  17.894  25.119   0.641
21867W        W22731  16.636  23.551   0.605
21868W        W22732  15.590  22.832   1.158
21869W        W22733  16.590  22.781   0.042
21870W        W22734  16.999  24.312   3.195
21871W        W22735  17.441  22.345   0.909
21872W        W22736  14.711  22.021   0.325
21873W        W22737  15.934  24.412   2.459
21874W        W22738  15.679  24.092   1.673
21875W        W22739  15.601  24.348   0.247
21876W        W22740  14.717  24.818   0.762
21877W        W22741  15.291  23.472   2.975
21878W        W22742  15.833  22.303   3.086
21879W        W22743  16.531  22.282   2.691
21880W        W22744  15.949  21.957   1.238
21881W        W22745  16.651  21.999   0.607
21882W        W22746  14.908  22.073   2.072
21883W        W22747  14.948  22.956   1.339
21884W        W22748  17.765  22.049   1.892
21885W        W22749  15.159  22.678   0.917
21886W        W22750  17.519  22.296   2.285
21887W        W22751  17.963  23.473   0.142
21888W        W22752  15.307  22.376   1.882
21889W        W22753  16.497  22.915   2.785
21890W        W22754  14.629  22.525   0.250
21891W        W22755  15.399  24.003   3.088
21892W        W22756  16.657  23.434   2.021
21893W        W22757  16.492  25.353   0.359
21894W        W22758  14.800  23.891   0.222
21895W        W22759  15.606  24.497   3.117
21896W        W22760  14.863  23.469   2.611
21897W        W22761  16.023  23.839   2.502
21898W        W22762  17.537  22.025   2.724
21899W        W22763  18.173  23.733   2.877
21900W        W22764  18.179  23.643   0.571
21901W        W22765  16.763  24.030   0.801
21902W        W22766  17.578  25.447   0.151
21903W        W22767  16.688  23.572   3.627
21904W        W22768  15.188  24.390   3.397
21905W        W22769  18.199  22.518   3.402
21906W        W22770  17.851  23.256   2.061
21907W        W22771  16.168  25.287   3.446
21908W        W22772  16.166  22.078   0.402
21909W        W22773  17.842  24.471   0.317
21910W        W22774  15.459  22.763   3.084
21911W        W22775  16.047  24.671   2.869
21912W        W22776  17.865  22.505   2.627
21913W        W22777  17.288  25.586   0.592
21914W        W22778  17.433  24.094   2.083
21915W        W22779  15.588  22.513   2.664
21916W        W22780  16.119  23.497   3.301
21917W        W22781  15.437  24.583   0.803
21918W        W22782  17.422  23.982   0.985
21919W        W22783  15.079  22.560   2.705
21920W        W22784  16.336  24.762   1.261
21921W        W22785  18.197  23.328   1.466
21922W        W22786  16.239  21.996   3.035
21923W        W22787  17.340  24.631   2.089
21924W        W22788  17.625  25.073   1.953
21925W        W22789  16.685  24.455   0.484
21926W        W22790  14.714  24.600   3.262
21927W        W22791  15.398  22.735   2.251
21928W        W22792  15.482  22.072   1.450
21929W        W22793  17.205  22.675   2.129
21930W        W22794  15.847  23.903   0.329
21931W        W22795  17.883  24.006   1.833
21932W        W22796  15.173  24.890   3.178
21933W        W22797  17.722  25.550   1.049
21934W        W22798  15.826  22.464   1.487
21935W        W22799  15.331  23.708   1.758
21936W        W22800  15.832  25.549   2.239
21937W        W22801  17.760  25.470   3.251
21938W        W22802  16.961  23.771   2.273
21939W        W22803  14.919  23.425   0.436
21940W        W22804  18.033  25.151   1.152
21941W        W22805  17.812  22.399   0.524
21942W        W22806  15.625  21.996   2.738
21943W        W22807  17.907  24.860   1.581
21944W        W22808  17.713  23.197   1.289
21945W        W22809  15.978  23.012   1.448
21946W        W22810  16.162  23.326   2.803
21947W        W22811  17.101  24.489   2.703
21948W        W22812  15.998  22.771   2.846
21949W        W22813  15.927  24.934   1.576
21950W        W22814  15.162  25.418   3.378
21951W        W22815  15.271  24.768   0.130
21952W        W22816  17.850  24.226   1.258
21953W        W22817  15.492  23.055   2.653
21954W        W22818  18.235  23.126   0.388
21955W        W22819  15.823  24.261   0.711
21956W        W22820  16.993  23.584   2.779
21957W        W22821  16.822  23.222   2.472
21958W        W22822  15.363  23.535   2.473
21959W        W22823  17.554  25.362   2.390
21960W        W22824  17.227  22.207   3.089
21961W        W22825  14.789  22.202   3.040
21962W        W22826  15.494  23.265   2.036
21963W        W22827  15.785  22.942   0.284
21964W        W22828  14.638  24.765   2.762
21965W        W22829  16.176  23.616   2.072
21966W        W22830  16.106  22.545   0.157
21967W        W22831  15.207  23.413   1.095
21968W        W22832  14.865  25.381   2.527
21969W        W22833  17.651  23.608   0.565
21970W        W22834  17.711  22.419   3.139
21971W        W22835  17.335  24.425   1.273
21972W        W22836  14.805  23.455   3.145
21973W        W22837  17.967  21.892   0.552
21974W        W22838  17.545  24.427   0.749
21975W        W22839  16.167  23.384   0.746
21976W        W22840  17.458  22.289   0.145
21977W        W22841  17.296  23.012   2.519
21978W        W22842  14.962  23.417   1.577
21979W        W22843  15.344  24.417   1.321
21980W        W22844  17.232  23.039   1.286
21981W        W22845  16.137  22.627   1.898
21982W        W22846  18.250  24.493   2.533
21983W        W22847  18.073  22.465   2.078
21984W        W22848  14.763  25.225   1.611
21985W        W22849  14.970  24.374   0.966
21986W        W22850  14.876  22.230   3.568
21987W        W22851  16.304  24.796   3.675
21988W        W22852  18.188  23.863   1.456
21989W        W22853  17.392  24.039   0.430
21990W        W22854  16.749  25.496   2.425
21991W        W22855  17.449  24.203   3.479
21992W        W22856  16.225  21.734   0.803
21993W        W22857  17.007  22.819   1.686
21994W        W22858  14.711  24.363   1.955
21995W        W22859  16.129  22.393   0.806
21996W        W22860  15.849  23.966   3.364
21997W        W22861  16.767  22.843   1.225
21998W        W22862  16.941  24.296   2.252
21999W        W22863  15.112  24.921   2.655
22000W        W22864  15.889  24.885   3.327
22001W        W22865  15.563  22.578   0.585
22002W        W22866  17.158  22.772   0.856
22003W        W22867  16.989  24.908   2.964
22004W        W22868  15.828  23.532   1.683
22005W        W22869  15.413  25.264   2.404
22006W        W22870  18.089  25.336   0.194
22007W        W22871  14.830  24.050   3.182
22008W        W22872  17.097  24.290   1.739
22009W        W22873  15.409  24.079   0.957
22010W        W22874  15.801  24.929   2.425
22011W        W22875  16.260  22.219   1.606
22012W        W22876  14.649  24.222   0.605
22013W        W22877  16.288  23.049   0.359
22014W        W22878  15.059  23.909   1.336
22015W        W22879  16.034  22.295   2.599
22016W        W22880  17.952  22.145   0.076
22017W        W22881  17.809  23.967   3.197
22018W        W22882  16.672  25.254   3.371
22019W        W22883  18.223  24.260   3.020
22020W        W22884  17.622  25.008   3.506
22021W        W22885  15.402  25.578   1.966
22022W        W22886  18.313  24.125   1.033
22023W        W22887  16.839  23.298   1.525
22024W        W22888  16.476  22.025   1.181
22025W        W22889  15.487  24.914   1.267
22026W        W22890  15.887  22.846   2.344
22027W        W22891  15.853  22.008   1.798
22028W        W22892  14.920  25.166   0.425
22029W        W22893  16.455  24.105   1.243
22030W        W22894  15.600  24.969   2.890
22031W        W22895  14.991  23.820   0.814
22032W        W22896  14.794  22.569   1.707
22033W        W22897  16.545  24.310   1.739
22034W        W22898  14.721  22.141   0.805
22035W        W22899  17.362  23.502   2.403
22036W        W22900  17.369  22.744   0.375
22037W        W22901  17.937  24.414   2.129
22038W        W22902  16.394  24.813   1.762
22039W        W22903  15.719  25.050   0.810
22040W        W22904  17.046  21.946   0.171
22041W        W22905  15.035  25.217   2.050
22042W        W22906  16.783  23.006   3.429
22043W        W22907  14.995  22.628   3.243
22044W        W22908  14.852  23.116   0.850
22045W        W22909  15.425  23.086   0.708
22046W        W22910  17.054  23.432   3.291
22047W        W22911  15.681  23.785   2.122
22048W        W22912  16.987  21.993   1.383
22049W        W22913  16.353  25.321   1.595
22050W        W22914  17.353  24.909   2.530
22051W        W22915  17.275  24.827   1.628
22052W        W22916  16.985  24.031   1.289
22053W        W22917  16.542  22.472   0.446
22054W        W22918  18.154  21.983   1.198
22055W        W22919  15.742  23.415   0.452
22056W        W22920  18.091  22.874   1.189
22057W        W22921  16.575  23.974   0.301
22058W        W22922  17.513  24.313   2.972
22059W        W22923  17.346  24.582   0.272
22060W        W22924  15.906  22.701   3.372
22061W        W22925  15.846  23.364   2.401
22062W        W22926  17.877  24.672   2.857
22063W        W22927  16.856  22.560   2.977
22064W        W22928  14.517  23.161   2.836
22065W        W22929  16.513  23.635   2.518
22066W        W22930  14.825  24.371   1.454
22067W        W22931  14.995  23.463   2.095
22068W        W22932  17.308  24.008   2.582
22069W        W22933  17.190  25.260   3.294
22070W        W22934  16.974  23.050   2.935
22071W        W22935  17.489  25.139   1.278
22072W        W22936  16.313  24.981   2.473
22073W        W22937  15.603  25.098   1.952
22074W        W22938  17.569  24.441   2.486
22075W        W22939  16.612  24.355   3.608
22076W        W22940  15.192  24.242   1.787
22077W        W22941  17.466  23.974   1.511
22078W        W22942  17.134  25.130   2.078
22079W        W22943  15.307  24.771   2.197
22080W        W22944  16.276  23.014   3.236
22081W        W22945  16.562  25.203   1.121
22082W        W22946  16.102  24.423   3.358
22083W        W22947  15.872  24.628   1.095
22084W        W22948  15.341  23.239   0.165
22085W        W22949  14.639  25.722   7.143
22086W        W22950  15.094  24.630   6.566
22087W        W22951  17.790  24.058   4.294
22088W        W22952  17.974  25.359   6.420
22089W        W22953  15.920  25.091   3.858
22090W        W22954  16.075  23.404   4.915
22091W        W22955  15.445  23.171   5.448
22092W        W22956  16.690  23.819   4.471
22093W        W22957  16.160  25.232   6.810
22094W        W22958  14.597  22.889   6.728
22095W        W22959  15.321  21.860   6.590
22096W        W22960  17.173  22.409   5.291
22097W        W22961  16.748  22.966   3.958
22098W        W22962  17.355  22.711   6.968
22099W        W22963  14.673  22.492   6.393
22100W        W22964  14.834  25.239   7.266
22101W        W22965  16.382  24.436   4.061
22102W        W22966  14.704  22.989   5.709
22103W        W22967  15.825  23.123   6.838
22104W        W22968  17.852  22.795   5.578
22105W        W22969  17.997  24.043   6.232
22106W        W22970  16.320  23.517   5.356
22107W        W22971  16.772  24.780   5.708
22108W        W22972  15.192  23.929   5.898
22109W        W22973  14.430  23.417   5.620
22110W        W22974  15.860  23.616   6.632
22111W        W22975  17.987  23.529   7.001
22112W        W22976  15.563  24.827   5.386
22113W        W22977  16.621  24.587   6.321
22114W        W22978  15.741  22.959   5.814
22115W        W22979  16.090  23.974   5.362
22116W        W22980  16.917  24.814   7.134
22117W        W22981  16.567  24.082   7.198
22118W        W22982  16.342  23.729   6.526
22119W        W22983  14.518  22.631   7.177
22120W        W22984  17.352  24.775   6.838
22121W        W22985  14.986  22.104   4.713
22122W        W22986  15.706  24.650   5.854
22123W        W22987  17.939  24.500   5.279
22124W        W22988  17.343  22.749   5.648
22125W        W22989  17.685  22.720   3.549
22126W        W22990  18.154  23.538   6.234
22127W        W22991  16.370  25.164   5.827
22128W        W22992  17.932  24.749   4.263
22129W        W22993  14.848  25.393   4.445
22130W        W22994  15.421  25.414   4.749
22131W        W22995  15.172  22.111   6.074
22132W        W22996  17.727  23.241   6.296
22133W        W22997  17.387  23.670   5.018
22134W        W22998  17.119  23.298   3.803
22135W        W22999  16.524  24.353   5.838
22136W        W23000  16.479  22.900   5.133
22137W        W23001  16.808  25.105   6.129
22138W        W23002  17.687  23.609   4.577
22139W        W23003  16.813  22.380   4.483
22140W        W23004  15.152  24.990   4.580
22141W        W23005  14.634  22.511   4.763
22142W        W23006  17.323  23.254   5.347
22143W        W23007  15.067  24.794   5.558
22144W        W23008  16.282  24.916   4.206
22145W        W23009  17.467  23.161   3.430
22146W        W23010  14.873  24.992   6.004
22147W        W23011  15.568  24.736   6.340
22148W        W23012  15.858  23.893   4.895
22149W        W23013  15.530  22.400   5.809
22150W        W23014  18.112  22.058   5.562
22151W        W23015  15.121  23.710   3.442
22152W        W23016  14.858  22.746   3.723
22153W        W23017  15.199  24.779   5.046
22154W        W23018  16.141  24.320   4.970
22155W        W23019  17.534  25.236   6.642
22156W        W23020  16.408  22.710   4.253
22157W        W23021  17.845  25.378   5.121
22158W        W23022  17.583  23.302   6.785
22159W        W23023  18.273  24.714   4.954
22160W        W23024  16.816  24.105   6.400
22161W        W23025  14.578  23.548   4.791
22162W        W23026  15.575  24.216   6.146
22163W        W23027  16.878  23.308   4.340
22164W        W23028  16.879  23.754   4.945
22165W        W23029  15.181  23.053   5.924
22166W        W23030  15.033  23.205   6.809
22167W        W23031  14.796  22.029   5.202
22168W        W23032  16.721  22.607   5.511
22169W        W23033  16.466  22.450   6.878
22170W        W23034  16.736  22.442   3.959
22171W        W23035  18.034  25.081   6.865
22172W        W23036  16.966  22.079   6.774
22173W        W23037  17.828  24.589   6.962
22174W        W23038  17.395  22.522   6.487
22175W        W23039  17.202  22.576   4.783
22176W        W23040  17.513  23.709   7.089
22177W        W23041  15.245  25.230   5.337
22178W        W23042  15.925  22.681   3.892
22179W        W23043  15.650  22.223   6.800
22180W        W23044  17.579  22.765   4.509
22181W        W23045  17.885  23.158   4.395
22182W        W23046  15.768  25.549   6.940
22183W        W23047  15.365  21.800   4.177
22184W        W23048  17.962  22.443   5.213
22185W        W23049  18.068  24.813   3.743
22186W        W23050  14.813  23.917   5.534
22187W        W23051  16.848  22.486   3.467
22188W        W23052  18.100  25.010   5.423
22189W        W23053  18.085  22.008   6.123
22190W        W23054  16.721  23.220   6.632
22191W        W23055  16.706  24.590   4.453
22192W        W23056  17.061  23.915   7.201
22193W        W23057  16.756  22.089   5.409
22194W        W23058  15.124  22.762   5.509
22195W        W23059  15.078  24.160   6.341
22196W        W23060  16.864  25.140   4.967
22197W        W23061  17.632  22.739   6.077
22198W        W23062  16.628  25.350   6.608
22199W        W23063  17.809  23.930   3.763
22200W        W23064  16.370  23.838   4.926
22201W        W23065  18.112  21.961   6.633
22202W        W23066  16.330  24.135   6.239
22203W        W23067  16.441  23.082   5.618
22204W        W23068  17.368  23.220   4.406
22205W        W23069  17.563  23.061   3.962
22206W        W23070  17.536  24.977   4.535
22207W        W23071  17.390  24.532   5.384
22208W        W23072  17.194  23.703   4.524
22209W        W23073  16.615  23.948   5.368
22210W        W23074  17.587  23.666   5.522
22211W        W23075  14.959  22.585   5.976
22212W        W23076  17.722  23.746   6.574
22213W        W23077  18.062  25.419   5.789
22214W        W23078  16.038  24.829   5.170
22215W        W23079  17.099  25.424   6.428
22216W        W23080  17.013  22.648   6.138
22217W        W23081  16.418  25.535   6.177
22218W        W23082  17.974  22.315   4.695
22219W        W23083  17.659  23.699   6.053
22220W        W23084  14.614  22.994   6.214
22221W        W23085  17.538  22.762   5.157
22222W        W23086  17.757  22.850   6.626
22223W        W23087  16.899  24.656   5.157
22224W        W23088  16.153  25.152   4.773
22225W        W23089  15.030  22.203   4.065
22226W        W23090  16.305  22.187   5.727
22227W        W23091  15.051  25.339   3.905
22228W        W23092  16.182  23.711   4.461
22229W        W23093  16.436  24.276   6.721
22230W        W23094  16.345  22.457   4.716
22231W        W23095  17.551  22.235   4.995
22232W        W23096  17.211  25.544   5.337
22233W        W23097  16.829  25.287   5.627
22234W        W23098  16.016  24.236   5.847
22235W        W23099  17.743  25.070   6.064
22236W        W23100  15.679  22.042   4.515
22237W        W23101  16.187  24.714   5.676
22238W        W23102  15.423  22.619   3.581
22239W        W23103  16.197  22.967   6.046
22240W        W23104  17.122  22.284   5.778
22241W        W23105  14.686  23.991   6.048
22242W        W23106  16.473  23.913   3.988
22243W        W23107  15.369  22.111   3.599
22244W        W23108  16.570  23.373   4.760
22245W        W23109  17.106  22.157   6.284
22246W        W23110  15.932  24.244   6.554
22247W        W23111  16.744  23.803   6.811
22248W        W23112  17.232  23.937   6.705
22249W        W23113  16.541  22.087   7.253
22250W        W23114  15.627  22.671   5.388
22251W        W23115  15.021  22.473   5.100
22252W        W23116  14.902  25.250   4.954
22253W        W23117  16.463  24.804   6.840
22254W        W23118  15.840  24.217   4.496
22255W        W23119  17.079  23.749   5.427
22256W        W23120  17.201  23.561   5.883
22257W        W23121  16.341  23.853   5.794
22258W        W23122  17.114  24.492   3.735
22259W        W23123  16.756  22.467   5.005
22260W        W23124  18.048  22.660   4.317
22261W        W23125  14.864  25.446   6.779
22262W        W23126  15.192  24.590   6.042
22263W        W23127  14.328  25.428   4.582
22264W        W23128  16.522  22.575   5.982
22265W        W23129  15.890  24.604   4.105
22266W        W23130  17.622  25.094   4.031
22267W        W23131  16.977  23.729   4.049
22268W        W23132  16.246  22.969   4.672
22269W        W23133  16.387  22.679   3.642
22270W        W23134  16.910  24.339   6.903
22271W        W23135  17.503  22.258   4.466
22272W        W23136  14.568  21.962   3.902
22273W        W23137  16.111  24.602   6.180
22274W        W23138  15.846  24.408   5.409
22275W        W23139  15.669  24.535   3.634
22276W        W23140  14.592  24.969   4.625
22277W        W23141  15.447  23.514   6.904
22278W        W23142  16.074  22.152   7.067
22279W        W23143  16.621  22.279   6.403
22280W        W23144  15.970  22.132   4.940
22281W        W23145  17.197  22.241   4.046
22282W        W23146  14.668  22.136   5.981
22283W        W23147  14.696  22.863   5.184
22284W        W23148  17.615  22.292   5.556
22285W        W23149  14.838  22.650   4.260
22286W        W23150  17.580  22.202   6.071
22287W        W23151  17.853  23.388   3.687
22288W        W23152  15.097  22.254   5.575
22289W        W23153  16.443  22.765   6.463
22290W        W23154  14.465  22.465   3.919
22291W        W23155  15.464  24.050   6.689
22292W        W23156  16.707  23.504   5.732
22293W        W23157  16.479  25.269   3.876
22294W        W23158  14.593  23.730   3.537
22295W        W23159  15.582  24.549   6.815
22296W        W23160  15.001  23.361   6.286
22297W        W23161  15.935  23.808   6.144
22298W        W23162  17.582  22.053   6.597
22299W        W23163  18.224  23.832   6.651
22300W        W23164  17.993  23.597   4.138
22301W        W23165  17.062  24.201   4.575
22302W        W23166  17.466  25.474   3.684
22303W        W23167  16.785  23.489   7.306
22304W        W23168  15.165  24.584   7.096
22305W        W23169  18.282  22.420   7.135
22306W        W23170  17.653  23.226   5.790
22307W        W23171  16.175  25.483   7.266
22308W        W23172  15.889  21.870   4.054
22309W        W23173  17.607  24.585   3.841
22310W        W23174  15.486  22.717   6.707
22311W        W23175  15.987  24.794   6.627
22312W        W23176  17.912  22.412   6.404
22313W        W23177  17.260  25.458   4.172
22314W        W23178  17.349  24.095   5.711
22315W        W23179  15.605  22.265   6.300
22316W        W23180  16.383  23.462   6.975
22317W        W23181  15.512  24.626   4.478
22318W        W23182  17.551  24.100   4.750
22319W        W23183  15.044  22.851   6.441
22320W        W23184  16.467  24.738   4.884
22321W        W23185  17.848  23.253   5.320
22322W        W23186  16.414  21.959   6.751
22323W        W23187  17.284  24.820   5.801
22324W        W23188  17.619  25.201   5.573
22325W        W23189  16.742  24.794   3.959
22326W        W23190  14.699  24.775   6.970
22327W        W23191  15.472  22.739   6.192
22328W        W23192  15.401  22.132   5.162
22329W        W23193  16.951  23.062   5.661
22330W        W23194  16.030  24.170   3.811
22331W        W23195  17.846  24.203   5.757
22332W        W23196  15.205  25.053   6.850
22333W        W23197  17.728  25.504   4.585
22334W        W23198  16.006  22.674   5.041
22335W        W23199  15.486  24.054   5.220
22336W        W23200  15.992  25.545   5.899
22337W        W23201  17.843  25.559   6.905
22338W        W23202  16.859  23.959   5.890
22339W        W23203  14.747  23.274   3.708
22340W        W23204  18.001  25.089   4.732
22341W        W23205  17.611  22.551   4.035
22342W        W23206  15.856  21.876   6.480
22343W        W23207  17.661  24.901   5.129
22344W        W23208  17.598  23.196   4.873
22345W        W23209  15.984  23.101   5.349
22346W        W23210  16.221  23.224   6.536
22347W        W23211  17.183  24.453   6.491
22348W        W23212  15.915  22.811   6.440
22349W        W23213  15.717  25.319   5.185
22350W        W23214  15.278  25.503   7.110
22351W        W23215  15.456  25.045   3.600
22352W        W23216  17.815  24.583   4.745
22353W        W23217  15.441  23.187   6.491
22354W        W23218  18.050  22.895   3.854
22355W        W23219  16.356  24.209   4.516
22356W        W23220  16.804  23.601   6.271
22357W        W23221  16.710  23.084   6.120
22358W        W23222  15.446  23.699   6.315
22359W        W23223  17.643  25.588   6.018
22360W        W23224  17.393  22.205   7.094
22361W        W23225  15.154  22.356   6.542
22362W        W23226  15.479  23.461   5.873
22363W        W23227  15.865  23.147   3.609
22364W        W23228  14.739  25.011   6.514
22365W        W23229  15.983  23.449   5.740
22366W        W23230  15.874  22.231   3.610
22367W        W23231  15.256  23.659   5.454
22368W        W23232  14.851  25.544   6.282
22369W        W23233  17.486  23.593   4.070
22370W        W23234  17.819  22.418   6.911
22371W        W23235  17.314  24.595   4.855
22372W        W23236  15.051  23.715   6.643
22373W        W23237  17.971  22.159   4.194
22374W        W23238  17.470  24.474   4.355
22375W        W23239  16.380  23.260   4.243
22376W        W23240  17.352  22.327   3.561
22377W        W23241  17.252  23.095   6.081
22378W        W23242  14.828  23.379   5.296
22379W        W23243  15.648  24.467   4.949
22380W        W23244  17.085  23.278   4.833
22381W        W23245  16.134  22.667   5.584
22382W        W23246  18.034  24.548   6.119
22383W        W23247  18.049  22.456   5.897
22384W        W23248  14.748  25.212   5.455
22385W        W23249  14.860  24.550   4.744
22386W        W23250  15.200  22.144   7.014
22387W        W23251  16.176  24.969   7.267
22388W        W23252  18.134  23.994   5.399
22389W        W23253  17.357  24.097   3.991
22390W        W23254  16.857  25.677   5.968
22391W        W23255  17.412  24.272   7.042
22392W        W23256  16.199  22.017   4.470
22393W        W23257  17.015  22.882   5.166
22394W        W23258  14.831  24.381   5.743
22395W        W23259  15.948  22.474   4.387
22396W        W23260  16.127  23.934   6.966
22397W        W23261  16.767  22.879   4.662
22398W        W23262  17.017  24.432   6.015
22399W        W23263  15.208  25.146   6.340
22400W        W23264  15.722  25.005   7.033
22401W        W23265  15.577  22.286   4.042
22402W        W23266  17.124  22.751   4.261
22403W        W23267  16.904  24.911   6.615
22404W        W23268  15.755  23.577   5.299
22405W        W23269  15.544  25.488   6.146
22406W        W23270  17.962  25.302   3.716
22407W        W23271  14.947  24.183   6.840
22408W        W23272  16.931  24.315   5.524
22409W        W23273  15.236  24.203   4.782
22410W        W23274  15.887  25.083   6.124
22411W        W23275  16.332  22.344   5.244
22412W        W23276  14.507  24.328   4.439
22413W        W23277  16.361  23.195   3.712
22414W        W23278  14.977  23.822   5.047
22415W        W23279  16.103  22.327   6.526
22416W        W23280  17.849  22.248   3.689
22417W        W23281  17.891  24.054   6.985
22418W        W23282  16.615  25.263   7.115
22419W        W23283  18.171  24.373   6.599
22420W        W23284  17.608  25.094   7.139
22421W        W23285  15.530  25.531   5.635
22422W        W23286  18.048  24.168   4.923
22423W        W23287  16.785  23.338   5.249
22424W        W23288  16.519  21.995   4.911
22425W        W23289  15.647  24.961   4.846
22426W        W23290  15.994  22.488   6.041
22427W        W23291  15.856  22.196   5.454
22428W        W23292  14.478  25.167   4.152
22429W        W23293  16.677  24.250   4.918
22430W        W23294  15.651  25.195   6.575
22431W        W23295  14.827  23.913   4.519
22432W        W23296  14.659  22.483   5.529
22433W        W23297  16.455  24.454   5.340
22434W        W23298  14.575  22.214   4.354
22435W        W23299  17.292  23.513   6.401
22436W        W23300  17.185  22.779   3.741
22437W        W23301  17.775  24.718   5.701
22438W        W23302  16.510  24.991   5.332
22439W        W23303  15.809  25.077   4.371
22440W        W23304  16.867  22.008   3.648
22441W        W23305  15.063  25.438   5.810
22442W        W23306  16.888  22.980   7.071
22443W        W23307  15.025  22.679   6.954
22444W        W23308  14.646  23.040   4.697
22445W        W23309  16.076  23.633   3.792
22446W        W23310  17.103  23.453   6.894
22447W        W23311  15.669  23.909   5.691
22448W        W23312  17.069  22.069   4.908
22449W        W23313  16.210  25.389   5.239
22450W        W23314  17.297  24.928   6.296
22451W        W23315  17.190  25.026   5.348
22452W        W23316  17.156  24.156   5.095
22453W        W23317  16.234  22.275   3.999
22454W        W23318  18.238  22.033   5.042
22455W        W23319  15.593  23.529   3.395
22456W        W23320  17.956  22.815   4.842
22457W        W23321  16.857  24.235   4.096
22458W        W23322  17.653  24.263   6.565
22459W        W23323  17.172  25.027   3.763
22460W        W23324  15.959  22.628   6.931
22461W        W23325  15.838  23.299   6.210
22462W        W23326  17.758  24.780   6.494
22463W        W23327  16.910  22.621   6.657
22464W        W23328  14.610  23.392   6.609
22465W        W23329  16.342  23.451   6.098
22466W        W23330  14.993  24.326   5.237
22467W        W23331  14.909  23.488   5.805
22468W        W23332  17.288  24.011   6.209
22469W        W23333  17.112  25.259   6.948
22470W        W23334  17.210  23.024   6.583
22471W        W23335  17.373  25.281   4.920
22472W        W23336  16.344  25.032   6.346
22473W        W23337  15.898  25.131   5.614
22474W        W23338  17.530  24.467   6.096
22475W        W23339  16.500  24.571   7.312
22476W        W23340  15.358  24.348   5.619
22477W        W23341  17.635  24.095   5.263
22478W        W23342  17.239  25.316   5.923
22479W        W23343  15.411  25.061   5.856
22480W        W23344  16.374  22.947   6.954
22481W        W23345  16.612  25.114   4.528
22482W        W23346  16.077  24.490   7.023
22483W        W23347  16.036  24.675   4.611
22484W        W23348  15.173  23.128   3.382
22485W        W23349  14.739  25.667  10.759
22486W        W23350  15.017  24.532  10.274
22487W        W23351  17.872  23.949   8.110
22488W        W23352  18.074  25.376   9.978
22489W        W23353  15.710  25.328   7.438
22490W        W23354  15.880  23.312   8.617
22491W        W23355  15.516  23.131   8.978
22492W        W23356  16.340  23.865   8.103
22493W        W23357  16.103  25.226  10.351
22494W        W23358  14.630  22.644  10.343
22495W        W23359  15.335  21.930  10.242
22496W        W23360  17.148  22.330   9.081
22497W        W23361  16.979  23.161   7.701
22498W        W23362  17.218  22.894  10.663
22499W        W23363  14.742  22.303   9.972
22500W        W23364  14.851  25.182  10.845
22501W        W23365  16.195  24.724   7.735
22502W        W23366  14.639  23.005   9.410
22503W        W23367  15.822  23.160  10.620
22504W        W23368  17.847  22.936   9.049
22505W        W23369  17.889  24.129   9.865
22506W        W23370  16.259  23.367   8.988
22507W        W23371  16.897  24.611   9.307
22508W        W23372  15.193  23.940   9.596
22509W        W23373  14.518  23.494   9.260
22510W        W23374  15.823  23.582  10.307
22511W        W23375  17.959  23.401  10.478
22512W        W23376  15.492  24.701   9.058
22513W        W23377  16.691  24.566  10.030
22514W        W23378  15.951  23.138   9.341
22515W        W23379  16.131  23.931   9.065
22516W        W23380  16.969  24.751  10.705
22517W        W23381  16.390  24.064  10.758
22518W        W23382  16.309  23.834  10.304
22519W        W23383  14.555  22.975  10.726
22520W        W23384  17.463  24.717  10.373
22521W        W23385  15.022  22.223   8.468
22522W        W23386  15.624  24.507   9.548
22523W        W23387  18.040  24.354   8.949
22524W        W23388  17.442  22.784   9.342
22525W        W23389  17.665  22.651   7.378
22526W        W23390  18.264  23.435   9.688
22527W        W23391  16.228  25.043   9.501
22528W        W23392  17.981  24.826   7.877
22529W        W23393  14.949  25.440   8.089
22530W        W23394  15.417  25.438   8.403
22531W        W23395  15.245  22.239   9.829
22532W        W23396  17.852  23.271   9.991
22533W        W23397  17.161  23.477   8.549
22534W        W23398  17.247  23.568   7.529
22535W        W23399  16.437  24.566   9.570
22536W        W23400  16.345  22.550   8.813
22537W        W23401  16.702  25.024   9.739
22538W        W23402  17.689  23.584   8.439
22539W        W23403  16.846  22.245   8.132
22540W        W23404  15.210  24.990   8.219
22541W        W23405  14.632  22.517   8.620
22542W        W23406  17.194  23.077   8.992
22543W        W23407  14.961  24.799   9.170
22544W        W23408  16.113  25.236   7.734
22545W        W23409  17.357  23.158   7.230
22546W        W23410  14.802  24.890   9.654
22547W        W23411  15.476  24.682  10.023
22548W        W23412  15.737  23.934   8.726
22549W        W23413  15.707  22.323   9.605
22550W        W23414  18.130  22.084   9.155
22551W        W23415  15.697  24.168   7.151
22552W        W23416  15.096  22.756   7.465
22553W        W23417  15.113  24.763   8.680
22554W        W23418  15.835  24.482   8.740
22555W        W23419  17.645  25.128  10.114
22556W        W23420  16.675  22.760   7.841
22557W        W23421  17.910  25.260   9.073
22558W        W23422  17.485  23.262  10.339
22559W        W23423  18.307  24.820   8.755
22560W        W23424  16.803  23.995  10.099
22561W        W23425  14.610  23.621   8.417
22562W        W23426  15.537  24.161   9.915
22563W        W23427  16.744  23.150   8.198
22564W        W23428  16.671  23.612   8.430
22565W        W23429  15.119  23.223   9.818
22566W        W23430  15.088  23.141  10.555
22567W        W23431  14.915  22.087   8.971
22568W        W23432  16.643  22.388   9.242
22569W        W23433  16.420  22.468  10.492
22570W        W23434  16.866  22.324   7.626
22571W        W23435  18.077  25.171  10.450
22572W        W23436  16.855  22.089  10.467
22573W        W23437  17.861  24.508  10.672
22574W        W23438  17.427  22.635  10.249
22575W        W23439  17.116  22.413   8.545
22576W        W23440  17.563  23.679  10.672
22577W        W23441  15.280  25.169   8.965
22578W        W23442  16.165  22.788   7.798
22579W        W23443  15.554  22.257  10.563
22580W        W23444  17.496  22.713   8.334
22581W        W23445  17.788  23.107   8.140
22582W        W23446  15.858  25.598  10.658
22583W        W23447  15.681  21.901   7.827
22584W        W23448  17.927  22.451   8.888
22585W        W23449  18.040  24.858   7.348
22586W        W23450  14.847  23.930   9.188
22587W        W23451  16.914  22.437   7.133
22588W        W23452  18.174  24.848   9.253
22589W        W23453  17.994  22.079   9.660
22590W        W23454  16.683  23.247  10.470
22591W        W23455  16.387  24.412   8.125
22592W        W23456  17.140  23.883  10.883
22593W        W23457  16.870  21.912   9.195
22594W        W23458  15.144  22.956   9.295
22595W        W23459  14.986  24.052  10.074
22596W        W23460  16.968  25.232   8.888
22597W        W23461  17.792  23.170   9.497
22598W        W23462  16.756  25.347  10.152
22599W        W23463  17.669  23.909   7.547
22600W        W23464  16.197  23.713   8.606
22601W        W23465  18.122  22.038  10.168
22602W        W23466  16.383  24.161   9.895
22603W        W23467  16.420  22.913   9.195
22604W        W23468  17.278  23.167   8.144
22605W        W23469  17.491  23.033   7.710
22606W        W23470  17.657  25.016   8.217
22607W        W23471  17.497  24.356   8.988
22608W        W23472  17.023  23.592   8.022
22609W        W23473  16.600  23.763   8.951
22610W        W23474  17.451  23.851   8.849
22611W        W23475  14.935  22.658   9.663
22612W        W23476  17.685  23.738  10.181
22613W        W23477  18.267  25.316   9.499
22614W        W23478  16.026  24.953   8.841
22615W        W23479  17.217  25.249   9.865
22616W        W23480  16.975  22.665   9.851
22617W        W23481  16.324  25.404   9.894
22618W        W23482  17.862  22.351   8.366
22619W        W23483  17.797  23.667   9.657
22620W        W23484  14.525  22.876   9.894
22621W        W23485  17.459  22.665   8.838
22622W        W23486  17.849  22.898  10.438
22623W        W23487  16.883  24.459   8.807
22624W        W23488  16.245  25.366   8.612
22625W        W23489  14.883  22.307   7.369
22626W        W23490  16.361  21.964   9.342
22627W        W23491  15.217  25.433   7.619
22628W        W23492  15.824  23.696   8.257
22629W        W23493  16.319  24.416  10.346
22630W        W23494  16.326  22.243   8.369
22631W        W23495  17.531  22.155   8.750
22632W        W23496  17.414  25.392   9.129
22633W        W23497  16.611  25.307   9.269
22634W        W23498  16.066  24.182   9.503
22635W        W23499  17.971  24.929   9.728
22636W        W23500  15.426  22.209   8.151
22637W        W23501  16.020  24.625   9.234
22638W        W23502  15.497  22.534   7.185
22639W        W23503  16.336  23.142   9.691
22640W        W23504  17.220  22.045   9.569
22641W        W23505  14.698  23.875   9.683
22642W        W23506  16.315  23.707   7.436
22643W        W23507  15.629  22.044   7.305
22644W        W23508  16.370  23.030   8.590
22645W        W23509  17.147  22.223  10.074
22646W        W23510  15.886  24.134  10.301
22647W        W23511  16.750  23.759  10.565
22648W        W23512  17.225  23.918  10.374
22649W        W23513  16.529  22.133  10.878
22650W        W23514  15.657  22.716   9.260
22651W        W23515  15.111  22.582   8.853
22652W        W23516  14.940  25.285   8.588
22653W        W23517  16.524  24.898  10.441
22654W        W23518  15.835  24.400   7.907
22655W        W23519  17.066  23.578   9.058
22656W        W23520  17.235  23.274   9.449
22657W        W23521  16.536  23.937   9.442
22658W        W23522  16.977  24.366   7.424
22659W        W23523  16.704  22.195   8.752
22660W        W23524  18.160  22.711   8.111
22661W        W23525  14.896  25.377  10.358
22662W        W23526  15.099  24.457   9.753
22663W        W23527  14.423  25.524   8.212
22664W        W23528  16.472  22.638   9.659
22665W        W23529  15.701  24.939   7.861
22666W        W23530  17.654  25.186   7.686
22667W        W23531  16.570  23.459   7.820
22668W        W23532  16.042  22.669   8.401
22669W        W23533  16.441  22.581   7.380
22670W        W23534  16.806  24.287  10.516
22671W        W23535  17.404  22.221   8.152
22672W        W23536  14.662  21.960   7.678
22673W        W23537  15.972  24.474   9.920
22674W        W23538  15.697  24.211   9.148
22675W        W23539  15.773  24.653   7.414
22676W        W23540  14.612  25.032   8.287
22677W        W23541  15.439  23.514  10.652
22678W        W23542  16.044  22.148  10.720
22679W        W23543  16.633  22.289  10.029
22680W        W23544  15.836  22.041   8.451
22681W        W23545  17.129  21.904   7.835
22682W        W23546  14.862  22.127   9.505
22683W        W23547  14.716  22.954   8.912
22684W        W23548  17.634  22.248   9.279
22685W        W23549  14.967  22.360   7.882
22686W        W23550  17.452  22.460   9.734
22687W        W23551  17.752  23.403   7.463
22688W        W23552  15.243  22.428   9.324
22689W        W23553  16.529  22.860  10.126
22690W        W23554  14.492  22.456   7.683
22691W        W23555  15.412  23.942  10.368
22692W        W23556  16.651  23.399   9.340
22693W        W23557  16.540  25.519   7.642
22694W        W23558  14.736  23.615   7.047
22695W        W23559  15.505  24.460  10.475
22696W        W23560  15.072  23.554  10.236
22697W        W23561  15.988  23.828   9.893
22698W        W23562  17.620  22.039  10.031
22699W        W23563  18.183  23.727  10.117
22700W        W23564  18.055  23.489   7.912
22701W        W23565  16.828  24.049   8.163
22702W        W23566  17.498  25.554   7.305
22703W        W23567  16.723  23.453  10.979
22704W        W23568  15.138  24.546  10.828
22705W        W23569  18.225  22.536  10.736
22706W        W23570  17.594  23.414   9.076
22707W        W23571  16.316  25.381  10.793
22708W        W23572  16.112  21.978   7.551
22709W        W23573  17.410  24.677   7.357
22710W        W23574  15.445  22.771  10.500
22711W        W23575  15.902  24.754  10.348
22712W        W23576  17.894  22.517   9.961
22713W        W23577  17.282  25.559   7.780
22714W        W23578  17.372  23.790   9.396
22715W        W23579  15.614  22.485  10.101
22716W        W23580  16.272  23.478  10.692
22717W        W23581  15.504  24.508   8.326
22718W        W23582  17.338  23.921   8.290
22719W        W23583  15.072  22.830  10.133
22720W        W23584  16.342  24.591   8.647
22721W        W23585  18.004  23.318   8.747
22722W        W23586  16.368  21.966  10.372
22723W        W23587  17.364  24.339   9.476
22724W        W23588  17.546  24.869   9.426
22725W        W23589  16.611  25.011   7.566
22726W        W23590  14.700  24.742  10.644
22727W        W23591  15.438  22.815   9.730
22728W        W23592  15.414  22.116   8.870
22729W        W23593  16.904  22.865   9.379
22730W        W23594  16.132  24.232   7.473
22731W        W23595  17.794  24.006   9.249
22732W        W23596  15.208  24.964  10.511
22733W        W23597  17.594  25.547   8.251
22734W        W23598  15.838  22.406   8.843
22735W        W23599  15.337  23.838   9.090
22736W        W23600  15.922  25.480   9.583
22737W        W23601  17.729  25.548  10.416
22738W        W23602  16.953  23.710   9.659
22739W        W23603  14.734  23.090   7.211
22740W        W23604  18.023  25.195   8.560
22741W        W23605  17.712  22.597   7.891
22742W        W23606  15.865  22.020  10.221
22743W        W23607  17.782  24.795   8.914
22744W        W23608  17.538  23.136   8.623
22745W        W23609  15.984  22.897   8.900
22746W        W23610  16.249  23.309  10.195
22747W        W23611  17.157  24.385  10.142
22748W        W23612  15.931  22.898  10.196
22749W        W23613  15.735  25.375   8.810
22750W        W23614  15.327  25.492  10.644
22751W        W23615  15.321  25.001   7.360
22752W        W23616  17.959  24.641   8.439
22753W        W23617  15.481  23.190  10.198
22754W        W23618  18.002  22.975   7.651
22755W        W23619  15.999  24.180   8.363
22756W        W23620  16.964  23.526  10.158
22757W        W23621  16.838  23.196   9.779
22758W        W23622  15.470  23.638   9.921
22759W        W23623  17.727  25.348   9.547
22760W        W23624  17.352  22.220  10.589
22761W        W23625  15.092  22.377  10.361
22762W        W23626  15.496  23.333   9.472
22763W        W23627  15.999  22.965   7.316
22764W        W23628  14.682  24.924  10.161
22765W        W23629  16.153  23.591   9.462
22766W        W23630  15.934  22.455   7.465
22767W        W23631  15.394  23.552   8.669
22768W        W23632  14.872  25.493   9.860
22769W        W23633  17.545  23.561   7.941
22770W        W23634  17.841  22.373  10.442
22771W        W23635  17.446  24.647   8.542
22772W        W23636  14.781  23.546  10.673
22773W        W23637  17.849  22.103   7.893
22774W        W23638  17.643  24.429   8.083
22775W        W23639  16.245  23.361   8.216
22776W        W23640  17.389  22.294   7.622
22777W        W23641  17.440  22.968   9.843
22778W        W23642  14.889  23.465   8.887
22779W        W23643  15.345  24.286   8.775
22780W        W23644  17.069  22.931   8.524
22781W        W23645  16.124  22.467   9.285
22782W        W23646  18.247  24.508   9.818
22783W        W23647  18.027  22.564   9.427
22784W        W23648  14.681  25.231   9.033
22785W        W23649  15.001  24.360   8.383
22786W        W23650  15.061  22.174  10.835
22787W        W23651  16.124  24.901  10.795
22788W        W23652  17.968  23.829   8.812
22789W        W23653  17.237  24.026   7.793
22790W        W23654  16.823  25.540   9.670
22791W        W23655  17.302  24.342  10.679
22792W        W23656  16.159  21.855   8.064
22793W        W23657  16.822  22.711   8.892
22794W        W23658  14.704  24.382   9.399
22795W        W23659  15.914  22.330   7.995
22796W        W23660  15.914  23.847  10.737
22797W        W23661  16.654  22.649   8.384
22798W        W23662  16.892  24.248   9.672
22799W        W23663  15.140  25.071  10.001
22800W        W23664  15.678  25.110  10.703
22801W        W23665  15.441  22.358   7.662
22802W        W23666  17.158  22.657   7.969
22803W        W23667  17.015  24.915  10.219
22804W        W23668  15.781  23.555   9.071
22805W        W23669  15.449  25.365   9.719
22806W        W23670  17.997  25.362   7.350
22807W        W23671  14.949  24.066  10.602
22808W        W23672  16.983  24.087   9.181
22809W        W23673  15.392  23.994   8.350
22810W        W23674  15.806  24.976   9.777
22811W        W23675  16.214  22.051   8.845
22812W        W23676  14.598  24.554   8.099
22813W        W23677  16.501  23.088   7.450
22814W        W23678  14.975  23.922   8.670
22815W        W23679  16.139  22.439  10.056
22816W        W23680  17.881  22.184   7.393
22817W        W23681  18.015  23.905  10.600
22818W        W23682  16.805  25.263  10.667
22819W        W23683  18.178  24.274  10.283
22820W        W23684  17.612  25.081  10.681
22821W        W23685  15.491  25.554   9.236
22822W        W23686  18.207  24.164   8.500
22823W        W23687  16.748  23.256   8.823
22824W        W23688  16.624  21.828   8.347
22825W        W23689  15.583  24.943   8.587
22826W        W23690  15.960  22.771   9.697
22827W        W23691  15.848  22.014   9.208
22828W        W23692  14.457  25.185   7.817
22829W        W23693  16.500  24.115   8.573
22830W        W23694  15.597  25.178  10.206
22831W        W23695  14.678  24.029   8.108
22832W        W23696  14.722  22.526   9.195
22833W        W23697  16.472  24.318   9.098
22834W        W23698  14.558  22.194   8.178
22835W        W23699  17.376  23.479   9.878
22836W        W23700  17.149  22.736   7.461
22837W        W23701  17.881  24.468   9.446
22838W        W23702  16.483  24.841   9.090
22839W        W23703  15.877  25.228   8.259
22840W        W23704  17.014  21.934   7.321
22841W        W23705  15.035  25.311   9.402
22842W        W23706  16.755  22.932  10.872
22843W        W23707  15.024  22.705  10.814
22844W        W23708  14.691  23.098   8.423
22845W        W23709  16.091  23.311   7.698
22846W        W23710  17.127  23.407  10.663
22847W        W23711  15.682  23.831   9.489
22848W        W23712  17.094  21.869   8.694
22849W        W23713  16.131  25.377   9.127
22850W        W23714  17.131  24.731   9.749
22851W        W23715  17.262  24.823   8.999
22852W        W23716  16.985  23.959   8.669
22853W        W23717  16.399  22.310   7.843
22854W        W23718  18.169  22.004   8.613
22855W        W23719  15.909  23.493   7.181
22856W        W23720  17.939  22.834   8.555
22857W        W23721  16.765  23.899   7.645
22858W        W23722  17.642  24.232  10.300
22859W        W23723  17.179  25.139   7.452
22860W        W23724  15.911  22.630  10.653
22861W        W23725  15.864  23.302   9.840
22862W        W23726  17.954  24.724  10.210
22863W        W23727  16.909  22.587  10.372
22864W        W23728  14.688  23.192  10.256
22865W        W23729  16.493  23.621   9.863
22866W        W23730  14.847  24.364   8.901
22867W        W23731  15.012  23.486   9.394
22868W        W23732  17.361  24.002   9.871
22869W        W23733  17.244  25.353  10.407
22870W        W23734  17.063  23.031  10.198
22871W        W23735  17.508  25.181   8.680
22872W        W23736  16.275  24.879   9.994
22873W        W23737  15.731  25.092   9.275
22874W        W23738  17.599  24.565   9.882
22875W        W23739  16.488  24.553  10.834
22876W        W23740  15.206  24.332   9.269
22877W        W23741  17.703  24.189   8.546
22878W        W23742  17.074  25.120   9.392
22879W        W23743  15.315  24.899   9.535
22880W        W23744  16.293  22.961  10.599
22881W        W23745  16.356  25.039   8.152
22882W        W23746  15.988  24.391  10.736
22883W        W23747  15.975  24.720   8.293
22884W        W23748  15.404  23.033   7.120
22885W        W23749  14.798  25.690  14.176
22886W        W23750  15.117  24.527  13.836
22887W        W23751  17.796  24.003  11.512
22888W        W23752  18.175  25.322  13.604
22889W        W23753  15.637  25.438  11.111
22890W        W23754  15.825  23.387  11.995
22891W        W23755  15.244  23.042  12.390
22892W        W23756  16.451  23.933  11.671
22893W        W23757  16.222  25.185  13.828
22894W        W23758  14.547  22.577  13.953
22895W        W23759  15.251  21.833  13.799
22896W        W23760  17.207  22.303  12.663
22897W        W23761  16.893  23.126  11.358
22898W        W23762  14.732  22.319  13.504
22899W        W23763  14.939  25.250  14.433
22900W        W23764  16.098  24.660  11.260
22901W        W23765  14.572  23.114  13.024
22902W        W23766  15.760  23.136  14.026
22903W        W23767  17.923  22.863  12.706
22904W        W23768  17.813  24.054  13.459
22905W        W23769  16.152  23.306  12.397
22906W        W23770  16.849  24.822  12.794
22907W        W23771  15.105  23.995  13.085
22908W        W23772  14.363  23.627  12.973
22909W        W23773  15.677  23.652  13.637
22910W        W23774  17.835  23.354  14.021
22911W        W23775  15.404  24.844  12.529
22912W        W23776  16.610  24.589  13.546
22913W        W23777  16.018  23.037  12.825
22914W        W23778  15.945  23.967  12.545
22915W        W23779  16.921  24.734  14.258
22916W        W23780  16.358  23.911  14.225
22917W        W23781  16.201  23.769  13.738
22918W        W23782  14.615  22.869  14.405
22919W        W23783  17.353  24.868  14.004
22920W        W23784  15.056  22.145  12.114
22921W        W23785  15.527  24.597  13.049
22922W        W23786  18.063  24.335  12.473
22923W        W23787  17.545  22.565  12.958
22924W        W23788  17.613  22.633  10.826
22925W        W23789  18.115  23.294  13.410
22926W        W23790  16.070  25.280  13.000
22927W        W23791  17.936  24.856  11.447
22928W        W23792  14.964  25.695  11.576
22929W        W23793  15.400  25.581  11.946
22930W        W23794  15.187  22.469  13.270
22931W        W23795  17.724  22.944  13.711
22932W        W23796  17.217  23.603  12.097
22933W        W23797  17.226  23.453  11.175
22934W        W23798  16.480  24.555  13.043
22935W        W23799  16.294  22.783  12.467
22936W        W23800  16.883  24.943  13.276
22937W        W23801  17.742  23.683  12.098
22938W        W23802  16.708  22.345  11.793
22939W        W23803  15.298  25.295  11.511
22940W        W23804  14.773  22.601  12.132
22941W        W23805  17.116  23.258  12.572
22942W        W23806  14.877  24.864  12.529
22943W        W23807  16.106  25.213  11.229
22944W        W23808  17.610  23.189  10.845
22945W        W23809  14.684  25.138  13.164
22946W        W23810  15.543  24.648  13.569
22947W        W23811  16.095  23.876  12.057
22948W        W23812  15.729  22.357  13.179
22949W        W23813  18.147  22.052  12.580
22950W        W23814  15.500  24.138  10.863
22951W        W23815  15.196  22.803  11.328
22952W        W23816  15.132  24.857  12.082
22953W        W23817  16.040  24.391  12.154
22954W        W23818  17.657  25.410  13.511
22955W        W23819  16.481  22.946  11.597
22956W        W23820  17.805  25.609  12.463
22957W        W23821  17.388  23.099  14.082
22958W        W23822  18.185  24.836  12.346
22959W        W23823  16.825  24.130  13.461
22960W        W23824  14.481  23.647  12.091
22961W        W23825  15.511  24.152  13.341
22962W        W23826  16.799  23.244  11.864
22963W        W23827  16.735  23.738  12.048
22964W        W23828  15.026  22.978  13.277
22965W        W23829  15.048  23.044  14.085
22966W        W23830  15.002  21.914  12.571
22967W        W23831  16.688  22.402  12.850
22968W        W23832  16.312  22.421  14.017
22969W        W23833  16.738  22.628  11.293
22970W        W23834  18.174  25.155  14.131
22971W        W23835  16.723  22.082  14.034
22972W        W23836  17.801  24.650  14.185
22973W        W23837  17.242  22.641  13.916
22974W        W23838  17.308  22.463  12.164
22975W        W23839  17.462  23.651  14.199
22976W        W23840  15.159  25.293  12.376
22977W        W23841  16.065  22.660  11.559
22978W        W23842  15.341  22.177  14.146
22979W        W23843  17.521  22.754  11.779
22980W        W23844  17.828  23.192  11.854
22981W        W23845  15.734  25.526  14.415
22982W        W23846  15.513  21.946  11.514
22983W        W23847  17.787  22.416  12.529
22984W        W23848  18.043  24.922  10.938
22985W        W23849  14.826  23.746  12.749
22986W        W23850  16.948  22.445  10.861
22987W        W23851  17.971  24.903  12.823
22988W        W23852  17.915  22.004  13.357
22989W        W23853  16.592  23.348  13.760
22990W        W23854  16.460  24.480  11.733
22991W        W23855  17.014  23.904  14.237
22992W        W23856  16.800  21.983  12.570
22993W        W23857  15.172  22.771  12.825
22994W        W23858  14.761  24.113  13.454
22995W        W23859  16.718  25.225  12.463
22996W        W23860  17.787  22.949  13.197
22997W        W23861  16.635  25.339  13.534
22998W        W23862  17.653  24.117  10.979
22999W        W23863  16.332  23.436  11.935
23000W        W23864  17.998  22.047  13.888
23001W        W23865  16.322  24.183  13.368
23002W        W23866  16.497  22.872  12.978
23003W        W23867  17.278  23.187  11.740
23004W        W23868  17.638  23.129  11.365
23005W        W23869  17.581  25.092  11.747
23006W        W23870  17.208  24.522  12.577
23007W        W23871  17.016  23.628  11.619
23008W        W23872  16.412  23.757  12.442
23009W        W23873  17.475  23.646  12.553
23010W        W23874  14.737  22.622  13.043
23011W        W23875  17.538  23.616  13.678
23012W        W23876  17.943  25.365  13.090
23013W        W23877  15.897  24.864  12.339
23014W        W23878  17.146  25.409  13.426
23015W        W23879  16.882  22.635  13.283
23016W        W23880  16.166  25.552  13.452
23017W        W23881  17.754  22.324  11.962
23018W        W23882  17.698  23.589  13.186
23019W        W23883  14.591  22.825  13.496
23020W        W23884  17.406  22.804  12.539
23021W        W23885  17.688  22.401  14.091
23022W        W23886  16.789  24.637  12.313
23023W        W23887  16.068  25.222  11.992
23024W        W23888  15.136  22.280  11.342
23025W        W23889  16.392  21.998  13.026
23026W        W23890  15.132  25.571  11.105
23027W        W23891  16.008  23.700  11.567
23028W        W23892  16.346  24.275  13.869
23029W        W23893  16.247  22.438  12.005
23030W        W23894  17.546  22.021  12.354
23031W        W23895  17.291  25.640  12.615
23032W        W23896  16.578  25.275  12.980
23033W        W23897  15.897  24.211  12.991
23034W        W23898  17.798  24.916  13.299
23035W        W23899  15.554  22.240  11.957
23036W        W23900  15.949  24.774  12.845
23037W        W23901  15.481  22.552  10.979
23038W        W23902  16.291  23.285  13.195
23039W        W23903  16.939  21.988  13.104
23040W        W23904  14.568  24.139  12.977
23041W        W23905  16.286  23.748  11.136
23042W        W23906  15.552  22.048  11.019
23043W        W23907  16.132  22.957  11.999
23044W        W23908  17.074  22.236  13.629
23045W        W23909  15.896  24.196  13.661
23046W        W23910  16.697  23.834  13.846
23047W        W23911  17.203  23.991  13.776
23048W        W23912  16.394  22.124  14.435
23049W        W23913  15.662  22.662  12.764
23050W        W23914  15.330  22.529  12.350
23051W        W23915  14.967  25.302  11.898
23052W        W23916  16.471  24.766  14.012
23053W        W23917  15.630  24.480  11.469
23054W        W23918  16.934  23.734  12.535
23055W        W23919  17.206  23.536  12.990
23056W        W23920  16.358  23.967  12.907
23057W        W23921  16.913  24.329  11.035
23058W        W23922  16.810  22.406  12.300
23059W        W23923  18.034  22.692  11.721
23060W        W23924  14.942  25.478  13.697
23061W        W23925  15.083  24.504  13.315
23062W        W23926  14.454  25.658  11.485
23063W        W23927  16.408  22.461  13.299
23064W        W23928  15.687  24.983  11.395
23065W        W23929  17.639  25.202  11.228
23066W        W23930  16.777  23.882  11.255
23067W        W23931  15.671  22.736  11.934
23068W        W23932  16.338  22.619  10.982
23069W        W23933  16.832  24.324  13.959
23070W        W23934  17.307  22.291  11.661
23071W        W23935  14.674  22.076  11.218
23072W        W23936  15.997  24.586  13.314
23073W        W23937  15.676  24.412  12.557
23074W        W23938  15.639  24.666  10.971
23075W        W23939  14.865  24.847  11.631
23076W        W23940  15.320  23.490  13.979
23077W        W23941  15.830  22.259  14.049
23078W        W23942  16.603  22.060  13.536
23079W        W23943  15.988  21.981  12.165
23080W        W23944  16.891  22.151  11.354
23081W        W23945  14.880  22.107  13.061
23082W        W23946  14.757  22.922  12.550
23083W        W23947  17.714  22.033  12.874
23084W        W23948  15.170  22.553  11.802
23085W        W23949  17.413  22.180  13.260
23086W        W23950  17.688  23.634  11.155
23087W        W23951  15.323  22.273  12.818
23088W        W23952  16.487  22.923  13.508
23089W        W23953  14.725  22.605  11.279
23090W        W23954  15.165  23.791  13.565
23091W        W23955  16.591  23.475  12.829
23092W        W23956  16.575  25.496  11.250
23093W        W23957  14.677  23.932  11.057
23094W        W23958  15.560  24.676  14.095
23095W        W23959  14.916  23.314  13.653
23096W        W23960  16.008  23.789  13.272
23097W        W23961  17.520  21.980  13.731
23098W        W23962  18.077  23.711  13.735
23099W        W23963  18.036  23.519  11.510
23100W        W23964  16.917  24.134  11.733
23101W        W23965  17.451  25.523  10.875
23102W        W23966  16.673  23.499  14.280
23103W        W23967  15.092  24.743  14.353
23104W        W23968  18.122  22.449  14.429
23105W        W23969  17.577  23.220  12.810
23106W        W23970  16.227  25.407  14.315
23107W        W23971  16.021  21.893  11.215
23108W        W23972  17.541  24.700  11.042
23109W        W23973  15.469  22.679  14.021
23110W        W23974  16.005  24.708  13.799
23111W        W23975  17.775  22.432  13.585
23112W        W23976  17.283  25.567  11.367
23113W        W23977  17.266  24.063  12.781
23114W        W23978  15.493  22.309  13.657
23115W        W23979  16.195  23.428  14.120
23116W        W23980  15.576  24.582  12.039
23117W        W23981  17.413  24.035  11.876
23118W        W23982  15.040  22.677  13.721
23119W        W23983  16.358  24.818  12.115
23120W        W23984  17.971  23.280  12.401
23121W        W23985  16.214  21.906  13.998
23122W        W23986  17.343  24.849  12.982
23123W        W23987  17.585  25.244  12.750
23124W        W23988  16.572  25.005  11.063
23125W        W23989  14.679  24.690  14.036
23126W        W23990  15.526  22.854  13.222
23127W        W23991  15.494  22.019  12.407
23128W        W23992  17.176  22.940  12.986
23129W        W23993  15.925  24.134  11.175
23130W        W23994  17.773  24.040  12.942
23131W        W23995  15.157  25.060  13.955
23132W        W23996  17.638  25.626  11.784
23133W        W23997  15.862  22.455  12.346
23134W        W23998  15.317  23.975  12.597
23135W        W23999  15.688  25.567  13.213
23136W        W24000  17.852  25.520  13.986
23137W        W24001  16.854  23.896  13.020
23138W        W24002  14.901  23.162  11.052
23139W        W24003  17.942  25.224  12.095
23140W        W24004  17.712  22.581  11.334
23141W        W24005  15.760  21.831  13.685
23142W        W24006  17.670  24.876  12.389
23143W        W24007  17.504  23.219  12.242
23144W        W24008  15.760  22.984  12.376
23145W        W24009  16.087  23.235  13.654
23146W        W24010  17.147  24.504  13.597
23147W        W24011  15.934  22.706  13.771
23148W        W24012  15.665  25.328  12.393
23149W        W24013  15.287  25.521  14.148
23150W        W24014  15.292  25.049  11.048
23151W        W24015  17.885  24.707  11.947
23152W        W24016  15.391  23.079  13.663
23153W        W24017  18.007  22.901  11.037
23154W        W24018  16.024  24.225  11.669
23155W        W24019  17.018  23.618  13.465
23156W        W24020  16.811  23.225  13.215
23157W        W24021  15.291  23.412  13.255
23158W        W24022  17.500  25.669  13.094
23159W        W24023  17.221  22.166  14.128
23160W        W24024  14.832  22.115  13.978
23161W        W24025  15.521  23.180  12.818
23162W        W24026  15.885  22.891  11.105
23163W        W24027  14.832  24.900  13.583
23164W        W24028  16.051  23.552  12.827
23165W        W24029  15.930  22.380  11.150
23166W        W24030  14.942  23.461  12.348
23167W        W24031  14.802  25.632  13.209
23168W        W24032  17.534  23.592  11.638
23169W        W24033  17.424  24.512  12.098
23170W        W24034  14.801  23.510  14.124
23171W        W24035  17.741  22.068  11.415
23172W        W24036  17.586  24.467  11.587
23173W        W24037  16.528  23.461  11.472
23174W        W24038  17.349  22.282  11.132
23175W        W24039  17.368  22.698  13.420
23176W        W24040  15.016  23.277  12.834
23177W        W24041  15.190  24.392  12.310
23178W        W24042  17.095  22.939  12.160
23179W        W24043  16.136  22.507  12.876
23180W        W24044  18.067  24.501  13.405
23181W        W24045  18.017  22.448  13.097
23182W        W24046  14.613  25.263  12.276
23183W        W24047  14.789  24.476  11.993
23184W        W24048  14.988  22.090  14.497
23185W        W24049  16.028  24.926  14.257
23186W        W24050  17.979  23.788  12.548
23187W        W24051  17.298  23.983  11.361
23188W        W24052  16.809  25.736  13.214
23189W        W24053  17.312  24.379  14.095
23190W        W24054  16.296  21.775  11.664
23191W        W24055  16.831  22.830  12.588
23192W        W24056  14.670  24.648  12.983
23193W        W24057  15.960  22.160  11.662
23194W        W24058  15.854  23.878  14.098
23195W        W24059  16.616  22.809  12.069
23196W        W24060  17.025  24.427  13.086
23197W        W24061  15.446  25.113  14.432
23198W        W24062  15.579  22.479  11.492
23199W        W24063  17.011  22.746  11.700
23200W        W24064  16.907  24.950  13.780
23201W        W24065  15.660  23.539  12.472
23202W        W24066  15.219  25.316  13.284
23203W        W24067  17.944  25.417  10.883
23204W        W24068  14.925  24.020  13.953
23205W        W24069  16.749  24.252  12.664
23206W        W24070  15.612  24.070  12.162
23207W        W24071  15.816  25.099  13.441
23208W        W24072  16.341  22.256  12.485
23209W        W24073  14.566  24.303  11.392
23210W        W24074  16.341  23.135  11.108
23211W        W24075  14.869  23.972  12.278
23212W        W24076  16.060  22.223  13.578
23213W        W24077  17.871  22.206  10.942
23214W        W24078  17.683  24.050  13.951
23215W        W24079  16.684  25.285  14.084
23216W        W24080  18.107  24.334  13.896
23217W        W24081  17.676  25.142  14.298
23218W        W24082  15.305  25.563  12.819
23219W        W24083  17.895  24.189  11.997
23220W        W24084  16.658  23.280  12.347
23221W        W24085  16.526  21.956  12.110
23222W        W24086  15.571  25.089  11.929
23223W        W24087  16.034  22.823  13.283
23224W        W24088  15.901  22.076  12.716
23225W        W24089  14.793  25.271  11.346
23226W        W24090  16.524  24.196  12.175
23227W        W24091  15.678  25.156  13.955
23228W        W24092  14.752  23.997  11.773
23229W        W24093  14.855  22.401  12.596
23230W        W24094  16.240  24.386  12.617
23231W        W24095  14.718  22.299  11.705
23232W        W24096  17.382  23.226  13.371
23233W        W24097  17.247  22.794  11.189
23234W        W24098  17.676  24.501  12.751
23235W        W24099  16.381  24.881  12.627
23236W        W24100  15.789  25.447  11.611
23237W        W24101  17.001  21.916  10.925
23238W        W24102  14.808  25.395  12.740
23239W        W24103  16.866  23.015  14.117
23240W        W24104  14.998  22.549  14.228
23241W        W24105  14.668  23.162  12.040
23242W        W24106  16.038  23.190  11.533
23243W        W24107  17.066  23.469  13.939
23244W        W24108  15.586  23.747  12.978
23245W        W24109  17.078  21.989  12.112
23246W        W24110  16.177  25.330  12.493
23247W        W24111  17.352  24.958  13.506
23248W        W24112  17.191  25.032  12.488
23249W        W24113  17.061  24.138  12.249
23250W        W24114  16.381  22.250  11.377
23251W        W24115  18.056  21.914  12.104
23252W        W24116  15.890  23.420  11.064
23253W        W24117  17.805  22.800  12.200
23254W        W24118  16.420  24.252  11.258
23255W        W24119  17.650  24.529  13.715
23256W        W24120  17.166  25.125  11.013
23257W        W24121  15.917  22.706  14.296
23258W        W24122  15.788  23.310  13.239
23259W        W24123  17.793  25.022  13.807
23260W        W24124  16.734  22.581  13.785
23261W        W24125  14.533  23.100  13.935
23262W        W24126  16.526  23.699  13.352
23263W        W24127  14.691  24.380  12.517
23264W        W24128  14.790  23.600  13.248
23265W        W24129  17.328  23.975  13.278
23266W        W24130  17.338  25.386  13.928
23267W        W24131  17.003  23.018  13.636
23268W        W24132  17.460  25.349  12.198
23269W        W24133  16.327  24.978  13.342
23270W        W24134  15.586  25.142  12.913
23271W        W24135  17.537  24.443  13.233
23272W        W24136  16.527  24.389  14.370
23273W        W24137  15.114  24.431  12.803
23274W        W24138  17.585  24.119  12.392
23275W        W24139  17.083  25.299  12.928
23276W        W24140  15.119  24.923  12.976
23277W        W24141  16.350  22.938  14.033
23278W        W24142  16.388  25.025  11.610
23279W        W24143  16.006  24.402  14.234
23280W        W24144  15.977  24.752  11.769
23281W        W24145  15.423  23.068  10.939
23282W        W24146  14.811  25.751  18.082
23283W        W24147  15.039  24.606  17.493
23284W        W24148  17.576  23.418  15.451
23285W        W24149  18.090  25.259  17.314
23286W        W24150  15.635  25.377  14.998
23287W        W24151  15.930  23.482  16.081
23288W        W24152  15.521  23.391  16.413
23289W        W24153  16.376  23.893  15.067
23290W        W24154  16.166  25.221  17.681
23291W        W24155  14.630  22.488  17.574
23292W        W24156  15.299  21.754  17.389
23293W        W24157  17.149  22.224  16.381
23294W        W24158  16.940  23.002  15.037
23295W        W24159  17.304  22.741  17.853
23296W        W24160  14.719  22.211  17.152
23297W        W24161  15.042  25.297  18.152
23298W        W24162  16.199  24.658  14.686
23299W        W24163  14.503  23.037  16.744
23300W        W24164  15.764  23.141  17.708
23301W        W24165  17.863  22.772  16.473
23302W        W24166  17.930  24.048  17.283
23303W        W24167  16.343  23.393  16.413
23304W        W24168  16.905  24.755  16.744
23305W        W24169  15.129  24.113  16.964
23306W        W24170  14.351  23.659  16.683
23307W        W24171  15.786  23.650  17.635
23308W        W24172  17.937  23.390  17.810
23309W        W24173  15.573  24.736  16.376
23310W        W24174  16.750  24.573  17.246
23311W        W24175  15.935  23.241  16.691
23312W        W24176  16.394  23.913  16.478
23313W        W24177  16.975  24.839  18.077
23314W        W24178  16.380  23.975  18.157
23315W        W24179  16.244  23.899  17.657
23316W        W24180  14.609  22.809  17.959
23317W        W24181  17.424  24.805  17.780
23318W        W24182  14.927  22.000  15.686
23319W        W24183  15.580  24.444  16.869
23320W        W24184  18.068  24.397  16.258
23321W        W24185  17.358  22.799  16.692
23322W        W24186  17.611  22.601  14.556
23323W        W24187  18.262  23.213  17.033
23324W        W24188  16.325  25.062  16.825
23325W        W24189  17.526  24.100  14.456
23326W        W24190  15.190  25.602  15.236
23327W        W24191  15.569  25.577  15.661
23328W        W24192  15.236  22.128  17.021
23329W        W24193  17.822  23.188  17.277
23330W        W24194  17.185  23.367  15.813
23331W        W24195  17.123  23.356  14.456
23332W        W24196  16.437  24.538  16.849
23333W        W24197  16.375  22.568  16.152
23334W        W24198  16.767  25.082  17.122
23335W        W24199  17.313  23.662  16.206
23336W        W24200  16.575  22.218  15.450
23337W        W24201  15.403  25.139  15.424
23338W        W24202  14.602  22.379  15.812
23339W        W24203  17.493  23.150  16.310
23340W        W24204  15.077  24.842  16.512
23341W        W24205  15.986  25.156  14.707
23342W        W24206  17.590  23.135  14.550
23343W        W24207  14.880  25.051  16.934
23344W        W24208  15.514  24.778  17.320
23345W        W24209  16.054  23.996  16.082
23346W        W24210  15.596  22.379  16.731
23347W        W24211  18.208  21.940  16.536
23348W        W24212  15.439  24.118  13.865
23349W        W24213  14.921  22.570  14.740
23350W        W24214  15.212  24.853  16.006
23351W        W24215  15.876  24.516  16.001
23352W        W24216  17.631  25.238  17.583
23353W        W24217  16.552  22.693  15.234
23354W        W24218  17.890  25.534  16.285
23355W        W24219  17.486  23.185  17.668
23356W        W24220  18.370  24.841  16.030
23357W        W24221  16.879  24.090  17.378
23358W        W24222  14.496  23.284  15.879
23359W        W24223  15.461  24.267  17.334
23360W        W24224  16.789  23.087  15.550
23361W        W24225  16.864  23.773  15.738
23362W        W24226  14.917  23.126  17.044
23363W        W24227  14.932  22.949  17.536
23364W        W24228  14.900  21.982  16.193
23365W        W24229  16.625  22.378  16.597
23366W        W24230  16.405  22.513  17.742
23367W        W24231  16.846  22.541  14.807
23368W        W24232  18.094  25.119  17.820
23369W        W24233  16.860  22.073  17.722
23370W        W24234  17.877  24.656  17.977
23371W        W24235  17.417  22.369  17.523
23372W        W24236  17.161  22.341  15.846
23373W        W24237  17.484  23.633  17.930
23374W        W24238  15.405  25.220  16.298
23375W        W24239  16.081  22.662  14.893
23376W        W24240  15.453  22.214  17.731
23377W        W24241  17.525  22.613  15.618
23378W        W24242  17.809  22.953  15.371
23379W        W24243  15.842  25.615  17.814
23380W        W24244  15.465  21.821  15.140
23381W        W24245  17.963  22.299  16.268
23382W        W24246  18.070  24.999  14.610
23383W        W24247  14.705  24.022  16.581
23384W        W24248  16.857  22.521  14.279
23385W        W24249  18.101  24.891  16.484
23386W        W24250  17.982  21.926  17.005
23387W        W24251  16.627  23.375  17.713
23388W        W24252  16.585  24.356  14.894
23389W        W24253  17.098  23.807  18.219
23390W        W24254  16.762  21.871  16.479
23391W        W24255  15.098  23.013  16.570
23392W        W24256  14.990  24.079  17.450
23393W        W24257  16.730  25.253  16.120
23394W        W24258  17.786  22.753  17.002
23395W        W24259  16.696  25.341  17.570
23396W        W24260  17.665  23.640  14.665
23397W        W24261  16.416  23.596  15.939
23398W        W24262  18.050  21.936  17.533
23399W        W24263  16.371  24.202  17.260
23400W        W24264  16.428  22.884  16.561
23401W        W24265  17.281  23.019  15.418
23402W        W24266  17.479  22.852  14.981
23403W        W24267  17.897  24.690  15.873
23404W        W24268  17.246  24.424  16.469
23405W        W24269  17.059  23.488  15.337
23406W        W24270  16.797  23.686  16.259
23407W        W24271  17.726  23.630  16.499
23408W        W24272  14.833  22.630  16.851
23409W        W24273  17.641  23.628  17.452
23410W        W24274  18.111  25.351  16.780
23411W        W24275  16.052  24.931  16.218
23412W        W24276  17.183  25.391  17.363
23413W        W24277  16.914  22.565  17.001
23414W        W24278  16.338  25.384  17.225
23415W        W24279  17.873  22.223  15.671
23416W        W24280  17.852  23.630  16.993
23417W        W24281  14.510  22.833  17.213
23418W        W24282  17.468  22.595  16.191
23419W        W24283  17.758  22.760  17.537
23420W        W24284  16.925  24.653  16.136
23421W        W24285  16.253  25.237  15.853
23422W        W24286  15.104  22.150  14.993
23423W        W24287  16.262  22.125  16.857
23424W        W24288  15.270  25.573  14.686
23425W        W24289  16.130  23.807  15.570
23426W        W24290  16.309  24.434  17.713
23427W        W24291  16.219  22.056  15.799
23428W        W24292  17.551  22.069  16.074
23429W        W24293  17.373  25.549  16.452
23430W        W24294  16.747  25.280  16.637
23431W        W24295  16.072  24.172  16.811
23432W        W24296  17.878  24.909  16.976
23433W        W24297  15.347  22.195  15.471
23434W        W24298  15.979  24.699  16.692
23435W        W24299  15.435  22.490  14.535
23436W        W24300  16.355  23.168  16.995
23437W        W24301  17.178  21.939  16.815
23438W        W24302  14.630  24.149  17.095
23439W        W24303  16.304  23.574  14.640
23440W        W24304  15.490  21.973  14.619
23441W        W24305  16.546  23.051  16.042
23442W        W24306  17.059  22.133  17.260
23443W        W24307  15.838  24.247  17.687
23444W        W24308  16.747  23.862  17.824
23445W        W24309  17.215  24.071  17.781
23446W        W24310  16.405  22.172  18.197
23447W        W24311  15.596  22.855  16.502
23448W        W24312  15.085  22.423  15.960
23449W        W24313  15.138  25.352  15.837
23450W        W24314  16.532  24.886  17.821
23451W        W24315  16.130  24.484  15.170
23452W        W24316  17.096  23.939  16.589
23453W        W24317  17.236  23.429  16.667
23454W        W24318  16.669  24.030  16.896
23455W        W24319  17.026  24.310  14.546
23456W        W24320  16.723  22.208  16.074
23457W        W24321  18.178  22.623  15.486
23458W        W24322  14.987  25.523  17.634
23459W        W24323  15.129  24.618  17.005
23460W        W24324  14.764  25.682  15.524
23461W        W24325  16.365  22.624  17.016
23462W        W24326  15.755  24.877  15.123
23463W        W24327  17.607  25.350  14.778
23464W        W24328  16.795  23.483  14.868
23465W        W24329  16.228  22.569  15.659
23466W        W24330  16.405  22.629  14.495
23467W        W24331  16.818  24.437  17.760
23468W        W24332  17.403  22.172  15.405
23469W        W24333  14.653  21.909  14.859
23470W        W24334  15.957  24.505  17.214
23471W        W24335  15.740  24.245  16.427
23472W        W24336  15.698  24.706  14.607
23473W        W24337  14.883  25.205  15.381
23474W        W24338  15.324  23.463  17.764
23475W        W24339  15.925  22.113  17.947
23476W        W24340  16.564  22.241  17.305
23477W        W24341  15.767  21.904  15.586
23478W        W24342  16.921  22.091  15.073
23479W        W24343  14.853  22.108  16.683
23480W        W24344  14.682  22.953  16.249
23481W        W24345  17.657  22.068  16.615
23482W        W24346  14.878  22.421  15.369
23483W        W24347  17.447  22.357  16.995
23484W        W24348  18.061  23.309  14.488
23485W        W24349  15.166  22.493  16.480
23486W        W24350  16.544  22.919  17.427
23487W        W24351  14.494  22.376  14.962
23488W        W24352  15.402  23.980  17.761
23489W        W24353  16.706  23.530  16.746
23490W        W24354  16.444  25.404  14.803
23491W        W24355  14.127  23.681  14.637
23492W        W24356  15.463  24.589  17.798
23493W        W24357  14.925  23.455  17.441
23494W        W24358  15.903  23.970  17.256
23495W        W24359  17.567  21.920  17.329
23496W        W24360  18.164  23.569  17.394
23497W        W24361  17.826  23.289  14.994
23498W        W24362  16.889  23.929  15.125
23499W        W24363  17.522  25.634  14.365
23500W        W24364  16.668  23.515  18.244
23501W        W24365  15.153  24.786  18.171
23502W        W24366  18.216  22.495  18.144
23503W        W24367  17.730  23.193  16.762
23504W        W24368  16.200  25.420  18.151
23505W        W24369  15.932  21.894  14.930
23506W        W24370  17.393  24.704  14.497
23507W        W24371  15.454  22.752  17.595
23508W        W24372  15.917  24.777  17.657
23509W        W24373  17.888  22.343  17.284
23510W        W24374  17.229  25.767  14.764
23511W        W24375  17.544  24.026  16.836
23512W        W24376  15.602  22.429  17.247
23513W        W24377  16.193  23.502  17.978
23514W        W24378  15.546  24.634  15.604
23515W        W24379  17.388  23.840  15.710
23516W        W24380  15.088  22.519  17.318
23517W        W24381  16.415  24.679  15.947
23518W        W24382  18.022  23.241  16.291
23519W        W24383  16.359  21.991  17.725
23520W        W24384  17.412  24.775  16.782
23521W        W24385  17.670  25.170  16.583
23522W        W24386  16.512  24.997  14.476
23523W        W24387  14.704  24.760  17.846
23524W        W24388  15.343  22.800  16.970
23525W        W24389  15.386  21.989  15.963
23526W        W24390  16.887  23.022  16.738
23527W        W24391  16.173  24.128  14.653
23528W        W24392  18.052  24.046  16.747
23529W        W24393  15.217  25.047  17.728
23530W        W24394  17.788  25.613  15.755
23531W        W24395  15.850  22.266  16.109
23532W        W24396  15.182  23.792  16.558
23533W        W24397  16.069  25.544  16.833
23534W        W24398  17.858  25.586  17.866
23535W        W24399  17.068  23.737  17.053
23536W        W24400  14.565  23.355  14.575
23537W        W24401  18.084  25.226  15.889
23538W        W24402  17.794  22.456  15.169
23539W        W24403  15.788  21.878  17.515
23540W        W24404  17.625  24.747  16.306
23541W        W24405  17.612  23.078  15.831
23542W        W24406  16.040  22.980  16.242
23543W        W24407  16.184  23.360  17.454
23544W        W24408  17.209  24.487  17.441
23545W        W24409  16.042  22.835  17.399
23546W        W24410  15.850  25.440  16.125
23547W        W24411  15.348  25.673  17.975
23548W        W24412  15.202  25.112  14.918
23549W        W24413  17.814  24.103  15.884
23550W        W24414  15.372  23.186  17.335
23551W        W24415  17.998  22.847  14.768
23552W        W24416  16.205  24.304  15.665
23553W        W24417  17.107  23.595  17.544
23554W        W24418  16.834  23.280  17.178
23555W        W24419  15.355  23.736  17.297
23556W        W24420  17.654  25.363  17.059
23557W        W24421  17.306  22.240  18.014
23558W        W24422  14.967  22.092  17.604
23559W        W24423  15.315  23.414  16.881
23560W        W24424  16.172  23.090  14.520
23561W        W24425  14.791  25.082  17.431
23562W        W24426  16.223  23.678  16.927
23563W        W24427  15.924  22.263  14.567
23564W        W24428  15.533  23.863  16.164
23565W        W24429  14.916  25.571  17.126
23566W        W24430  17.317  23.342  14.934
23567W        W24431  17.809  22.350  17.853
23568W        W24432  17.424  24.433  15.964
23569W        W24433  14.913  23.784  17.855
23570W        W24434  17.813  21.921  15.172
23571W        W24435  17.435  23.808  15.155
23572W        W24436  16.552  23.525  15.384
23573W        W24437  17.338  22.357  14.925
23574W        W24438  17.319  22.806  17.254
23575W        W24439  14.792  23.425  16.545
23576W        W24440  15.381  24.365  16.044
23577W        W24441  17.149  22.867  15.891
23578W        W24442  16.067  22.494  16.551
23579W        W24443  18.147  24.495  17.129
23580W        W24444  18.084  22.385  16.786
23581W        W24445  14.864  25.257  16.306
23582W        W24446  14.802  24.813  15.712
23583W        W24447  15.049  22.137  18.116
23584W        W24448  16.117  24.908  18.121
23585W        W24449  18.111  23.879  16.261
23586W        W24450  17.176  23.803  14.707
23587W        W24451  16.813  25.600  17.061
23588W        W24452  17.565  24.215  18.124
23589W        W24453  16.259  21.790  15.312
23590W        W24454  16.888  22.687  16.288
23591W        W24455  14.732  24.509  16.724
23592W        W24456  16.047  22.257  15.293
23593W        W24457  15.875  23.904  18.075
23594W        W24458  16.726  22.618  15.758
23595W        W24459  17.115  24.315  16.958
23596W        W24460  15.244  25.210  17.249
23597W        W24461  15.661  25.128  17.984
23598W        W24462  15.615  22.307  15.001
23599W        W24463  17.051  22.560  15.335
23600W        W24464  16.980  24.927  17.565
23601W        W24465  15.913  23.741  16.518
23602W        W24466  15.608  25.460  17.019
23603W        W24467  18.012  25.502  14.491
23604W        W24468  15.024  24.319  17.918
23605W        W24469  16.739  24.318  16.480
23606W        W24470  15.711  24.120  15.716
23607W        W24471  15.905  25.033  17.096
23608W        W24472  16.297  22.076  16.321
23609W        W24473  14.303  24.642  15.731
23610W        W24474  16.688  23.057  14.585
23611W        W24475  14.987  24.018  16.140
23612W        W24476  16.067  22.305  17.404
23613W        W24477  17.815  22.165  14.721
23614W        W24478  17.886  23.922  17.798
23615W        W24479  16.705  25.314  18.079
23616W        W24480  18.171  24.392  17.631
23617W        W24481  17.664  25.139  18.097
23618W        W24482  15.589  25.643  16.550
23619W        W24483  18.318  24.165  15.861
23620W        W24484  16.982  23.208  16.265
23621W        W24485  16.559  21.719  16.002
23622W        W24486  15.673  25.050  15.868
23623W        W24487  15.871  22.782  16.931
23624W        W24488  15.849  21.964  16.535
23625W        W24489  14.799  25.447  14.918
23626W        W24490  16.552  24.123  16.024
23627W        W24491  15.684  25.250  17.494
23628W        W24492  14.415  23.733  15.615
23629W        W24493  14.671  22.444  16.327
23630W        W24494  16.240  24.405  16.359
23631W        W24495  14.503  22.058  15.389
23632W        W24496  17.349  23.313  17.157
23633W        W24497  17.163  22.851  14.546
23634W        W24498  17.823  24.483  16.687
23635W        W24499  16.526  24.848  16.415
23636W        W24500  15.912  25.279  15.436
23637W        W24501  16.895  22.070  14.543
23638W        W24502  15.168  25.407  16.716
23639W        W24503  16.722  22.989  18.044
23640W        W24504  15.057  22.561  17.843
23641W        W24505  14.776  22.850  15.724
23642W        W24506  16.418  23.152  15.011
23643W        W24507  17.078  23.343  17.994
23644W        W24508  15.587  23.917  16.859
23645W        W24509  17.080  21.838  15.978
23646W        W24510  16.295  25.363  16.388
23647W        W24511  17.400  24.930  17.256
23648W        W24512  17.172  25.051  16.384
23649W        W24513  17.064  24.103  16.100
23650W        W24514  16.421  22.274  14.933
23651W        W24515  18.164  21.886  15.981
23652W        W24516  15.793  23.457  14.434
23653W        W24517  17.915  22.684  15.940
23654W        W24518  16.677  23.928  14.626
23655W        W24519  17.652  24.342  17.634
23656W        W24520  17.171  25.171  14.388
23657W        W24521  15.888  22.598  17.824
23658W        W24522  15.780  23.469  17.134
23659W        W24523  17.862  24.791  17.474
23660W        W24524  16.918  22.556  17.531
23661W        W24525  14.472  23.194  17.595
23662W        W24526  16.572  23.695  17.303
23663W        W24527  14.843  24.510  16.194
23664W        W24528  14.863  23.684  16.986
23665W        W24529  17.391  24.030  17.312
23666W        W24530  17.196  25.320  17.881
23667W        W24531  17.007  23.055  17.588
23668W        W24532  17.570  25.208  16.064
23669W        W24533  16.333  24.855  17.332
23670W        W24534  15.831  25.184  16.588
23671W        W24535  17.620  24.462  17.140
23672W        W24536  16.531  24.478  18.195
23673W        W24537  15.210  24.335  16.521
23674W        W24538  17.623  24.109  16.345
23675W        W24539  17.199  25.240  16.865
23676W        W24540  15.451  24.974  16.836
23677W        W24541  16.244  23.000  17.854
23678W        W24542  16.254  25.019  15.129
23679W        W24543  16.026  24.389  18.161
23680W        W24544  16.045  24.806  15.592
23681W        W24545  15.465  23.005  14.422
23682W        W24546  14.650  25.739  21.768
23683W        W24547  14.966  24.709  21.206
23684W        W24548  18.003  24.043  19.204
23685W        W24549  18.061  25.464  21.043
23686W        W24550  15.720  25.522  18.298
23687W        W24551  16.140  23.316  19.411
23688W        W24552  15.565  23.227  19.950
23689W        W24553  16.434  23.911  19.031
23690W        W24554  16.180  25.203  21.348
23691W        W24555  14.626  22.648  21.309
23692W        W24556  15.090  21.940  21.063
23693W        W24557  17.161  22.269  20.038
23694W        W24558  16.697  22.955  18.595
23695W        W24559  17.277  22.742  21.616
23696W        W24560  14.758  22.304  20.933
23697W        W24561  14.841  25.288  21.910
23698W        W24562  16.130  24.688  18.599
23699W        W24563  14.617  22.915  20.304
23700W        W24564  15.797  23.107  21.339
23701W        W24565  17.819  22.828  20.061
23702W        W24566  17.988  24.059  20.870
23703W        W24567  16.450  23.388  19.957
23704W        W24568  16.960  24.744  20.282
23705W        W24569  15.188  24.113  20.580
23706W        W24570  14.484  23.616  20.268
23707W        W24571  15.861  23.628  21.225
23708W        W24572  17.965  23.348  21.697
23709W        W24573  15.542  24.918  20.021
23710W        W24574  16.757  24.547  21.050
23711W        W24575  15.986  23.211  20.293
23712W        W24576  15.983  24.006  19.998
23713W        W24577  17.067  24.811  21.716
23714W        W24578  16.488  24.010  21.829
23715W        W24579  16.342  23.816  21.255
23716W        W24580  14.488  23.007  21.651
23717W        W24581  17.515  24.736  21.461
23718W        W24582  14.984  21.960  19.494
23719W        W24583  15.720  24.742  20.551
23720W        W24584  18.148  24.511  19.957
23721W        W24585  17.323  22.727  20.262
23722W        W24586  17.599  22.617  18.250
23723W        W24587  18.307  23.664  20.755
23724W        W24588  16.355  25.212  20.515
23725W        W24589  18.053  24.871  18.859
23726W        W24590  15.178  25.591  19.000
23727W        W24591  15.481  25.455  19.416
23728W        W24592  15.427  22.163  20.684
23729W        W24593  17.950  23.303  20.762
23730W        W24594  17.312  23.583  19.704
23731W        W24595  17.095  23.269  18.509
23732W        W24596  16.570  24.550  20.562
23733W        W24597  16.419  22.630  19.801
23734W        W24598  16.884  24.968  20.749
23735W        W24599  17.776  23.743  19.570
23736W        W24600  16.733  22.213  19.090
23737W        W24601  15.288  25.073  19.123
23738W        W24602  14.671  22.435  19.469
23739W        W24603  17.414  23.108  19.915
23740W        W24604  15.007  24.948  20.140
23741W        W24605  15.992  25.202  18.588
23742W        W24606  17.491  23.122  18.196
23743W        W24607  14.845  25.020  20.631
23744W        W24608  15.673  24.699  21.059
23745W        W24609  16.019  23.853  19.498
23746W        W24610  15.990  22.297  20.681
23747W        W24611  18.155  22.017  20.128
23748W        W24612  15.507  24.256  18.182
23749W        W24613  14.891  22.578  18.331
23750W        W24614  15.155  24.893  19.646
23751W        W24615  15.952  24.390  19.614
23752W        W24616  17.622  25.278  21.241
23753W        W24617  16.497  22.653  18.952
23754W        W24618  17.883  25.433  20.009
23755W        W24619  17.568  23.287  21.374
23756W        W24620  18.365  25.027  19.731
23757W        W24621  16.926  24.046  21.021
23758W        W24622  14.597  23.670  19.767
23759W        W24623  15.712  24.220  20.616
23760W        W24624  16.757  23.055  19.105
23761W        W24625  16.914  23.929  19.654
23762W        W24626  15.021  23.038  20.597
23763W        W24627  15.005  23.036  21.397
23764W        W24628  14.976  22.045  20.007
23765W        W24629  16.640  22.417  20.227
23766W        W24630  16.437  22.506  21.443
23767W        W24631  16.756  22.409  18.551
23768W        W24632  18.086  25.179  21.477
23769W        W24633  16.851  22.173  21.489
23770W        W24634  17.933  24.490  21.685
23771W        W24635  17.420  22.510  21.165
23772W        W24636  17.152  22.329  19.448
23773W        W24637  17.546  23.642  21.768
23774W        W24638  15.274  25.340  19.884
23775W        W24639  16.091  22.795  18.666
23776W        W24640  15.551  22.237  21.439
23777W        W24641  17.461  22.685  19.216
23778W        W24642  17.794  23.023  19.018
23779W        W24643  15.682  25.543  21.599
23780W        W24644  15.454  21.872  18.798
23781W        W24645  17.917  22.374  19.849
23782W        W24646  18.087  24.946  18.341
23783W        W24647  14.792  24.050  20.202
23784W        W24648  16.825  22.475  18.034
23785W        W24649  18.210  24.998  20.203
23786W        W24650  18.017  22.029  20.633
23787W        W24651  16.690  23.366  21.344
23788W        W24652  16.405  24.470  19.023
23789W        W24653  17.118  23.907  21.871
23790W        W24654  16.773  21.919  20.147
23791W        W24655  15.137  22.840  20.129
23792W        W24656  14.859  24.278  20.937
23793W        W24657  16.971  25.175  19.782
23794W        W24658  17.734  22.829  20.567
23795W        W24659  16.730  25.310  21.198
23796W        W24660  17.604  23.773  18.399
23797W        W24661  16.504  23.653  19.506
23798W        W24662  18.093  21.995  21.135
23799W        W24663  16.437  24.162  20.893
23800W        W24664  16.418  22.941  20.199
23801W        W24665  17.247  23.150  19.039
23802W        W24666  17.441  22.873  18.669
23803W        W24667  17.712  25.031  19.205
23804W        W24668  17.633  24.497  20.047
23805W        W24669  16.946  23.432  19.387
23806W        W24670  16.510  23.907  19.978
23807W        W24671  17.625  23.735  20.078
23808W        W24672  14.920  22.531  20.497
23809W        W24673  17.701  23.701  21.117
23810W        W24674  18.128  25.411  20.490
23811W        W24675  16.035  24.862  19.856
23812W        W24676  17.199  25.372  20.967
23813W        W24677  16.918  22.433  20.661
23814W        W24678  16.329  25.488  20.942
23815W        W24679  17.821  22.311  19.316
23816W        W24680  17.656  23.711  20.595
23817W        W24681  14.582  22.786  20.801
23818W        W24682  17.445  22.609  19.758
23819W        W24683  17.716  22.921  21.056
23820W        W24684  17.026  24.632  19.776
23821W        W24685  16.181  25.170  19.466
23822W        W24686  15.077  22.180  18.620
23823W        W24687  16.293  21.968  20.396
23824W        W24688  15.254  25.643  18.483
23825W        W24689  16.005  23.638  19.013
23826W        W24690  16.453  24.301  21.399
23827W        W24691  16.319  22.294  19.405
23828W        W24692  17.532  22.065  19.702
23829W        W24693  17.343  25.486  20.056
23830W        W24694  16.792  25.227  20.270
23831W        W24695  16.198  24.196  20.431
23832W        W24696  18.003  25.002  20.789
23833W        W24697  15.566  22.390  19.417
23834W        W24698  16.184  24.769  20.335
23835W        W24699  15.470  22.520  18.155
23836W        W24700  16.368  23.184  20.651
23837W        W24701  17.173  22.002  20.489
23838W        W24702  14.735  23.842  20.671
23839W        W24703  16.286  23.647  18.569
23840W        W24704  15.521  22.018  18.280
23841W        W24705  16.589  23.080  19.589
23842W        W24706  17.076  22.125  21.029
23843W        W24707  15.937  24.167  21.119
23844W        W24708  16.810  23.843  21.468
23845W        W24709  17.322  23.944  21.386
23846W        W24710  16.484  22.158  21.859
23847W        W24711  15.682  22.765  20.153
23848W        W24712  15.124  22.469  19.727
23849W        W24713  14.971  25.349  19.466
23850W        W24714  16.619  24.849  21.439
23851W        W24715  15.753  24.338  18.645
23852W        W24716  17.054  23.748  20.122
23853W        W24717  17.193  23.265  20.366
23854W        W24718  16.684  23.977  20.478
23855W        W24719  17.044  24.325  18.212
23856W        W24720  16.741  22.246  19.736
23857W        W24721  18.139  22.656  19.074
23858W        W24722  14.810  25.591  21.306
23859W        W24723  15.225  24.650  20.769
23860W        W24724  14.665  25.452  19.068
23861W        W24725  16.419  22.651  20.659
23862W        W24726  15.666  24.831  18.812
23863W        W24727  17.691  25.212  18.635
23864W        W24728  16.734  23.493  18.824
23865W        W24729  16.217  22.803  19.354
23866W        W24730  16.386  22.672  18.259
23867W        W24731  16.990  24.339  21.498
23868W        W24732  17.391  22.174  19.027
23869W        W24733  14.654  21.904  18.571
23870W        W24734  16.112  24.556  20.820
23871W        W24735  15.825  24.470  20.130
23872W        W24736  15.668  24.730  18.301
23873W        W24737  14.794  24.903  19.272
23874W        W24738  15.378  23.427  21.319
23875W        W24739  16.002  22.148  21.694
23876W        W24740  16.543  22.269  21.004
23877W        W24741  15.907  22.030  19.585
23878W        W24742  17.004  21.954  18.737
23879W        W24743  14.943  22.025  20.542
23880W        W24744  14.721  22.909  19.765
23881W        W24745  17.651  22.137  20.231
23882W        W24746  15.198  22.221  19.110
23883W        W24747  17.457  22.388  20.644
23884W        W24748  17.572  23.367  18.705
23885W        W24749  15.336  22.358  20.201
23886W        W24750  16.587  22.937  21.074
23887W        W24751  14.464  22.381  18.563
23888W        W24752  15.403  24.257  21.044
23889W        W24753  16.718  23.453  20.380
23890W        W24754  16.501  25.422  18.583
23891W        W24755  14.427  23.584  17.931
23892W        W24756  15.713  24.406  21.507
23893W        W24757  14.990  23.359  20.985
23894W        W24758  16.069  23.806  20.787
23895W        W24759  17.583  22.036  21.004
23896W        W24760  18.200  23.748  21.245
23897W        W24761  17.885  23.539  19.099
23898W        W24762  16.936  23.888  19.141
23899W        W24763  17.540  25.592  18.286
23900W        W24764  16.748  23.546  21.894
23901W        W24765  15.398  24.808  21.485
23902W        W24766  18.215  22.446  21.739
23903W        W24767  17.690  23.271  20.327
23904W        W24768  16.147  25.429  21.818
23905W        W24769  15.940  21.931  18.579
23906W        W24770  17.444  24.704  18.286
23907W        W24771  15.411  22.736  21.377
23908W        W24772  16.117  24.693  21.344
23909W        W24773  17.884  22.453  20.916
23910W        W24774  17.301  25.587  18.745
23911W        W24775  17.350  24.104  20.353
23912W        W24776  15.650  22.527  20.995
23913W        W24777  16.282  23.504  21.654
23914W        W24778  15.478  24.573  19.235
23915W        W24779  17.439  24.101  19.333
23916W        W24780  15.065  22.704  20.994
23917W        W24781  16.390  24.685  19.517
23918W        W24782  17.888  23.322  19.866
23919W        W24783  16.380  21.955  21.396
23920W        W24784  17.421  24.657  20.473
23921W        W24785  17.731  25.073  20.360
23922W        W24786  16.544  24.946  18.404
23923W        W24787  14.659  24.889  21.590
23924W        W24788  15.402  22.686  20.584
23925W        W24789  15.436  22.060  19.784
23926W        W24790  16.853  22.885  20.428
23927W        W24791  16.245  24.176  18.613
23928W        W24792  17.851  24.126  20.350
23929W        W24793  15.069  25.186  21.455
23930W        W24794  17.638  25.589  19.212
23931W        W24795  15.925  22.503  19.768
23932W        W24796  15.480  24.084  20.153
23933W        W24797  15.993  25.608  20.587
23934W        W24798  17.846  25.631  21.546
23935W        W24799  17.113  23.713  20.637
23936W        W24800  14.862  23.268  17.935
23937W        W24801  18.030  25.317  19.486
23938W        W24802  17.730  22.491  18.804
23939W        W24803  15.694  21.902  21.058
23940W        W24804  17.853  24.939  19.860
23941W        W24805  17.588  23.221  19.444
23942W        W24806  16.063  23.004  19.827
23943W        W24807  16.239  23.317  21.123
23944W        W24808  17.269  24.493  21.077
23945W        W24809  16.109  22.768  21.085
23946W        W24810  15.793  25.334  19.816
23947W        W24811  15.178  25.627  21.686
23948W        W24812  15.431  25.151  18.482
23949W        W24813  18.072  24.717  19.462
23950W        W24814  15.439  23.055  20.956
23951W        W24815  17.970  22.851  18.522
23952W        W24816  15.979  24.194  19.109
23953W        W24817  17.116  23.570  21.128
23954W        W24818  16.905  23.233  20.803
23955W        W24819  15.531  23.775  20.857
23956W        W24820  17.653  25.461  20.712
23957W        W24821  17.363  22.221  21.649
23958W        W24822  15.040  22.352  21.403
23959W        W24823  15.494  23.175  20.451
23960W        W24824  15.856  22.930  18.209
23961W        W24825  14.686  25.125  21.106
23962W        W24826  16.245  23.662  20.342
23963W        W24827  15.947  22.418  18.339
23964W        W24828  15.548  23.735  19.793
23965W        W24829  14.916  25.516  20.819
23966W        W24830  17.389  23.618  19.185
23967W        W24831  17.827  22.346  21.428
23968W        W24832  17.515  24.688  19.571
23969W        W24833  14.755  23.480  21.487
23970W        W24834  17.854  22.006  18.836
23971W        W24835  17.752  24.496  19.137
23972W        W24836  16.310  23.204  18.901
23973W        W24837  17.288  22.337  18.539
23974W        W24838  17.243  22.832  20.777
23975W        W24839  14.890  23.319  20.151
23976W        W24840  15.451  24.476  19.768
23977W        W24841  17.125  22.962  19.504
23978W        W24842  16.131  22.520  20.242
23979W        W24843  18.302  24.544  20.838
23980W        W24844  18.084  22.489  20.401
23981W        W24845  14.730  25.326  19.930
23982W        W24846  15.015  24.436  19.449
23983W        W24847  15.013  22.228  21.938
23984W        W24848  16.292  24.937  21.817
23985W        W24849  18.113  23.960  19.933
23986W        W24850  17.189  23.729  18.720
23987W        W24851  16.781  25.510  20.703
23988W        W24852  17.479  24.261  21.751
23989W        W24853  16.293  21.885  19.069
23990W        W24854  16.919  22.738  19.915
23991W        W24855  14.823  24.517  20.465
23992W        W24856  15.840  22.123  19.064
23993W        W24857  16.006  23.968  21.609
23994W        W24858  16.742  22.631  19.399
23995W        W24859  17.028  24.362  20.637
23996W        W24860  15.212  25.116  20.977
23997W        W24861  15.815  25.044  21.688
23998W        W24862  15.570  22.358  18.679
23999W        W24863  17.034  22.639  18.926
24000W        W24864  17.089  24.942  21.225
24001W        W24865  15.985  23.515  19.883
24002W        W24866  15.550  25.448  20.771
24003W        W24867  18.042  25.450  18.341
24004W        W24868  15.070  23.841  21.104
24005W        W24869  16.894  24.254  20.104
24006W        W24870  15.556  24.100  19.431
24007W        W24871  15.954  25.114  20.832
24008W        W24872  16.285  22.138  19.918
24009W        W24873  14.512  24.435  19.308
24010W        W24874  16.306  23.168  18.350
24011W        W24875  15.123  24.033  19.767
24012W        W24876  16.039  22.265  21.194
24013W        W24877  17.803  22.172  18.354
24014W        W24878  17.903  23.957  21.600
24015W        W24879  16.656  25.305  21.709
24016W        W24880  18.222  24.282  21.295
24017W        W24881  17.644  25.156  21.738
24018W        W24882  15.519  25.576  20.276
24019W        W24883  18.333  24.258  19.555
24020W        W24884  16.939  23.278  19.910
24021W        W24885  16.486  21.804  19.571
24022W        W24886  15.650  24.958  19.513
24023W        W24887  15.906  22.828  20.623
24024W        W24888  15.817  22.119  20.139
24025W        W24889  14.962  25.235  18.682
24026W        W24890  16.431  24.167  19.503
24027W        W24891  15.644  25.190  21.231
24028W        W24892  14.797  23.950  19.336
24029W        W24893  14.704  22.484  20.036
24030W        W24894  16.339  24.405  19.976
24031W        W24895  14.637  22.160  19.026
24032W        W24896  17.438  23.305  20.831
24033W        W24897  17.097  22.776  18.326
24034W        W24898  17.981  24.615  20.424
24035W        W24899  16.564  24.869  19.974
24036W        W24900  15.819  25.227  19.097
24037W        W24901  16.900  22.009  18.241
24038W        W24902  15.028  25.434  20.331
24039W        W24903  16.772  22.912  21.574
24040W        W24904  14.886  22.696  21.770
24041W        W24905  14.390  23.267  19.444
24042W        W24906  15.886  23.297  18.606
24043W        W24907  17.132  23.400  21.613
24044W        W24908  15.720  23.666  20.363
24045W        W24909  17.032  21.840  19.652
24046W        W24910  16.302  25.316  19.986
24047W        W24911  17.487  24.947  20.884
24048W        W24912  17.364  24.949  20.025
24049W        W24913  17.357  24.113  19.840
24050W        W24914  16.279  22.276  18.711
24051W        W24915  18.146  21.945  19.596
24052W        W24916  15.697  23.421  18.129
24053W        W24917  17.870  22.789  19.523
24054W        W24918  16.723  23.950  18.560
24055W        W24919  17.697  24.273  21.273
24056W        W24920  17.223  25.179  18.385
24057W        W24921  15.897  22.628  21.544
24058W        W24922  15.851  23.334  20.788
24059W        W24923  17.973  24.740  21.225
24060W        W24924  16.920  22.585  21.192
24061W        W24925  14.569  23.132  21.153
24062W        W24926  16.600  23.637  20.861
24063W        W24927  14.967  24.485  19.960
24064W        W24928  15.163  23.573  20.536
24065W        W24929  17.428  24.066  20.869
24066W        W24930  17.184  25.346  21.546
24067W        W24931  17.135  23.054  21.225
24068W        W24932  17.528  25.263  19.632
24069W        W24933  16.422  24.944  20.964
24070W        W24934  15.873  25.190  20.308
24071W        W24935  17.737  24.501  20.836
24072W        W24936  16.626  24.517  21.841
24073W        W24937  15.330  24.545  20.294
24074W        W24938  17.823  24.270  19.631
24075W        W24939  17.254  25.189  20.480
24076W        W24940  15.361  25.081  20.477
24077W        W24941  16.278  23.000  21.522
24078W        W24942  16.315  25.024  18.955
24079W        W24943  16.126  24.433  21.826
24080W        W24944  15.981  24.718  19.202
24081W        W24945  15.333  23.009  18.015
24082W        W24946  14.742  25.605  25.293
24083W        W24947  15.181  24.493  24.721
24084W        W24948  17.903  24.070  22.858
24085W        W24949  18.100  25.297  24.614
24086W        W24950  15.694  25.499  22.107
24087W        W24951  15.983  23.479  23.143
24088W        W24952  15.452  23.212  23.430
24089W        W24953  16.492  23.661  22.659
24090W        W24954  16.200  25.216  24.939
24091W        W24955  14.626  22.646  24.895
24092W        W24956  15.367  21.992  24.766
24093W        W24957  17.109  22.370  23.531
24094W        W24958  16.993  23.085  21.998
24095W        W24959  17.368  22.777  25.194
24096W        W24960  14.753  22.351  24.491
24097W        W24961  14.856  25.096  25.346
24098W        W24962  16.300  24.696  22.262
24099W        W24963  14.810  23.112  23.977
24100W        W24964  15.836  23.226  25.097
24101W        W24965  17.854  22.661  23.777
24102W        W24966  17.884  23.879  24.399
24103W        W24967  16.273  23.420  23.595
24104W        W24968  16.924  24.619  23.873
24105W        W24969  15.330  24.020  24.061
24106W        W24970  14.574  23.590  23.868
24107W        W24971  15.875  23.725  24.991
24108W        W24972  17.937  23.468  25.159
24109W        W24973  15.588  24.744  23.608
24110W        W24974  16.723  24.548  24.712
24111W        W24975  15.891  23.219  23.893
24112W        W24976  16.179  23.918  23.658
24113W        W24977  17.012  24.808  25.384
24114W        W24978  16.228  23.983  25.389
24115W        W24979  16.374  23.831  24.921
24116W        W24980  14.477  22.937  25.315
24117W        W24981  17.429  24.736  25.096
24118W        W24982  15.010  22.122  23.002
24119W        W24983  15.637  24.488  24.072
24120W        W24984  18.142  24.357  23.635
24121W        W24985  17.340  22.710  23.906
24122W        W24986  17.696  22.547  21.905
24123W        W24987  18.277  23.410  24.335
24124W        W24988  16.368  25.138  24.102
24125W        W24989  18.056  24.856  22.476
24126W        W24990  15.272  25.682  22.694
24127W        W24991  15.533  25.499  23.115
24128W        W24992  15.309  22.291  24.362
24129W        W24993  17.872  23.334  24.624
24130W        W24994  17.206  23.511  23.253
24131W        W24995  17.272  23.509  22.205
24132W        W24996  16.511  24.601  24.224
24133W        W24997  16.292  22.662  23.402
24134W        W24998  16.960  24.826  24.351
24135W        W24999  17.672  23.672  23.116
24136W        W25000  16.718  22.192  22.785
24137W        W25001  15.268  25.162  22.849
24138W        W25002  14.743  22.536  23.182
24139W        W25003  17.206  23.103  23.593
24140W        W25004  14.911  24.808  23.664
24141W        W25005  16.062  25.186  22.269
24142W        W25006  17.510  23.125  21.882
24143W        W25007  14.734  24.945  24.148
24144W        W25008  15.560  24.768  24.494
24145W        W25009  15.874  24.009  23.248
24146W        W25010  15.805  22.341  24.236
24147W        W25011  18.082  22.120  23.827
24148W        W25012  15.506  23.926  21.419
24149W        W25013  14.994  22.649  22.283
24150W        W25014  15.199  24.809  23.244
24151W        W25015  15.912  24.521  23.047
24152W        W25016  17.636  25.172  24.889
24153W        W25017  16.678  22.800  22.318
24154W        W25018  17.878  25.221  23.706
24155W        W25019  17.470  23.339  24.971
24156W        W25020  18.312  24.774  23.353
24157W        W25021  16.835  24.030  24.774
24158W        W25022  14.564  23.647  22.911
24159W        W25023  15.653  24.147  24.452
24160W        W25024  16.816  23.352  22.937
24161W        W25025  16.901  23.896  23.134
24162W        W25026  15.051  23.103  24.439
24163W        W25027  15.121  23.113  24.982
24164W        W25028  14.987  22.010  23.528
24165W        W25029  16.677  22.464  23.795
24166W        W25030  16.491  22.501  25.031
24167W        W25031  16.981  22.386  22.398
24168W        W25032  18.096  25.117  25.096
24169W        W25033  16.854  22.080  24.987
24170W        W25034  17.859  24.543  25.329
24171W        W25035  17.460  22.557  24.725
24172W        W25036  17.118  22.476  23.011
24173W        W25037  17.551  23.696  25.533
24174W        W25038  15.302  25.181  23.662
24175W        W25039  16.167  22.751  22.408
24176W        W25040  15.494  22.316  25.133
24177W        W25041  17.553  22.788  22.879
24178W        W25042  17.840  23.246  22.795
24179W        W25043  15.772  25.454  25.229
24180W        W25044  15.541  21.928  22.450
24181W        W25045  17.927  22.344  23.396
24182W        W25046  18.067  24.913  21.947
24183W        W25047  14.860  24.040  23.853
24184W        W25048  16.860  22.525  21.894
24185W        W25049  18.195  24.824  23.856
24186W        W25050  18.076  22.054  24.337
24187W        W25051  16.665  23.420  25.066
24188W        W25052  16.339  24.542  22.748
24189W        W25053  17.057  23.853  25.667
24190W        W25054  16.763  21.972  23.594
24191W        W25055  15.246  22.924  23.797
24192W        W25056  15.129  24.010  24.519
24193W        W25057  17.032  25.392  23.446
24194W        W25058  17.741  22.906  24.246
24195W        W25059  16.716  25.344  24.889
24196W        W25060  17.751  23.969  22.108
24197W        W25061  16.456  23.655  23.175
24198W        W25062  18.133  22.065  24.860
24199W        W25063  16.403  24.180  24.526
24200W        W25064  16.359  22.964  23.817
24201W        W25065  17.325  23.310  22.784
24202W        W25066  17.551  23.054  22.400
24203W        W25067  17.709  25.091  22.782
24204W        W25068  17.653  24.302  23.809
24205W        W25069  17.048  23.724  22.668
24206W        W25070  16.688  23.843  23.604
24207W        W25071  17.638  23.624  23.631
24208W        W25072  14.986  22.661  24.165
24209W        W25073  17.694  23.789  24.856
24210W        W25074  18.224  25.286  24.095
24211W        W25075  16.042  24.932  23.514
24212W        W25076  17.223  25.390  24.685
24213W        W25077  17.050  22.666  24.354
24214W        W25078  16.363  25.478  24.511
24215W        W25079  17.846  22.334  22.894
24216W        W25080  17.818  23.450  24.100
24217W        W25081  14.575  22.877  24.413
24218W        W25082  17.488  22.680  23.392
24219W        W25083  17.799  22.913  24.892
24220W        W25084  16.844  24.321  23.428
24221W        W25085  16.185  25.157  23.076
24222W        W25086  15.068  22.163  22.458
24223W        W25087  16.436  22.040  23.973
24224W        W25088  15.207  25.640  22.187
24225W        W25089  16.142  24.054  22.801
24226W        W25090  16.454  24.309  25.045
24227W        W25091  16.267  22.358  22.969
24228W        W25092  17.480  22.154  23.232
24229W        W25093  17.427  25.469  23.781
24230W        W25094  16.846  25.178  23.881
24231W        W25095  16.072  24.151  24.100
24232W        W25096  18.050  24.849  24.366
24233W        W25097  15.491  22.254  22.867
24234W        W25098  16.088  24.694  23.965
24235W        W25099  15.403  22.566  21.855
24236W        W25100  16.382  23.170  24.307
24237W        W25101  17.109  22.213  24.027
24238W        W25102  14.661  23.964  24.322
24239W        W25103  16.331  23.652  22.167
24240W        W25104  15.539  22.072  21.948
24241W        W25105  16.417  23.123  23.188
24242W        W25106  17.160  22.187  24.541
24243W        W25107  15.986  24.204  24.862
24244W        W25108  16.739  23.931  25.276
24245W        W25109  17.241  23.875  25.103
24246W        W25110  16.524  22.141  25.407
24247W        W25111  15.736  22.728  23.766
24248W        W25112  15.249  22.622  23.353
24249W        W25113  14.994  25.295  23.281
24250W        W25114  16.573  24.856  25.108
24251W        W25115  15.586  24.158  22.836
24252W        W25116  17.137  23.603  23.764
24253W        W25117  17.313  23.218  24.083
24254W        W25118  16.573  23.956  24.089
24255W        W25119  17.081  24.404  22.044
24256W        W25120  16.676  22.356  23.273
24257W        W25121  18.065  22.764  22.714
24258W        W25122  14.947  25.349  24.880
24259W        W25123  15.045  24.428  24.226
24260W        W25124  14.808  25.465  22.839
24261W        W25125  16.511  22.674  24.236
24262W        W25126  15.525  25.100  22.398
24263W        W25127  17.701  25.178  22.262
24264W        W25128  16.805  23.352  22.388
24265W        W25129  16.084  22.832  22.928
24266W        W25130  16.347  22.653  21.923
24267W        W25131  17.020  24.360  25.136
24268W        W25132  17.390  22.174  22.697
24269W        W25133  14.623  22.011  22.217
24270W        W25134  16.018  24.524  24.442
24271W        W25135  16.032  24.423  23.531
24272W        W25136  15.811  24.761  22.113
24273W        W25137  14.792  24.957  22.893
24274W        W25138  15.410  23.523  25.057
24275W        W25139  16.020  22.128  25.305
24276W        W25140  16.650  22.307  24.568
24277W        W25141  15.900  22.012  23.053
24278W        W25142  17.010  21.878  22.484
24279W        W25143  14.933  22.142  24.057
24280W        W25144  14.851  22.984  23.450
24281W        W25145  17.561  22.258  23.742
24282W        W25146  15.130  22.613  22.814
24283W        W25147  17.594  22.400  24.242
24284W        W25148  17.808  23.449  22.186
24285W        W25149  15.337  22.417  23.850
24286W        W25150  16.568  22.896  24.706
24287W        W25151  14.524  22.513  22.134
24288W        W25152  15.445  24.041  24.909
24289W        W25153  16.689  23.438  23.975
24290W        W25154  16.527  25.397  22.215
24291W        W25155  14.765  23.728  21.956
24292W        W25156  15.649  24.575  24.990
24293W        W25157  15.025  23.543  24.703
24294W        W25158  16.048  23.806  24.512
24295W        W25159  17.654  22.040  24.637
24296W        W25160  18.233  23.704  24.763
24297W        W25161  18.105  23.813  22.465
24298W        W25162  16.667  24.134  22.741
24299W        W25163  17.531  25.606  21.955
24300W        W25164  16.675  23.513  25.581
24301W        W25165  15.220  24.400  25.226
24302W        W25166  18.268  22.529  25.467
24303W        W25167  17.696  23.124  23.731
24304W        W25168  16.252  25.423  25.401
24305W        W25169  16.046  21.996  22.193
24306W        W25170  17.547  24.718  21.999
24307W        W25171  15.529  22.823  25.092
24308W        W25172  16.140  24.710  24.890
24309W        W25173  17.940  22.484  24.621
24310W        W25174  17.313  25.544  22.419
24311W        W25175  17.480  23.887  24.066
24312W        W25176  15.647  22.561  24.674
24313W        W25177  16.226  23.481  25.308
24314W        W25178  15.477  24.677  22.800
24315W        W25179  17.374  24.046  22.922
24316W        W25180  15.136  22.662  24.697
24317W        W25181  16.391  24.673  23.238
24318W        W25182  18.021  23.363  23.397
24319W        W25183  16.346  22.016  24.931
24320W        W25184  17.328  24.492  24.157
24321W        W25185  17.691  24.824  24.001
24322W        W25186  16.740  24.948  22.097
24323W        W25187  14.781  24.809  24.892
24324W        W25188  15.480  22.784  24.243
24325W        W25189  15.463  22.148  23.397
24326W        W25190  16.865  22.947  23.953
24327W        W25191  16.337  24.178  22.316
24328W        W25192  17.982  23.917  23.895
24329W        W25193  15.259  24.932  25.047
24330W        W25194  17.789  25.575  22.922
24331W        W25195  15.814  22.507  23.259
24332W        W25196  15.694  24.115  23.726
24333W        W25197  15.973  25.490  24.175
24334W        W25198  17.820  25.549  25.198
24335W        W25199  17.015  23.738  24.254
24336W        W25200  14.911  23.205  21.891
24337W        W25201  18.042  25.166  23.173
24338W        W25202  17.680  22.547  22.436
24339W        W25203  15.864  22.118  24.795
24340W        W25204  17.799  24.752  23.493
24341W        W25205  17.578  23.171  23.232
24342W        W25206  15.950  23.038  23.413
24343W        W25207  16.234  23.369  24.782
24344W        W25208  17.223  24.500  24.675
24345W        W25209  16.010  22.929  24.720
24346W        W25210  15.769  25.353  23.540
24347W        W25211  15.240  25.443  25.288
24348W        W25212  15.355  25.182  21.894
24349W        W25213  17.944  24.658  22.984
24350W        W25214  15.519  23.112  24.661
24351W        W25215  17.972  22.941  22.075
24352W        W25216  15.897  24.432  22.512
24353W        W25217  17.042  23.560  24.753
24354W        W25218  16.896  23.200  24.413
24355W        W25219  15.518  23.644  24.557
24356W        W25220  17.742  25.345  24.226
24357W        W25221  17.350  22.157  25.041
24358W        W25222  14.939  22.220  24.964
24359W        W25223  15.434  23.294  24.135
24360W        W25224  15.928  22.998  21.899
24361W        W25225  14.396  24.974  24.588
24362W        W25226  16.216  23.597  24.073
24363W        W25227  15.884  22.479  22.062
24364W        W25228  14.991  23.424  23.162
24365W        W25229  14.684  25.391  24.440
24366W        W25230  17.608  23.700  22.595
24367W        W25231  17.814  22.445  25.143
24368W        W25232  17.312  24.506  23.506
24369W        W25233  14.807  23.540  25.187
24370W        W25234  17.868  22.050  22.453
24371W        W25235  17.762  24.377  22.445
24372W        W25236  16.435  23.127  22.662
24373W        W25237  17.419  22.184  22.182
24374W        W25238  17.370  23.037  24.571
24375W        W25239  15.051  23.452  23.678
24376W        W25240  15.459  24.351  23.292
24377W        W25241  17.114  22.977  23.111
24378W        W25242  16.167  22.471  23.885
24379W        W25243  18.395  24.445  24.503
24380W        W25244  18.141  22.527  24.154
24381W        W25245  14.732  25.293  23.742
24382W        W25246  15.006  24.468  22.903
24383W        W25247  15.075  22.214  25.462
24384W        W25248  16.332  24.923  25.566
24385W        W25249  18.074  23.878  23.398
24386W        W25250  17.302  24.039  22.347
24387W        W25251  16.826  25.353  24.358
24388W        W25252  17.420  24.196  25.460
24389W        W25253  16.260  21.913  22.672
24390W        W25254  16.775  22.831  23.453
24391W        W25255  14.610  24.477  23.935
24392W        W25256  15.928  22.309  22.584
24393W        W25257  15.728  24.114  25.316
24394W        W25258  16.660  22.732  22.911
24395W        W25259  16.902  24.270  24.325
24396W        W25260  15.093  25.000  24.526
24397W        W25261  15.903  24.955  25.292
24398W        W25262  15.474  22.447  22.366
24399W        W25263  17.097  22.868  22.607
24400W        W25264  17.028  24.943  24.859
24401W        W25265  15.751  23.615  23.589
24402W        W25266  15.527  25.298  24.399
24403W        W25267  18.044  25.416  21.967
24404W        W25268  14.868  24.025  24.960
24405W        W25269  17.055  24.116  23.865
24406W        W25270  15.260  23.914  23.541
24407W        W25271  16.006  25.050  24.457
24408W        W25272  16.176  22.168  23.468
24409W        W25273  14.802  24.002  22.590
24410W        W25274  16.451  23.147  22.008
24411W        W25275  14.744  23.816  23.409
24412W        W25276  16.173  22.472  24.593
24413W        W25277  17.850  22.077  21.931
24414W        W25278  17.902  24.006  25.296
24415W        W25279  16.739  25.248  25.408
24416W        W25280  18.059  24.185  24.812
24417W        W25281  17.686  25.053  25.398
24418W        W25282  15.522  25.580  23.938
24419W        W25283  18.272  24.287  23.154
24420W        W25284  16.774  23.349  23.472
24421W        W25285  16.479  21.901  23.145
24422W        W25286  15.680  25.001  23.152
24423W        W25287  16.000  22.828  24.219
24424W        W25288  15.933  21.971  23.906
24425W        W25289  15.000  25.216  22.409
24426W        W25290  16.391  24.158  23.244
24427W        W25291  15.691  25.110  24.855
24428W        W25292  15.108  23.967  23.047
24429W        W25293  14.851  22.511  23.685
24430W        W25294  16.471  24.337  23.775
24431W        W25295  14.688  22.406  22.679
24432W        W25296  17.451  23.541  24.455
24433W        W25297  17.281  22.700  22.142
24434W        W25298  18.042  24.386  24.132
24435W        W25299  16.504  24.847  23.703
24436W        W25300  15.778  25.479  22.647
24437W        W25301  16.982  22.031  21.982
24438W        W25302  15.091  25.349  24.116
24439W        W25303  16.801  23.010  25.430
24440W        W25304  15.053  22.662  25.214
24441W        W25305  14.742  22.984  22.909
24442W        W25306  16.055  23.254  22.336
24443W        W25307  17.117  23.429  25.334
24444W        W25308  15.736  23.730  24.093
24445W        W25309  17.017  21.953  23.147
24446W        W25310  16.304  25.359  23.614
24447W        W25311  17.524  24.872  24.495
24448W        W25312  17.300  24.976  23.699
24449W        W25313  17.321  23.986  23.445
24450W        W25314  16.442  22.315  22.355
24451W        W25315  18.175  21.980  23.149
24452W        W25316  15.765  23.483  21.706
24453W        W25317  17.969  22.845  23.290
24454W        W25318  16.784  23.905  22.267
24455W        W25319  17.569  24.267  24.977
24456W        W25320  17.228  25.164  22.048
24457W        W25321  15.982  22.581  25.094
24458W        W25322  15.896  23.324  24.394
24459W        W25323  17.893  24.704  24.837
24460W        W25324  16.977  22.571  24.865
24461W        W25325  14.645  23.163  24.838
24462W        W25326  16.571  23.629  24.490
24463W        W25327  14.935  24.324  23.396
24464W        W25328  15.037  23.618  24.173
24465W        W25329  17.318  24.015  24.572
24466W        W25330  17.230  25.289  25.223
24467W        W25331  17.014  23.073  24.944
24468W        W25332  17.539  25.211  23.297
24469W        W25333  16.506  24.983  24.585
24470W        W25334  15.739  25.070  23.982
24471W        W25335  17.694  24.369  24.490
24472W        W25336  16.623  24.477  25.483
24473W        W25337  15.243  24.416  23.763
24474W        W25338  17.741  24.264  23.299
24475W        W25339  17.273  25.174  24.172
24476W        W25340  15.268  24.859  24.057
24477W        W25341  16.321  22.996  25.154
24478W        W25342  16.432  25.058  22.614
24479W        W25343  16.106  24.486  25.375
24480W        W25344  15.931  24.919  22.688
24481W        W25345  15.417  23.091  21.737
24482W        W25346  14.784  25.645  28.857
24483W        W25347  15.112  24.390  28.502
24484W        W25348  17.819  24.150  26.284
24485W        W25349  18.056  25.218  28.258
24486W        W25350  15.934  25.198  25.768
24487W        W25351  15.943  23.382  26.468
24488W        W25352  15.528  23.045  26.721
24489W        W25353  16.296  23.771  26.308
24490W        W25354  16.167  25.206  28.425
24491W        W25355  14.871  22.717  28.447
24492W        W25356  15.356  22.112  28.206
24493W        W25357  17.242  22.356  27.313
24494W        W25358  16.822  23.121  25.960
24495W        W25359  17.379  22.603  28.733
24496W        W25360  14.801  22.343  28.092
24497W        W25361  14.919  25.145  28.933
24498W        W25362  16.311  24.505  25.891
24499W        W25363  14.857  23.197  27.517
24500W        W25364  15.645  23.022  28.797
24501W        W25365  18.061  22.925  27.385
24502W        W25366  17.884  24.035  28.095
24503W        W25367  16.326  23.456  27.290
24504W        W25368  16.880  24.737  27.578
24505W        W25369  15.261  24.089  27.878
24506W        W25370  14.534  23.587  27.441
24507W        W25371  15.793  23.650  28.406
24508W        W25372  18.026  23.348  28.662
24509W        W25373  15.391  24.691  27.195
24510W        W25374  16.668  24.581  28.204
24511W        W25375  16.036  23.030  27.476
24512W        W25376  16.065  23.909  27.177
24513W        W25377  16.911  24.774   0.019
24514W        W25378  16.158  24.000  28.923
24515W        W25379  16.282  23.828  28.440
24516W        W25380  14.661  22.952  28.917
24517W        W25381  17.382  24.677  28.761
24518W        W25382  15.039  22.133  26.623
24519W        W25383  15.577  24.465  27.715
24520W        W25384  18.149  24.476  27.107
24521W        W25385  17.352  22.698  27.674
24522W        W25386  17.746  22.720  25.615
24523W        W25387  18.384  23.436  27.925
24524W        W25388  16.131  25.211  27.659
24525W        W25389  17.947  24.671  26.345
24526W        W25390  15.205  25.756  26.059
24527W        W25391  15.498  25.471  26.579
24528W        W25392  15.514  22.292  27.737
24529W        W25393  17.997  23.152  28.177
24530W        W25394  17.136  23.581  26.836
24531W        W25395  17.247  23.399  25.842
24532W        W25396  16.452  24.516  27.724
24533W        W25397  16.172  22.789  27.049
24534W        W25398  16.959  24.982  28.021
24535W        W25399  17.618  23.761  26.767
24536W        W25400  16.762  22.329  26.603
24537W        W25401  15.271  25.258  26.157
24538W        W25402  14.699  22.492  26.716
24539W        W25403  17.151  23.295  27.266
24540W        W25404  14.885  24.877  27.313
24541W        W25405  16.242  24.966  26.134
24542W        W25406  17.568  23.180  25.457
24543W        W25407  14.784  24.901  27.828
24544W        W25408  15.557  24.533  28.243
24545W        W25409  15.866  23.867  26.664
24546W        W25410  16.039  22.259  27.794
24547W        W25411  18.116  22.064  27.369
24548W        W25412  15.196  23.887  25.350
24549W        W25413  14.944  22.644  25.734
24550W        W25414  15.061  24.829  26.805
24551W        W25415  16.055  24.328  26.802
24552W        W25416  17.619  25.100  28.549
24553W        W25417  16.586  22.805  26.340
24554W        W25418  17.798  25.426  26.990
24555W        W25419  17.579  23.291  28.454
24556W        W25420  18.312  24.773  26.707
24557W        W25421  16.826  24.056  28.276
24558W        W25422  14.570  23.560  26.604
24559W        W25423  15.749  24.071  28.033
24560W        W25424  16.798  23.294  26.470
24561W        W25425  16.753  23.811  26.579
24562W        W25426  15.155  23.159  27.947
24563W        W25427  15.133  23.074  28.710
24564W        W25428  14.935  22.185  27.118
24565W        W25429  16.872  22.454  27.659
24566W        W25430  16.401  22.441  28.721
24567W        W25431  16.781  22.614  25.867
24568W        W25432  18.106  25.012  28.744
24569W        W25433  16.848  22.115  28.641
24570W        W25434  17.891  24.542  28.814
24571W        W25435  17.539  22.661  28.227
24572W        W25436  17.162  22.535  26.843
24573W        W25437  17.510  23.677   0.029
24574W        W25438  15.257  25.186  27.139
24575W        W25439  16.180  22.769  26.001
24576W        W25440  15.518  22.164  28.719
24577W        W25441  17.537  22.799  26.603
24578W        W25442  17.731  23.310  26.495
24579W        W25443  15.709  25.492   0.046
24580W        W25444  15.607  21.941  26.093
24581W        W25445  18.001  22.505  27.086
24582W        W25446  17.960  24.788  25.811
24583W        W25447  14.781  24.036  27.401
24584W        W25448  16.913  22.506  25.369
24585W        W25449  18.140  24.916  27.400
24586W        W25450  18.208  21.931  27.855
24587W        W25451  16.692  23.115  28.673
24588W        W25452  16.401  24.525  26.404
24589W        W25453  17.016  23.730   0.191
24590W        W25454  16.939  21.984  27.467
24591W        W25455  15.606  22.931  27.217
24592W        W25456  14.882  24.042  28.198
24593W        W25457  16.715  25.235  27.043
24594W        W25458  17.833  22.796  27.831
24595W        W25459  16.671  25.265  28.352
24596W        W25460  17.815  24.286  25.777
24597W        W25461  16.312  23.620  26.800
24598W        W25462  18.208  22.087  28.344
24599W        W25463  16.375  24.126  28.037
24600W        W25464  16.560  23.004  27.378
24601W        W25465  17.272  23.138  26.290
24602W        W25466  17.681  23.105  25.972
24603W        W25467  17.534  24.888  26.552
24604W        W25468  17.244  24.362  27.478
24605W        W25469  17.211  23.656  26.319
24606W        W25470  16.694  23.808  27.108
24607W        W25471  17.689  23.638  27.286
24608W        W25472  15.073  22.748  27.610
24609W        W25473  17.641  23.793  28.506
24610W        W25474  18.051  25.295  27.746
24611W        W25475  15.918  24.795  27.060
24612W        W25476  17.216  25.351  28.324
24613W        W25477  17.038  22.717  28.083
24614W        W25478  16.368  25.512  28.027
24615W        W25479  17.876  22.401  26.548
24616W        W25480  17.681  23.566  28.024
24617W        W25481  14.727  22.866  27.973
24618W        W25482  17.540  22.756  27.148
24619W        W25483  17.849  22.853  28.595
24620W        W25484  16.824  24.665  27.071
24621W        W25485  16.051  25.211  26.688
24622W        W25486  15.263  22.294  25.946
24623W        W25487  16.410  22.025  27.484
24624W        W25488  15.535  25.532  25.697
24625W        W25489  15.813  23.768  26.124
24626W        W25490  16.370  24.331  28.525
24627W        W25491  16.263  22.479  26.636
24628W        W25492  17.596  22.221  26.959
24629W        W25493  17.366  25.544  27.277
24630W        W25494  16.668  25.245  27.677
24631W        W25495  16.039  24.191  27.636
24632W        W25496  17.888  24.815  27.827
24633W        W25497  15.487  22.323  26.442
24634W        W25498  16.000  24.711  27.562
24635W        W25499  15.449  22.610  25.561
24636W        W25500  16.364  23.271  27.789
24637W        W25501  17.322  22.166  27.805
24638W        W25502  14.548  23.885  27.856
24639W        W25503  16.224  23.646  25.808
24640W        W25504  15.562  22.075  25.582
24641W        W25505  16.335  23.116  26.679
24642W        W25506  17.203  22.279  28.313
24643W        W25507  15.884  24.203  28.499
24644W        W25508  16.666  23.985  28.793
24645W        W25509  17.165  23.927  28.663
24646W        W25510  16.553  22.100   0.070
24647W        W25511  15.852  22.532  27.404
24648W        W25512  15.218  22.603  26.806
24649W        W25513  15.035  25.322  26.684
24650W        W25514  16.479  24.828  28.636
24651W        W25515  15.468  24.250  26.279
24652W        W25516  17.176  23.818  27.311
24653W        W25517  17.254  23.521  27.731
24654W        W25518  16.436  23.886  27.571
24655W        W25519  17.042  24.382  25.756
24656W        W25520  16.712  22.339  27.149
24657W        W25521  17.985  22.885  26.346
24658W        W25522  14.852  25.296  28.455
24659W        W25523  15.104  24.555  28.020
24660W        W25524  14.803  25.491  26.259
24661W        W25525  16.574  22.803  27.873
24662W        W25526  15.822  24.674  26.008
24663W        W25527  17.714  25.164  26.090
24664W        W25528  16.743  23.627  26.072
24665W        W25529  15.942  22.843  26.463
24666W        W25530  16.373  22.629  25.519
24667W        W25531  16.926  24.413  28.629
24668W        W25532  17.388  22.253  26.471
24669W        W25533  14.700  22.041  25.798
24670W        W25534  16.040  24.517  28.047
24671W        W25535  15.756  24.331  27.230
24672W        W25536  15.626  24.569  25.531
24673W        W25537  14.872  24.949  26.335
24674W        W25538  15.338  23.558  28.733
24675W        W25539  16.033  22.076  28.902
24676W        W25540  16.690  22.349  28.175
24677W        W25541  15.876  22.047  26.688
24678W        W25542  17.226  22.267  25.971
24679W        W25543  15.010  22.213  27.648
24680W        W25544  15.151  23.115  27.093
24681W        W25545  17.719  22.374  27.498
24682W        W25546  15.009  22.569  26.308
24683W        W25547  17.809  22.256  27.997
24684W        W25548  17.987  23.409  25.666
24685W        W25549  15.346  22.477  27.290
24686W        W25550  16.424  22.823  28.359
24687W        W25551  14.465  22.510  25.869
24688W        W25552  15.381  23.968  28.385
24689W        W25553  16.773  23.505  27.534
24690W        W25554  16.475  25.344  25.850
24691W        W25555  14.653  23.880  25.638
24692W        W25556  15.544  24.513  28.757
24693W        W25557  15.060  23.553  28.281
24694W        W25558  16.092  23.699  27.947
24695W        W25559  17.546  21.898  28.270
24696W        W25560  18.207  23.707  28.322
24697W        W25561  18.099  23.874  25.934
24698W        W25562  16.940  24.092  26.174
24699W        W25563  17.538  25.481  25.626
24700W        W25564  16.722  23.300   0.155
24701W        W25565  15.157  24.244  28.999
24702W        W25566  18.202  22.459  28.737
24703W        W25567  17.584  23.149  27.508
24704W        W25568  16.189  25.375  28.919
24705W        W25569  16.021  21.912  25.766
24706W        W25570  17.459  24.672  25.643
24707W        W25571  15.389  22.639  28.557
24708W        W25572  15.972  24.735  28.500
24709W        W25573  18.110  22.593  28.233
24710W        W25574  17.291  25.506  26.095
24711W        W25575  17.536  23.957  27.663
24712W        W25576  15.710  22.488  28.170
24713W        W25577  15.817  23.510  28.941
24714W        W25578  15.387  24.767  26.355
24715W        W25579  17.350  24.132  26.510
24716W        W25580  15.226  22.626  28.072
24717W        W25581  16.373  24.792  26.846
24718W        W25582  18.044  23.461  26.918
24719W        W25583  16.363  21.963  28.532
24720W        W25584  17.362  24.831  27.715
24721W        W25585  17.665  25.143  27.430
24722W        W25586  16.749  24.851  25.846
24723W        W25587  14.826  24.639  28.854
24724W        W25588  15.576  22.838  27.738
24725W        W25589  15.437  22.126  26.943
24726W        W25590  16.985  23.066  27.701
24727W        W25591  15.951  24.153  25.788
24728W        W25592  17.978  24.203  27.523
24729W        W25593  15.222  24.888  28.608
24730W        W25594  17.669  25.530  26.478
24731W        W25595  15.748  22.541  26.869
24732W        W25596  15.274  24.116  27.169
24733W        W25597  15.872  25.431  28.048
24734W        W25598  17.907  25.484  28.723
24735W        W25599  16.958  23.963  27.761
24736W        W25600  14.937  23.106  25.466
24737W        W25601  17.997  25.148  26.556
24738W        W25602  17.597  22.610  26.114
24739W        W25603  15.869  22.020  28.388
24740W        W25604  17.841  24.892  26.976
24741W        W25605  17.557  23.253  26.969
24742W        W25606  15.936  23.279  26.997
24743W        W25607  16.276  23.325  28.302
24744W        W25608  17.386  24.756  28.235
24745W        W25609  15.912  22.934  28.361
24746W        W25610  15.734  25.434  27.030
24747W        W25611  15.305  25.417  28.703
24748W        W25612  15.453  25.053  25.536
24749W        W25613  17.741  24.415  26.752
24750W        W25614  15.481  23.227  28.340
24751W        W25615  18.125  23.353  26.157
24752W        W25616  15.977  24.248  26.298
24753W        W25617  16.735  23.585  28.501
24754W        W25618  16.776  23.182  28.161
24755W        W25619  15.495  23.615  27.962
24756W        W25620  17.647  25.602  27.709
24757W        W25621  17.355  21.996  28.736
24758W        W25622  15.014  22.238  28.564
24759W        W25623  15.394  23.322  27.517
24760W        W25624  15.911  22.903  25.503
24761W        W25625  14.773  24.779  28.343
24762W        W25626  15.875  23.518  27.505
24763W        W25627  15.920  22.426  25.708
24764W        W25628  15.076  23.489  26.737
24765W        W25629  14.990  25.543  28.032
24766W        W25630  17.677  23.614  26.077
24767W        W25631  17.753  22.304  28.540
24768W        W25632  17.351  24.640  27.021
24769W        W25633  14.831  23.453  28.901
24770W        W25634  17.778  22.120  26.111
24771W        W25635  17.489  24.528  26.141
24772W        W25636  16.362  23.263  26.174
24773W        W25637  17.406  22.363  25.502
24774W        W25638  17.409  23.105  28.004
24775W        W25639  15.046  23.613  27.238
24776W        W25640  15.534  24.453  26.761
24777W        W25641  17.120  23.044  26.792
24778W        W25642  16.359  22.544  27.486
24779W        W25643  18.197  24.433  28.000
24780W        W25644  18.206  22.472  27.683
24781W        W25645  14.758  25.336  27.115
24782W        W25646  15.025  24.366  26.566
24783W        W25647  15.143  22.095   0.070
24784W        W25648  16.307  24.895   0.134
24785W        W25649  18.032  23.976  27.017
24786W        W25650  17.413  24.037  25.974
24787W        W25651  16.875  25.638  28.041
24788W        W25652  17.525  24.193  28.946
24789W        W25653  16.085  21.801  26.265
24790W        W25654  17.014  22.801  27.261
24791W        W25655  14.575  24.506  27.492
24792W        W25656  15.967  22.318  26.229
24793W        W25657  15.607  23.989  28.865
24794W        W25658  16.672  22.778  26.869
24795W        W25659  17.084  24.431  27.964
24796W        W25660  15.200  25.070  28.129
24797W        W25661  15.768  24.973  28.951
24798W        W25662  15.631  22.681  26.057
24799W        W25663  17.091  22.661  26.320
24800W        W25664  16.983  24.908  28.523
24801W        W25665  15.559  23.650  27.086
24802W        W25666  15.445  25.376  27.783
24803W        W25667  18.024  25.311  25.682
24804W        W25668  14.940  23.905  28.685
24805W        W25669  16.754  24.250  27.377
24806W        W25670  15.342  23.949  26.690
24807W        W25671  15.724  24.940  27.938
24808W        W25672  16.160  22.255  27.090
24809W        W25673  14.605  24.261  26.122
24810W        W25674  16.354  23.128  25.672
24811W        W25675  14.849  23.943  26.890
24812W        W25676  16.196  22.384  28.259
24813W        W25677  17.895  22.227  25.626
24814W        W25678  18.053  23.861  28.792
24815W        W25679  16.689  25.242  28.881
24816W        W25680  18.190  24.271  28.493
24817W        W25681  17.715  24.950   0.086
24818W        W25682  15.359  25.629  27.347
24819W        W25683  18.208  24.267  26.604
24820W        W25684  16.713  23.304  26.985
24821W        W25685  16.387  21.955  26.731
24822W        W25686  15.559  25.002  26.771
24823W        W25687  16.072  22.759  27.904
24824W        W25688  15.831  22.004  27.407
24825W        W25689  14.952  25.430  25.746
24826W        W25690  16.567  24.243  26.839
24827W        W25691  15.640  25.126  28.419
24828W        W25692  14.907  23.892  26.378
24829W        W25693  14.842  22.713  27.157
24830W        W25694  16.286  24.418  27.241
24831W        W25695  14.628  22.207  26.293
24832W        W25696  17.172  23.523  28.248
24833W        W25697  17.247  22.849  25.751
24834W        W25698  17.705  24.608  27.390
24835W        W25699  16.437  24.901  27.356
24836W        W25700  15.765  25.146  26.262
24837W        W25701  17.018  22.015  25.500
24838W        W25702  14.982  25.322  27.572
24839W        W25703  17.079  22.940  28.982
24840W        W25704  15.041  22.598  28.947
24841W        W25705  14.867  22.981  26.670
24842W        W25706  15.902  23.238  25.920
24843W        W25707  17.135  23.416  28.787
24844W        W25708  15.596  23.937  27.533
24845W        W25709  17.089  22.026  26.949
24846W        W25710  16.217  25.329  27.163
24847W        W25711  17.596  25.183  28.015
24848W        W25712  17.154  25.062  27.283
24849W        W25713  17.074  24.177  26.960
24850W        W25714  16.380  22.268  25.904
24851W        W25715  18.148  22.075  26.852
24852W        W25716  15.771  23.616  25.502
24853W        W25717  17.959  22.955  26.859
24854W        W25718  16.575  24.042  25.785
24855W        W25719  17.594  24.313  28.440
24856W        W25720  17.199  25.120  25.741
24857W        W25721  15.891  22.524  28.670
24858W        W25722  15.852  23.236  27.946
24859W        W25723  17.897  24.717  28.328
24860W        W25724  16.864  22.629  28.580
24861W        W25725  14.698  23.189  28.431
24862W        W25726  16.615  23.658  28.012
24863W        W25727  14.876  24.431  27.058
24864W        W25728  15.018  23.656  27.748
24865W        W25729  17.334  23.995  28.132
24866W        W25730  17.217  25.212  28.857
24867W        W25731  17.170  23.013  28.471
24868W        W25732  17.330  25.284  26.829
24869W        W25733  16.374  24.953  28.022
24870W        W25734  15.690  25.101  27.415
24871W        W25735  17.601  24.408  27.899
24872W        W25736  16.526  24.432  28.997
24873W        W25737  15.085  24.435  27.530
24874W        W25738  17.569  24.140  27.156
24875W        W25739  17.189  25.343  27.728
24876W        W25740  15.281  24.898  27.652
24877W        W25741  16.167  22.962  28.820
24878W        W25742  16.542  25.163  26.516
24879W        W25743  16.016  24.498  28.943
24880W        W25744  15.927  24.731  26.519
24881W        W25745  15.458  23.174  25.457
24882W        W25746  14.728   0.101   3.379
24883W        W25747  15.025  27.972   3.030
24884W        W25748  17.789  27.901   0.781
24885W        W25749  18.013  28.823   2.725
24886W        W25750  16.014  28.723   0.414
24887W        W25751  15.713  27.033   1.029
24888W        W25752  15.426  26.817   1.515
24889W        W25753  16.355  27.642   0.836
24890W        W25754  16.112  28.706   3.127
24891W        W25755  14.681  26.208   3.003
24892W        W25756  15.277  25.363   2.887
24893W        W25757  17.155  25.955   1.768
24894W        W25758  16.896  26.723   0.487
24895W        W25759  17.354  26.301   3.361
24896W        W25760  14.767  25.918   2.563
24897W        W25761  14.913  28.646   3.559
24898W        W25762  16.518  28.038   0.540
24899W        W25763  14.707  26.733   2.050
24900W        W25764  15.795  26.737   3.149
24901W        W25765  18.044  26.506   1.750
24902W        W25766  18.018  27.612   2.582
24903W        W25767  16.313  27.020   1.607
24904W        W25768  16.828  28.290   2.048
24905W        W25769  15.213  27.596   2.338
24906W        W25770  14.464  27.174   1.976
24907W        W25771  15.815  27.252   3.045
24908W        W25772  17.920  26.994   3.208
24909W        W25773  15.501  28.267   1.754
24910W        W25774  16.706  28.114   2.737
24911W        W25775  16.170  26.668   1.968
24912W        W25776  16.076  27.480   1.683
24913W        W25777  16.968  28.408   3.468
24914W        W25778  16.357  27.560   3.513
24915W        W25779  16.349  27.376   3.029
24916W        W25780  14.554  26.575   3.372
24917W        W25781  17.424  28.226   3.210
24918W        W25782  15.129  25.816   1.120
24919W        W25783  15.520  28.014   2.253
24920W        W25784  18.144  27.988   1.664
24921W        W25785  17.607  26.183   1.863
24922W        W25786  17.833  26.320   0.091
24923W        W25787  18.200  27.095   2.494
24924W        W25788  16.142  28.625   2.263
24925W        W25789  17.581  28.331   0.990
24926W        W25790  15.219   0.060   0.688
24927W        W25791  15.492  28.855   1.069
24928W        W25792  15.258  25.740   2.526
24929W        W25793  17.797  26.813   2.654
24930W        W25794  17.205  27.314   1.092
24931W        W25795  17.298  26.966   0.259
24932W        W25796  16.412  28.126   2.295
24933W        W25797  16.475  26.531   1.594
24934W        W25798  16.752  28.559   2.500
24935W        W25799  17.719  27.469   1.050
24936W        W25800  16.830  26.024   0.972
24937W        W25801  15.240  28.483   0.784
24938W        W25802  14.762  26.121   1.269
24939W        W25803  17.552  26.706   1.750
24940W        W25804  14.962  28.346   1.743
24941W        W25805  16.315  28.500   0.770
24942W        W25806  17.555  26.708  28.904
24943W        W25807  14.723  28.484   2.338
24944W        W25808  15.451  28.059   2.752
24945W        W25809  15.600  27.319   1.457
24946W        W25810  15.803  25.942   1.884
24947W        W25811  18.146  25.638   1.860
24948W        W25812  15.248  27.365   0.114
24949W        W25813  15.061  26.520   0.357
24950W        W25814  15.061  28.316   1.232
24951W        W25815  15.850  27.718   1.251
24952W        W25816  17.534  28.668   2.888
24953W        W25817  16.573  26.425   0.772
24954W        W25818  17.797  28.928   1.639
24955W        W25819  17.442  26.858   3.026
24956W        W25820  18.245  28.268   1.258
24957W        W25821  16.837  27.623   2.794
24958W        W25822  14.681  27.120   1.185
24959W        W25823  15.680  27.625   2.564
24960W        W25824  16.902  26.900   0.968
24961W        W25825  16.658  27.324   1.140
24962W        W25826  15.003  26.718   2.493
24963W        W25827  15.072  26.593   3.044
24964W        W25828  14.998  25.698   1.603
24965W        W25829  16.761  25.973   2.178
24966W        W25830  16.477  26.072   3.231
24967W        W25831  17.013  26.057   0.472
24968W        W25832  18.204  28.635   3.182
24969W        W25833  16.863  25.629   3.085
24970W        W25834  17.913  28.073   3.365
24971W        W25835  17.414  26.165   2.867
24972W        W25836  17.209  26.171   1.292
24973W        W25837  17.511  27.241   3.384
24974W        W25838  15.217  28.723   1.493
24975W        W25839  16.051  26.518   0.889
24976W        W25840  15.477  25.802   3.137
24977W        W25841  17.676  26.494   0.880
24978W        W25842  17.870  26.989   0.857
24979W        W25843  15.756  28.958   3.407
24980W        W25844  15.713  25.575   0.675
24981W        W25845  18.009  26.029   1.585
24982W        W25846  18.055  28.351   0.270
24983W        W25847  14.789  27.535   1.827
24984W        W25848  16.923  26.091  28.890
24985W        W25849  18.094  28.530   1.778
24986W        W25850  17.942  25.729   2.418
24987W        W25851  16.629  26.959   3.203
24988W        W25852  16.671  28.133   1.017
24989W        W25853  17.157  27.438   3.727
24990W        W25854  16.779  25.596   1.798
24991W        W25855  15.114  26.541   1.816
24992W        W25856  14.789  27.634   2.679
24993W        W25857  16.713  28.720   1.564
24994W        W25858  17.713  26.431   2.291
24995W        W25859  16.652  28.853   2.914
24996W        W25860  17.828  27.716   0.284
24997W        W25861  16.142  27.291   1.192
24998W        W25862  18.119  25.722   2.917
24999W        W25863  16.354  27.710   2.619
25000W        W25864  16.690  26.507   2.098
25001W        W25865  17.371  26.889   0.766
25002W        W25866  17.773  26.770   0.405
25003W        W25867  17.233  28.693   0.832
25004W        W25868  17.288  28.017   1.563
25005W        W25869  17.044  27.257   0.598
25006W        W25870  16.604  27.434   1.655
25007W        W25871  17.652  27.219   1.839
25008W        W25872  14.920  26.274   2.233
25009W        W25873  17.689  27.304   2.872
25010W        W25874  17.994  28.869   2.161
25011W        W25875  15.988  28.119   1.539
25012W        W25876  17.115  28.902   2.677
25013W        W25877  16.869  26.310   2.567
25014W        W25878  16.235  28.971   2.642
25015W        W25879  17.905  26.033   1.066
25016W        W25880  17.730  27.290   2.336
25017W        W25881  14.500  26.488   2.450
25018W        W25882  17.675  26.368   1.383
25019W        W25883  17.820  26.494   3.087
25020W        W25884  16.749  28.173   1.544
25021W        W25885  16.012  28.747   1.130
25022W        W25886  15.157  26.025   0.508
25023W        W25887  16.331  25.643   2.059
25024W        W25888  15.464  28.689   0.375
25025W        W25889  15.492  27.262   0.583
25026W        W25890  16.457  27.867   3.104
25027W        W25891  16.332  26.201   1.192
25028W        W25892  17.555  25.826   1.457
25029W        W25893  17.285   0.007   1.756
25030W        W25894  16.590  28.756   2.060
25031W        W25895  16.058  27.694   2.185
25032W        W25896  17.796  28.470   2.438
25033W        W25897  15.559  26.014   0.973
25034W        W25898  15.945  28.190   2.049
25035W        W25899  15.522  26.391   0.085
25036W        W25900  16.347  26.772   2.434
25037W        W25901  17.169  25.635   2.167
25038W        W25902  14.512  27.586   2.257
25039W        W25903  16.319  27.171   0.189
25040W        W25904  15.645  25.937   0.307
25041W        W25905  16.413  26.824   1.123
25042W        W25906  17.089  25.839   2.640
25043W        W25907  15.966  27.739   2.976
25044W        W25908  16.813  27.463   3.301
25045W        W25909  17.266  27.575   3.087
25046W        W25910  16.485  25.694   3.570
25047W        W25911  15.660  26.465   1.800
25048W        W25912  15.270  26.247   1.413
25049W        W25913  14.940  28.812   1.054
25050W        W25914  16.534  28.388   3.184
25051W        W25915  15.261  27.729   0.553
25052W        W25916  17.095  27.281   1.773
25053W        W25917  17.176  26.843   2.080
25054W        W25918  16.563  27.556   2.170
25055W        W25919  16.968  27.947   0.285
25056W        W25920  16.701  26.059   1.541
25057W        W25921  18.207  26.506   0.776
25058W        W25922  14.920  28.865   2.921
25059W        W25923  15.007  28.057   2.458
25060W        W25924  14.542  28.916   0.735
25061W        W25925  16.368  26.249   2.442
25062W        W25926  16.017  28.160   0.484
25063W        W25927  17.698  28.662   0.562
25064W        W25928  16.546  27.124   0.670
25065W        W25929  15.568  26.532   1.098
25066W        W25930  16.629  26.341   0.248
25067W        W25931  16.942  27.973   3.200
25068W        W25932  17.446  26.017   0.821
25069W        W25933  14.762  25.669   0.370
25070W        W25934  15.970  28.048   2.552
25071W        W25935  15.675  27.767   1.815
25072W        W25936  15.658  27.693   0.206
25073W        W25937  14.722  28.399   0.774
25074W        W25938  15.350  27.029   3.071
25075W        W25939  15.963  25.769   3.345
25076W        W25940  16.592  25.896   2.732
25077W        W25941  15.931  25.712   1.169
25078W        W25942  16.776  25.549   0.768
25079W        W25943  14.929  25.740   2.119
25080W        W25944  14.900  26.631   1.335
25081W        W25945  17.650  25.673   1.973
25082W        W25946  15.111  26.336   0.918
25083W        W25947  17.503  25.976   2.375
25084W        W25948  18.018  27.219   0.203
25085W        W25949  15.291  26.068   1.903
25086W        W25950  16.491  26.466   2.900
25087W        W25951  14.667  26.174   0.322
25088W        W25952  15.276  27.547   2.866
25089W        W25953  16.677  27.020   2.005
25090W        W25954  16.501  28.889   0.340
25091W        W25955  14.758  27.518   0.274
25092W        W25956  15.544  27.921   3.229
25093W        W25957  14.946  27.149   2.766
25094W        W25958  16.044  27.271   2.578
25095W        W25959  17.581  25.668   2.807
25096W        W25960  18.214  27.329   2.953
25097W        W25961  18.069  27.446   0.674
25098W        W25962  16.884  27.708   0.805
25099W        W25963  17.566   0.041   0.001
25100W        W25964  16.704  27.148   3.698
25101W        W25965  15.178  28.123   3.544
25102W        W25966  18.233  26.025   3.341
25103W        W25967  17.905  26.859   2.118
25104W        W25968  16.223  28.894   3.621
25105W        W25969  16.105  25.707   0.338
25106W        W25970  17.564  28.180   0.405
25107W        W25971  15.527  26.303   3.044
25108W        W25972  15.863  28.270   3.002
25109W        W25973  17.896  26.157   2.700
25110W        W25974  17.378   0.091   0.494
25111W        W25975  17.378  27.625   2.061
25112W        W25976  15.638  26.074   2.595
25113W        W25977  16.171  27.069   3.439
25114W        W25978  15.496  28.049   0.918
25115W        W25979  17.332  27.845   1.055
25116W        W25980  15.149  26.228   2.701
25117W        W25981  16.357  28.421   1.307
25118W        W25982  18.108  27.000   1.631
25119W        W25983  16.352  25.590   3.073
25120W        W25984  17.320  28.147   2.063
25121W        W25985  17.564  28.625   1.996
25122W        W25986  16.775  28.498   0.540
25123W        W25987  14.693  28.212   3.370
25124W        W25988  15.406  26.439   2.263
25125W        W25989  15.498  25.787   1.484
25126W        W25990  17.182  26.311   2.151
25127W        W25991  16.164  27.662   0.354
25128W        W25992  17.894  27.689   2.045
25129W        W25993  15.159  28.457   3.158
25130W        W25994  17.651   0.019   0.940
25131W        W25995  15.838  26.178   1.394
25132W        W25996  15.284  27.397   1.847
25133W        W25997  15.729  28.961   2.461
25134W        W25998  17.937   0.075   3.157
25135W        W25999  16.996  27.324   2.292
25136W        W26000  14.959  27.042   0.413
25137W        W26001  17.924  28.661   1.199
25138W        W26002  17.890  26.149   0.559
25139W        W26003  15.741  25.551   2.753
25140W        W26004  17.657  28.380   1.550
25141W        W26005  17.670  27.051   1.343
25142W        W26006  15.974  26.685   1.398
25143W        W26007  16.210  26.902   2.913
25144W        W26008  17.229  28.014   2.783
25145W        W26009  15.974  26.478   2.720
25146W        W26010  15.724  28.842   1.547
25147W        W26011  15.249  28.970   3.313
25148W        W26012  15.511  28.169   0.386
25149W        W26013  17.762  27.939   1.315
25150W        W26014  15.486  26.677   2.709
25151W        W26015  18.282  26.959   0.541
25152W        W26016  15.809  27.712   0.714
25153W        W26017  17.007  27.156   2.910
25154W        W26018  16.867  26.826   2.491
25155W        W26019  15.416  27.154   2.536
25156W        W26020  17.548  28.921   2.415
25157W        W26021  17.313  25.776   3.278
25158W        W26022  14.983  25.766   3.008
25159W        W26023  15.373  26.918   2.052
25160W        W26024  15.813  26.828   0.559
25161W        W26025  14.724  28.348   2.840
25162W        W26026  16.200  27.181   2.101
25163W        W26027  16.100  26.244   0.285
25164W        W26028  15.201  27.042   1.131
25165W        W26029  14.720   0.002   2.465
25166W        W26030  17.603  27.284   0.521
25167W        W26031  17.761  25.991   3.189
25168W        W26032  17.108  28.340   1.207
25169W        W26033  14.844  27.004   3.261
25170W        W26034  17.816  25.648   0.557
25171W        W26035  17.139  28.182   0.714
25172W        W26036  16.047  27.258   0.667
25173W        W26037  17.480  25.949   0.262
25174W        W26038  17.319  26.562   2.580
25175W        W26039  14.951  27.037   1.676
25176W        W26040  15.374  27.892   1.405
25177W        W26041  17.284  26.703   1.266
25178W        W26042  16.324  26.166   1.936
25179W        W26043  18.140  28.093   2.505
25180W        W26044  18.096  26.121   2.112
25181W        W26045  14.680  28.690   1.485
25182W        W26046  15.018  27.862   1.002
25183W        W26047  15.037  25.810   3.695
25184W        W26048  16.070  28.408   3.707
25185W        W26049  17.980  27.505   1.543
25186W        W26050  17.347  27.719   0.544
25187W        W26051  16.724   0.098   2.415
25188W        W26052  17.516  27.766   3.493
25189W        W26053  16.230  25.495   0.788
25190W        W26054  17.035  26.485   1.688
25191W        W26055  14.687  28.016   2.033
25192W        W26056  16.028  26.013   0.755
25193W        W26057  15.847  27.549   3.479
25194W        W26058  16.802  26.473   1.225
25195W        W26059  16.969  27.870   2.356
25196W        W26060  15.184  28.501   2.659
25197W        W26061  15.610  28.450   3.440
25198W        W26062  15.606  26.358   0.597
25199W        W26063  17.135  26.430   0.835
25200W        W26064  17.022  28.468   2.956
25201W        W26065  15.822  26.994   1.790
25202W        W26066  15.215  28.921   2.377
25203W        W26067  18.008  28.865   0.193
25204W        W26068  14.822  27.520   3.186
25205W        W26069  16.922  27.790   1.856
25206W        W26070  15.428  27.526   1.019
25207W        W26071  15.678  28.456   2.499
25208W        W26072  16.207  25.828   1.583
25209W        W26073  14.643  27.885   0.638
25210W        W26074  16.317  26.718   0.445
25211W        W26075  15.045  27.461   1.369
25212W        W26076  16.089  25.955   2.812
25213W        W26077  17.955  25.828   0.098
25214W        W26078  17.947  27.527   3.341
25215W        W26079  16.700  28.854   3.422
25216W        W26080  18.220  27.861   2.998
25217W        W26081  17.727  28.630   3.376
25218W        W26082  15.335   0.003   1.891
25219W        W26083  18.189  27.762   1.102
25220W        W26084  16.817  26.936   1.486
25221W        W26085  16.488  25.703   1.188
25222W        W26086  15.614  28.396   1.273
25223W        W26087  15.907  26.318   2.231
25224W        W26088  15.844  25.449   1.652
25225W        W26089  14.925  28.729   0.445
25226W        W26090  16.380  27.799   1.323
25227W        W26091  15.578  28.706   2.961
25228W        W26092  14.979  27.377   0.813
25229W        W26093  14.780  26.137   1.772
25230W        W26094  16.385  27.886   1.826
25231W        W26095  14.712  25.861   0.826
25232W        W26096  17.344  27.054   2.546
25233W        W26097  17.369  26.449   0.363
25234W        W26098  17.831  28.183   2.023
25235W        W26099  16.355  28.388   1.819
25236W        W26100  15.751  28.487   0.777
25237W        W26101  17.052  25.640   0.128
25238W        W26102  14.864  28.806   1.962
25239W        W26103  16.848  26.494   3.433
25240W        W26104  15.121  26.153   3.321
25241W        W26105  14.848  26.792   0.842
25242W        W26106  15.333  26.784   0.713
25243W        W26107  17.097  26.949   3.412
25244W        W26108  15.696  27.338   2.142
25245W        W26109  17.008  25.677   1.326
25246W        W26110  16.213  28.870   1.706
25247W        W26111  17.282  28.431   2.493
25248W        W26112  17.157  28.499   1.701
25249W        W26113  16.917  27.723   1.336
25250W        W26114  16.504  25.938   0.559
25251W        W26115  18.184  25.647   1.300
25252W        W26116  15.821  27.207   0.190
25253W        W26117  18.050  26.692   1.232
25254W        W26118  16.656  27.533   0.369
25255W        W26119  17.696  27.822   2.957
25256W        W26120  17.221  28.627   0.320
25257W        W26121  16.005  26.272   3.200
25258W        W26122  15.822  26.843   2.326
25259W        W26123  17.898  28.306   2.915
25260W        W26124  16.946  26.137   3.054
25261W        W26125  14.608  26.730   2.881
25262W        W26126  16.563  27.226   2.580
25263W        W26127  14.863  27.913   1.498
25264W        W26128  14.949  27.180   2.203
25265W        W26129  17.347  27.563   2.582
25266W        W26130  17.188  28.913   3.192
25267W        W26131  16.982  26.642   2.965
25268W        W26132  17.404  28.760   1.315
25269W        W26133  16.289  28.435   2.721
25270W        W26134  15.694  28.665   2.026
25271W        W26135  17.633  27.967   2.449
25272W        W26136  16.555  28.049   3.595
25273W        W26137  15.170  27.897   1.908
25274W        W26138  17.450  27.541   1.492
25275W        W26139  17.087  28.756   2.156
25276W        W26140  15.233  28.447   2.159
25277W        W26141  16.349  26.575   3.402
25278W        W26142  16.736  28.678   1.043
25279W        W26143  16.069  28.008   3.402
25280W        W26144  16.064  28.108   1.000
25281W        W26145  15.424  26.883   0.215
25282W        W26146  14.610   0.193   7.006
25283W        W26147  15.072  28.096   6.717
25284W        W26148  17.893  27.557   4.307
25285W        W26149  17.984  28.785   6.317
25286W        W26150  15.738  28.773   3.882
25287W        W26151  16.013  26.801   4.718
25288W        W26152  15.562  26.739   5.230
25289W        W26153  16.459  27.568   4.379
25290W        W26154  16.118  28.732   6.610
25291W        W26155  14.809  26.465   6.681
25292W        W26156  15.315  25.611   6.595
25293W        W26157  17.219  26.077   5.272
25294W        W26158  16.879  26.788   4.041
25295W        W26159  17.340  26.394   7.030
25296W        W26160  14.769  26.074   6.329
25297W        W26161  14.763  28.726   7.150
25298W        W26162  16.372  28.196   4.153
25299W        W26163  14.763  26.726   5.694
25300W        W26164  15.755  26.902   6.913
25301W        W26165  18.085  26.441   5.403
25302W        W26166  17.818  27.532   6.142
25303W        W26167  16.366  26.776   5.462
25304W        W26168  16.860  28.189   5.604
25305W        W26169  15.198  27.707   5.996
25306W        W26170  14.529  27.187   5.638
25307W        W26171  15.730  27.280   6.560
25308W        W26172  17.788  27.052   6.898
25309W        W26173  15.455  28.377   5.360
25310W        W26174  16.608  28.064   6.413
25311W        W26175  15.887  26.686   5.647
25312W        W26176  16.016  27.562   5.267
25313W        W26177  16.907  28.363   7.061
25314W        W26178  16.328  27.534   7.243
25315W        W26179  16.200  27.325   6.764
25316W        W26180  14.536  26.728   7.114
25317W        W26181  17.348  28.244   6.788
25318W        W26182  15.032  25.751   4.794
25319W        W26183  15.539  28.115   5.924
25320W        W26184  18.155  27.694   5.333
25321W        W26185  17.641  26.200   5.523
25322W        W26186  17.844  26.296   3.613
25323W        W26187  18.058  27.070   6.000
25324W        W26188  16.107  28.796   5.855
25325W        W26189  18.213  28.002   4.520
25326W        W26190  15.045  28.991   4.330
25327W        W26191  15.373  28.877   4.722
25328W        W26192  15.221  25.883   6.124
25329W        W26193  17.795  26.714   6.317
25330W        W26194  17.193  27.233   4.719
25331W        W26195  17.341  26.982   3.872
25332W        W26196  16.478  28.019   5.924
25333W        W26197  16.509  26.343   5.244
25334W        W26198  16.843  28.380   6.072
25335W        W26199  17.701  27.182   4.658
25336W        W26200  16.682  26.029   4.498
25337W        W26201  15.156  28.486   4.399
25338W        W26202  14.681  26.140   4.919
25339W        W26203  17.455  26.637   5.353
25340W        W26204  14.932  28.332   5.346
25341W        W26205  16.153  28.677   4.166
25342W        W26206  17.599  26.734   3.512
25343W        W26207  14.722  28.538   6.050
25344W        W26208  15.549  28.136   6.446
25345W        W26209  15.762  27.636   4.780
25346W        W26210  15.704  25.967   5.890
25347W        W26211  18.235  25.608   5.353
25348W        W26212  15.337  27.462   3.366
25349W        W26213  15.303  26.179   3.932
25350W        W26214  15.175  28.345   4.891
25351W        W26215  16.008  28.043   4.989
25352W        W26216  17.480  28.781   6.536
25353W        W26217  16.545  26.535   4.370
25354W        W26218  17.793   0.018   5.279
25355W        W26219  17.365  26.804   6.730
25356W        W26220  18.184  28.124   5.049
25357W        W26221  16.816  27.592   6.400
25358W        W26222  14.388  27.256   4.710
25359W        W26223  15.716  27.694   6.190
25360W        W26224  16.871  26.870   4.566
25361W        W26225  16.671  27.289   4.757
25362W        W26226  15.130  26.778   6.107
25363W        W26227  14.985  26.907   6.907
25364W        W26228  14.975  25.676   5.308
25365W        W26229  16.793  26.009   5.549
25366W        W26230  16.576  26.197   6.836
25367W        W26231  16.989  25.950   4.069
25368W        W26232  18.069  28.659   6.823
25369W        W26233  16.818  25.713   6.896
25370W        W26234  17.825  28.137   6.979
25371W        W26235  17.476  26.327   6.475
25372W        W26236  17.197  26.118   4.752
25373W        W26237  17.489  27.341   7.234
25374W        W26238  15.169  28.772   5.187
25375W        W26239  16.164  26.343   4.112
25376W        W26240  15.477  25.983   6.945
25377W        W26241  17.544  26.400   4.500
25378W        W26242  17.995  26.621   4.456
25379W        W26243  15.583  28.942   7.068
25380W        W26244  15.721  25.583   4.308
25381W        W26245  17.989  25.996   5.149
25382W        W26246  18.095  28.431   3.694
25383W        W26247  14.849  27.572   5.472
25384W        W26248  16.926  25.997   3.554
25385W        W26249  18.067  28.357   5.501
25386W        W26250  18.079  25.822   6.129
25387W        W26251  16.543  26.921   6.845
25388W        W26252  16.515  28.088   4.650
25389W        W26253  16.964  27.569   7.287
25390W        W26254  16.696  25.545   5.220
25391W        W26255  15.197  26.510   5.512
25392W        W26256  14.863  27.738   6.394
25393W        W26257  16.779  28.636   5.293
25394W        W26258  18.080  26.430   5.971
25395W        W26259  16.643  28.893   6.497
25396W        W26260  17.995  27.818   3.813
25397W        W26261  16.165  27.295   4.820
25398W        W26262  18.209  25.788   6.615
25399W        W26263  16.296  27.646   6.376
25400W        W26264  16.668  26.482   5.752
25401W        W26265  17.338  26.851   4.370
25402W        W26266  17.625  26.560   4.012
25403W        W26267  17.743  28.117   4.770
25404W        W26268  17.183  27.849   5.415
25405W        W26269  17.383  27.349   4.236
25406W        W26270  16.480  27.262   5.239
25407W        W26271  17.457  27.103   5.152
25408W        W26272  14.973  26.313   5.925
25409W        W26273  17.584  27.170   6.444
25410W        W26274  18.032  28.818   5.730
25411W        W26275  15.977  28.440   5.354
25412W        W26276  17.082  28.888   6.188
25413W        W26277  16.925  26.301   6.192
25414W        W26278  16.234   0.107   6.255
25415W        W26279  17.874  26.028   4.641
25416W        W26280  17.525  27.132   5.926
25417W        W26281  14.635  26.604   6.199
25418W        W26282  17.612  26.298   5.004
25419W        W26283  17.802  26.544   6.817
25420W        W26284  16.775  28.066   5.122
25421W        W26285  16.074  28.811   4.881
25422W        W26286  15.139  25.766   4.232
25423W        W26287  16.414  25.668   5.638
25424W        W26288  15.233  28.919   3.859
25425W        W26289  15.968  27.363   4.357
25426W        W26290  16.365  27.876   6.832
25427W        W26291  16.300  26.304   4.770
25428W        W26292  17.534  25.780   4.981
25429W        W26293  17.276  28.898   5.275
25430W        W26294  16.636  28.859   5.932
25431W        W26295  16.077  27.722   5.821
25432W        W26296  17.828  28.404   5.976
25433W        W26297  15.494  25.927   4.628
25434W        W26298  16.021  28.264   5.829
25435W        W26299  15.632  26.129   3.531
25436W        W26300  16.283  26.835   5.987
25437W        W26301  17.288  25.842   5.744
25438W        W26302  14.679  27.589   5.954
25439W        W26303  16.276  27.287   3.950
25440W        W26304  15.545  25.630   3.677
25441W        W26305  16.471  26.823   4.943
25442W        W26306  17.237  25.890   6.259
25443W        W26307  15.875  27.758   6.685
25444W        W26308  16.692  27.421   6.869
25445W        W26309  17.232  27.484   6.790
25446W        W26310  16.497  25.899   7.294
25447W        W26311  15.654  26.250   5.441
25448W        W26312  15.168  26.168   5.110
25449W        W26313  14.856  28.738   4.749
25450W        W26314  16.501  28.428   6.743
25451W        W26315  15.656  27.751   4.189
25452W        W26316  17.142  27.332   5.509
25453W        W26317  17.140  26.846   5.713
25454W        W26318  16.534  27.486   5.957
25455W        W26319  17.078  27.952   3.700
25456W        W26320  16.783  25.983   5.008
25457W        W26321  18.356  26.260   4.348
25458W        W26322  14.699  28.879   6.618
25459W        W26323  15.069  28.172   6.209
25460W        W26324  14.528  28.920   4.403
25461W        W26325  16.477  26.059   5.992
25462W        W26326  15.858  28.230   4.135
25463W        W26327  17.774  28.822   3.906
25464W        W26328  16.865  27.268   4.230
25465W        W26329  15.833  26.341   4.514
25466W        W26330  16.649  26.322   3.887
25467W        W26331  16.909  27.898   6.840
25468W        W26332  17.437  25.915   4.349
25469W        W26333  14.624  25.639   3.978
25470W        W26334  16.062  28.079   6.297
25471W        W26335  15.777  27.973   5.476
25472W        W26336  15.667  28.005   3.721
25473W        W26337  14.510  28.402   4.425
25474W        W26338  15.351  27.275   6.931
25475W        W26339  15.985  25.959   7.187
25476W        W26340  16.701  25.877   6.427
25477W        W26341  15.921  25.608   4.814
25478W        W26342  16.746  25.536   4.269
25479W        W26343  14.776  25.848   5.857
25480W        W26344  14.827  26.583   5.155
25481W        W26345  17.710  25.697   5.491
25482W        W26346  15.019  26.193   4.521
25483W        W26347  17.658  26.118   6.032
25484W        W26348  18.030  27.002   3.703
25485W        W26349  15.246  25.983   5.616
25486W        W26350  16.454  26.482   6.355
25487W        W26351  14.789  26.124   4.044
25488W        W26352  15.352  27.654   6.553
25489W        W26353  16.693  27.089   5.673
25490W        W26354  16.550  28.995   4.060
25491W        W26355  14.558  27.786   3.635
25492W        W26356  15.528  28.044   6.950
25493W        W26357  14.980  27.222   6.447
25494W        W26358  16.035  27.278   6.147
25495W        W26359  17.696  25.806   6.472
25496W        W26360  18.089  27.352   6.554
25497W        W26361  18.243  27.222   4.144
25498W        W26362  16.957  27.681   4.561
25499W        W26363  17.568   0.122   3.496
25500W        W26364  16.653  27.133   7.369
25501W        W26365  15.091  28.010   7.248
25502W        W26366  18.183  26.162   6.974
25503W        W26367  17.864  26.901   5.505
25504W        W26368  16.086  28.839   7.142
25505W        W26369  16.048  25.601   3.848
25506W        W26370  17.565  28.247   3.713
25507W        W26371  15.332  26.494   6.860
25508W        W26372  15.989  28.256   6.773
25509W        W26373  18.001  26.235   6.452
25510W        W26374  17.377   0.142   4.009
25511W        W26375  17.424  27.647   5.809
25512W        W26376  15.648  25.976   6.420
25513W        W26377  16.164  27.039   7.202
25514W        W26378  15.576  28.110   4.563
25515W        W26379  17.496  27.657   4.630
25516W        W26380  15.225  26.333   6.384
25517W        W26381  16.381  28.415   5.044
25518W        W26382  18.275  26.849   5.166
25519W        W26383  16.308  25.727   6.821
25520W        W26384  17.372  28.180   5.745
25521W        W26385  17.597  28.604   5.562
25522W        W26386  16.562  28.534   3.800
25523W        W26387  14.681  28.240   7.033
25524W        W26388  15.493  26.434   5.935
25525W        W26389  15.466  25.758   5.151
25526W        W26390  17.183  26.337   5.745
25527W        W26391  16.125  27.804   3.915
25528W        W26392  17.802  27.409   5.586
25529W        W26393  15.226  28.492   7.033
25530W        W26394  17.756  28.992   4.745
25531W        W26395  15.842  26.086   4.979
25532W        W26396  15.312  27.495   5.210
25533W        W26397  15.716   0.033   6.109
25534W        W26398  17.780   0.077   6.834
25535W        W26399  17.020  27.274   6.015
25536W        W26400  14.946  26.475   3.687
25537W        W26401  18.102  28.538   4.750
25538W        W26402  17.872  26.126   4.125
25539W        W26403  15.978  25.556   6.436
25540W        W26404  17.661  28.091   5.288
25541W        W26405  17.812  26.762   4.951
25542W        W26406  16.033  26.517   5.167
25543W        W26407  16.097  26.868   6.505
25544W        W26408  17.121  28.029   6.381
25545W        W26409  15.713  26.493   6.478
25546W        W26410  15.705  28.860   5.251
25547W        W26411  15.116  28.983   6.893
25548W        W26412  15.386  28.409   3.937
25549W        W26413  17.980  27.663   4.835
25550W        W26414  15.381  26.897   6.542
25551W        W26415  18.151  26.575   3.958
25552W        W26416  16.072  27.882   4.464
25553W        W26417  17.007  27.115   6.513
25554W        W26418  16.787  26.817   6.122
25555W        W26419  15.419  27.262   6.150
25556W        W26420  17.577  28.881   6.007
25557W        W26421  17.330  25.701   6.824
25558W        W26422  14.969  25.980   6.814
25559W        W26423  15.426  26.952   5.702
25560W        W26424  15.905  26.579   3.662
25561W        W26425  14.670  28.374   6.533
25562W        W26426  16.176  27.233   5.659
25563W        W26427  16.180  26.116   3.660
25564W        W26428  15.629  27.159   4.898
25565W        W26429  14.724   0.046   6.133
25566W        W26430  17.788  27.012   4.176
25567W        W26431  17.688  26.055   6.909
25568W        W26432  17.254  27.985   4.930
25569W        W26433  14.638  27.261   7.130
25570W        W26434  17.761  25.611   4.088
25571W        W26435  17.489  27.807   4.017
25572W        W26436  16.401  27.035   4.399
25573W        W26437  17.447  25.980   3.802
25574W        W26438  17.610  26.613   5.848
25575W        W26439  14.997  27.059   5.362
25576W        W26440  15.487  27.970   5.054
25577W        W26441  17.271  26.686   4.864
25578W        W26442  16.162  26.208   5.594
25579W        W26443  18.106  28.005   6.164
25580W        W26444  18.080  26.006   5.668
25581W        W26445  14.640  28.746   5.208
25582W        W26446  14.881  28.056   4.567
25583W        W26447  15.073  25.933   7.339
25584W        W26448  16.272  28.364   7.194
25585W        W26449  17.956  27.244   5.112
25586W        W26450  17.713  27.385   3.826
25587W        W26451  16.838   0.343   5.963
25588W        W26452  17.381  27.847   7.115
25589W        W26453  16.222  25.424   4.314
25590W        W26454  16.965  26.533   5.312
25591W        W26455  14.822  28.042   5.765
25592W        W26456  16.130  25.919   4.460
25593W        W26457  15.825  27.430   7.096
25594W        W26458  16.804  26.447   4.821
25595W        W26459  16.960  27.810   5.941
25596W        W26460  15.135  28.611   6.495
25597W        W26461  15.746  28.432   7.212
25598W        W26462  15.788  26.010   4.025
25599W        W26463  17.047  26.400   4.345
25600W        W26464  16.978  28.503   6.550
25601W        W26465  15.999  27.028   5.223
25602W        W26466  15.211  28.876   6.034
25603W        W26467  18.151  28.934   3.593
25604W        W26468  14.945  27.614   6.883
25605W        W26469  16.692  27.673   5.499
25606W        W26470  15.236  27.681   4.698
25607W        W26471  15.818  28.533   6.224
25608W        W26472  16.298  25.892   5.125
25609W        W26473  14.522  27.955   4.159
25610W        W26474  16.382  26.774   3.883
25611W        W26475  14.823  27.397   4.976
25612W        W26476  16.183  26.037   6.425
25613W        W26477  17.906  25.794   3.645
25614W        W26478  17.882  27.557   6.991
25615W        W26479  16.607  28.816   7.090
25616W        W26480  18.154  27.875   6.664
25617W        W26481  17.601  28.618   7.017
25618W        W26482  15.350   0.058   5.574
25619W        W26483  18.393  27.508   4.572
25620W        W26484  16.933  27.015   5.130
25621W        W26485  16.476  25.590   4.741
25622W        W26486  15.679  28.471   4.911
25623W        W26487  16.012  26.383   6.063
25624W        W26488  15.912  25.780   5.426
25625W        W26489  14.779  28.625   4.050
25626W        W26490  16.433  27.708   4.985
25627W        W26491  15.613  28.602   6.696
25628W        W26492  14.723  27.568   4.467
25629W        W26493  14.762  26.165   5.453
25630W        W26494  16.308  28.020   5.419
25631W        W26495  14.619  25.850   4.466
25632W        W26496  17.279  26.755   6.222
25633W        W26497  17.168  26.416   3.832
25634W        W26498  17.862  27.922   5.722
25635W        W26499  16.448  28.469   5.653
25636W        W26500  15.664  28.618   4.391
25637W        W26501  16.947  25.511   3.743
25638W        W26502  14.867  28.847   5.645
25639W        W26503  16.859  26.608   7.134
25640W        W26504  14.947  26.427   7.192
25641W        W26505  14.699  26.822   4.690
25642W        W26506  15.973  26.830   4.190
25643W        W26507  17.049  27.080   7.046
25644W        W26508  15.596  27.515   5.693
25645W        W26509  17.017  25.617   4.725
25646W        W26510  16.285  28.863   5.368
25647W        W26511  17.350  28.446   6.179
25648W        W26512  17.223  28.369   5.279
25649W        W26513  16.968  27.551   5.069
25650W        W26514  16.439  25.879   4.051
25651W        W26515  18.183  25.634   4.828
25652W        W26516  15.653  27.060   3.520
25653W        W26517  18.215  26.400   4.887
25654W        W26518  16.685  27.640   3.903
25655W        W26519  17.619  27.811   6.633
25656W        W26520  17.307  28.721   3.679
25657W        W26521  15.829  26.388   6.966
25658W        W26522  15.738  26.857   6.120
25659W        W26523  17.787  28.331   6.501
25660W        W26524  17.065  26.126   6.689
25661W        W26525  14.545  26.904   6.624
25662W        W26526  16.507  27.166   6.372
25663W        W26527  14.960  27.897   5.077
25664W        W26528  14.994  27.208   5.864
25665W        W26529  17.315  27.567   6.294
25666W        W26530  17.123  28.832   6.921
25667W        W26531  16.900  26.611   6.609
25668W        W26532  17.689  28.559   5.062
25669W        W26533  16.359  28.499   6.207
25670W        W26534  15.634  28.651   5.747
25671W        W26535  17.587  27.989   6.162
25672W        W26536  16.603  27.976   7.271
25673W        W26537  15.254  27.923   5.520
25674W        W26538  17.560  27.603   5.153
25675W        W26539  17.102  28.653   5.718
25676W        W26540  15.163  28.437   5.781
25677W        W26541  16.310  26.523   7.141
25678W        W26542  16.492  28.661   4.574
25679W        W26543  15.983  27.938   7.196
25680W        W26544  16.072  28.373   4.592
25681W        W26545  15.400  26.596   3.454
25682W        W26546  14.720   0.097  10.677
25683W        W26547  15.111  28.130  10.334
25684W        W26548  17.741  27.699   8.016
25685W        W26549  17.987  28.806  10.024
25686W        W26550  15.674  28.813   7.546
25687W        W26551  15.854  26.877   8.409
25688W        W26552  15.498  26.688   8.767
25689W        W26553  16.321  27.502   8.140
25690W        W26554  16.163  28.737  10.438
25691W        W26555  14.732  26.404  10.284
25692W        W26556  15.316  25.617  10.143
25693W        W26557  17.258  26.094   9.046
25694W        W26558  16.837  26.776   7.717
25695W        W26559  17.298  26.408  10.555
25696W        W26560  14.768  26.000   9.915
25697W        W26561  14.854  28.590  10.722
25698W        W26562  16.253  28.095   7.661
25699W        W26563  14.694  26.670   9.324
25700W        W26564  15.598  26.883  10.544
25701W        W26565  18.032  26.666   8.925
25702W        W26566  17.885  27.589   9.864
25703W        W26567  16.224  27.012   9.073
25704W        W26568  16.842  28.279   9.212
25705W        W26569  15.179  27.686   9.590
25706W        W26570  14.620  27.142   9.108
25707W        W26571  15.638  27.273  10.203
25708W        W26572  17.830  27.039  10.527
25709W        W26573  15.449  28.389   8.940
25710W        W26574  16.617  28.103  10.052
25711W        W26575  15.911  26.651   9.336
25712W        W26576  16.084  27.537   8.999
25713W        W26577  16.969  28.328  10.785
25714W        W26578  16.250  27.537  10.815
25715W        W26579  16.165  27.382  10.332
25716W        W26580  14.509  26.692  10.823
25717W        W26581  17.368  28.259  10.434
25718W        W26582  15.051  25.799   8.459
25719W        W26583  15.630  28.190   9.499
25720W        W26584  18.131  27.979   8.913
25721W        W26585  17.716  26.340   9.204
25722W        W26586  17.805  26.388   7.314
25723W        W26587  18.150  27.148   9.757
25724W        W26588  16.151  28.891   9.487
25725W        W26589  17.753  28.176   7.817
25726W        W26590  14.938  28.920   7.932
25727W        W26591  15.329  28.833   8.347
25728W        W26592  15.239  25.847   9.687
25729W        W26593  17.743  26.850   9.937
25730W        W26594  17.168  27.154   8.460
25731W        W26595  17.149  27.160   7.576
25732W        W26596  16.495  28.087   9.551
25733W        W26597  16.357  26.240   8.838
25734W        W26598  16.920  28.328   9.720
25735W        W26599  17.638  27.276   8.315
25736W        W26600  16.385  25.930   8.443
25737W        W26601  15.083  28.446   8.026
25738W        W26602  14.711  26.179   8.525
25739W        W26603  17.309  26.615   9.027
25740W        W26604  14.916  28.328   8.994
25741W        W26605  16.146  28.616   7.635
25742W        W26606  17.451  26.829   7.257
25743W        W26607  14.749  28.506   9.667
25744W        W26608  15.587  28.192  10.057
25745W        W26609  15.766  27.545   8.533
25746W        W26610  15.718  25.948   9.472
25747W        W26611  18.182  25.690   9.088
25748W        W26612  15.062  27.461   7.368
25749W        W26613  15.051  26.358   7.688
25750W        W26614  15.133  28.344   8.521
25751W        W26615  15.997  28.032   8.558
25752W        W26616  17.539  28.739  10.279
25753W        W26617  16.496  26.472   7.983
25754W        W26618  17.787  28.952   8.856
25755W        W26619  17.354  26.896  10.329
25756W        W26620  18.243  28.306   8.549
25757W        W26621  16.811  27.632  10.044
25758W        W26622  14.511  27.350   8.177
25759W        W26623  15.666  27.749   9.758
25760W        W26624  16.801  26.819   8.231
25761W        W26625  16.662  27.255   8.438
25762W        W26626  15.093  26.740   9.658
25763W        W26627  14.927  26.820  10.531
25764W        W26628  15.014  25.633   8.970
25765W        W26629  16.683  26.103   9.242
25766W        W26630  16.512  26.194  10.468
25767W        W26631  16.975  25.988   7.703
25768W        W26632  18.038  28.582  10.520
25769W        W26633  16.804  25.743  10.465
25770W        W26634  17.815  28.084  10.639
25771W        W26635  17.336  26.482  10.020
25772W        W26636  17.244  26.116   8.461
25773W        W26637  17.435  27.344  10.853
25774W        W26638  15.110  28.772   8.811
25775W        W26639  15.965  26.611   7.939
25776W        W26640  15.539  25.966  10.471
25777W        W26641  17.552  26.469   8.197
25778W        W26642  17.881  26.871   8.104
25779W        W26643  15.703  28.976  10.702
25780W        W26644  15.635  25.564   7.931
25781W        W26645  18.023  26.108   8.838
25782W        W26646  18.026  28.383   7.401
25783W        W26647  14.896  27.584   9.131
25784W        W26648  16.976  26.091   7.199
25785W        W26649  18.122  28.434   9.201
25786W        W26650  18.037  25.782   9.607
25787W        W26651  16.491  26.975  10.443
25788W        W26652  16.398  28.013   8.183
25789W        W26653  16.940  27.563  10.903
25790W        W26654  16.958  25.673   9.163
25791W        W26655  15.172  26.527   9.145
25792W        W26656  14.861  27.822   9.993
25793W        W26657  16.884  28.594   8.756
25794W        W26658  17.963  26.723   9.484
25795W        W26659  16.635  28.854  10.268
25796W        W26660  17.808  27.862   7.409
25797W        W26661  16.176  27.228   8.590
25798W        W26662  18.082  25.870  10.106
25799W        W26663  16.328  27.699   9.894
25800W        W26664  16.432  26.574   9.220
25801W        W26665  17.280  26.892   8.030
25802W        W26666  17.620  26.665   7.712
25803W        W26667  17.486  28.489   8.115
25804W        W26668  17.142  27.910   9.041
25805W        W26669  17.222  27.429   8.031
25806W        W26670  16.577  27.329   8.936
25807W        W26671  17.446  27.388   8.843
25808W        W26672  14.956  26.261   9.519
25809W        W26673  17.611  27.300  10.166
25810W        W26674  18.055  28.870   9.453
25811W        W26675  15.960  28.442   8.880
25812W        W26676  16.980  28.836   9.867
25813W        W26677  16.998  26.077   9.685
25814W        W26678  16.239   0.034   9.983
25815W        W26679  17.801  26.020   8.354
25816W        W26680  17.666  27.217   9.562
25817W        W26681  14.600  26.493   9.794
25818W        W26682  17.606  26.356   8.708
25819W        W26683  17.746  26.567  10.365
25820W        W26684  16.763  28.080   8.730
25821W        W26685  16.040  28.772   8.481
25822W        W26686  15.191  25.880   7.857
25823W        W26687  16.376  25.733   9.476
25824W        W26688  15.164  28.911   7.442
25825W        W26689  15.864  27.282   8.064
25826W        W26690  16.355  27.856  10.404
25827W        W26691  16.200  26.483   8.389
25828W        W26692  17.769  25.643   8.740
25829W        W26693  17.284  28.950   9.004
25830W        W26694  16.603  28.658   9.516
25831W        W26695  16.070  27.806   9.435
25832W        W26696  17.839  28.446   9.664
25833W        W26697  15.504  25.956   8.263
25834W        W26698  16.107  28.374   9.380
25835W        W26699  15.451  26.322   7.340
25836W        W26700  16.261  26.854   9.647
25837W        W26701  17.306  25.676   9.546
25838W        W26702  14.674  27.559   9.605
25839W        W26703  16.259  27.243   7.695
25840W        W26704  15.559  25.813   7.449
25841W        W26705  16.495  26.806   8.675
25842W        W26706  17.133  25.720  10.053
25843W        W26707  15.881  27.779  10.210
25844W        W26708  16.659  27.453  10.500
25845W        W26709  17.191  27.508  10.405
25846W        W26710  16.516  25.838  10.878
25847W        W26711  15.665  26.290   9.070
25848W        W26712  15.209  26.250   8.706
25849W        W26713  14.802  28.731   8.391
25850W        W26714  16.523  28.357  10.492
25851W        W26715  15.493  27.616   7.870
25852W        W26716  17.028  27.433   9.178
25853W        W26717  17.202  27.002   9.345
25854W        W26718  16.378  27.382   9.455
25855W        W26719  17.054  28.067   7.493
25856W        W26720  16.839  25.987   8.751
25857W        W26721  18.365  26.323   7.999
25858W        W26722  14.786  28.817  10.259
25859W        W26723  15.159  28.173   9.792
25860W        W26724  14.403  28.789   7.896
25861W        W26725  16.521  26.332   9.676
25862W        W26726  15.737  28.135   7.675
25863W        W26727  17.658  28.694   7.663
25864W        W26728  16.739  27.237   7.921
25865W        W26729  15.579  26.465   8.262
25866W        W26730  16.646  26.340   7.513
25867W        W26731  16.892  27.932  10.472
25868W        W26732  17.417  26.012   7.986
25869W        W26733  14.724  25.608   7.645
25870W        W26734  16.051  28.120   9.839
25871W        W26735  15.785  27.987   9.043
25872W        W26736  15.518  27.741   7.369
25873W        W26737  14.576  28.359   8.108
25874W        W26738  15.207  27.247  10.478
25875W        W26739  16.088  26.064  10.760
25876W        W26740  16.594  25.880   9.991
25877W        W26741  15.899  25.704   8.452
25878W        W26742  16.858  25.914   8.202
25879W        W26743  14.806  25.779   9.435
25880W        W26744  14.768  26.608   8.825
25881W        W26745  17.693  25.821   9.223
25882W        W26746  15.091  26.272   8.194
25883W        W26747  17.595  26.112   9.677
25884W        W26748  17.910  27.023   7.394
25885W        W26749  15.266  26.015   9.203
25886W        W26750  16.396  26.571  10.114
25887W        W26751  14.621  26.100   7.537
25888W        W26752  15.354  27.706  10.181
25889W        W26753  16.688  26.990   9.320
25890W        W26754  16.549  28.987   7.644
25891W        W26755  14.620  27.781   7.249
25892W        W26756  15.580  28.047  10.552
25893W        W26757  15.056  27.331   9.971
25894W        W26758  15.986  27.331   9.851
25895W        W26759  17.631  25.651   9.937
25896W        W26760  18.136  27.363  10.248
25897W        W26761  18.055  27.476   7.620
25898W        W26762  16.816  27.700   8.204
25899W        W26763  17.469   0.028   7.282
25900W        W26764  16.598  27.157  10.954
25901W        W26765  15.135  28.067  10.847
25902W        W26766  18.050  26.188  10.492
25903W        W26767  17.657  26.977   9.102
25904W        W26768  16.189  28.919  10.915
25905W        W26769  16.035  25.761   7.674
25906W        W26770  17.507  28.275   7.375
25907W        W26771  15.244  26.415  10.496
25908W        W26772  16.030  28.258  10.335
25909W        W26773  17.981  26.378   9.933
25910W        W26774  17.257   0.027   7.755
25911W        W26775  17.460  27.670   9.373
25912W        W26776  15.608  26.056   9.965
25913W        W26777  16.049  27.077  10.725
25914W        W26778  15.443  28.075   8.132
25915W        W26779  17.396  27.710   8.436
25916W        W26780  15.168  26.340   9.991
25917W        W26781  16.381  28.396   8.549
25918W        W26782  17.979  27.182   8.737
25919W        W26783  16.294  25.715  10.390
25920W        W26784  17.341  28.203   9.426
25921W        W26785  17.632  28.658   9.257
25922W        W26786  16.656  28.467   7.516
25923W        W26787  14.664  28.114  10.613
25924W        W26788  15.485  26.405   9.565
25925W        W26789  15.476  25.818   8.770
25926W        W26790  16.953  26.529   9.408
25927W        W26791  15.967  27.646   7.620
25928W        W26792  17.876  27.559   9.077
25929W        W26793  15.342  28.506  10.626
25930W        W26794  17.623  28.998   8.140
25931W        W26795  15.845  26.185   8.605
25932W        W26796  15.326  27.509   8.848
25933W        W26797  15.691   0.077   9.688
25934W        W26798  17.843   0.049  10.540
25935W        W26799  16.882  27.312   9.658
25936W        W26800  14.889  26.910   7.440
25937W        W26801  17.911  28.665   8.390
25938W        W26802  17.876  26.204   7.820
25939W        W26803  15.854  25.625  10.109
25940W        W26804  17.795  28.418   8.813
25941W        W26805  17.621  26.846   8.587
25942W        W26806  16.008  26.623   8.838
25943W        W26807  16.017  26.906  10.205
25944W        W26808  17.154  28.006  10.037
25945W        W26809  15.660  26.512  10.184
25946W        W26810  15.635  28.846   8.796
25947W        W26811  15.226  28.992  10.484
25948W        W26812  15.306  28.411   7.541
25949W        W26813  17.773  28.123   8.359
25950W        W26814  15.296  26.872  10.116
25951W        W26815  18.140  26.640   7.650
25952W        W26816  15.911  27.836   8.093
25953W        W26817  16.922  27.150  10.166
25954W        W26818  16.772  26.801   9.806
25955W        W26819  15.477  27.271   9.699
25956W        W26820  17.544  28.917   9.720
25957W        W26821  17.289  25.872  10.545
25958W        W26822  14.997  25.949  10.374
25959W        W26823  15.461  26.912   9.311
25960W        W26824  15.856  26.662   7.403
25961W        W26825  14.677  28.311  10.128
25962W        W26826  15.891  27.174   9.395
25963W        W26827  16.133  26.263   7.590
25964W        W26828  15.403  27.136   8.495
25965W        W26829  14.754   0.028   9.798
25966W        W26830  17.629  27.217   7.786
25967W        W26831  17.615  26.085  10.219
25968W        W26832  17.258  28.198   8.512
25969W        W26833  14.762  27.222  10.821
25970W        W26834  17.788  25.689   7.776
25971W        W26835  17.296  27.991   8.013
25972W        W26836  16.312  26.960   8.142
25973W        W26837  17.450  26.032   7.462
25974W        W26838  17.462  26.617   9.545
25975W        W26839  15.106  27.024   8.941
25976W        W26840  15.474  27.967   8.640
25977W        W26841  17.162  26.621   8.524
25978W        W26842  16.146  26.174   9.316
25979W        W26843  18.128  28.036   9.770
25980W        W26844  18.177  26.258   9.405
25981W        W26845  14.582  28.745   8.860
25982W        W26846  14.919  27.991   8.201
25983W        W26847  15.162  26.017  10.850
25984W        W26848  16.306  28.419  10.955
25985W        W26849  17.907  27.654   8.551
25986W        W26850  17.381  27.669   7.612
25987W        W26851  16.621   0.171   9.632
25988W        W26852  17.351  27.855  10.755
25989W        W26853  16.261  25.563   8.106
25990W        W26854  16.832  26.477   8.910
25991W        W26855  14.831  28.040   9.418
25992W        W26856  16.022  26.084   8.105
25993W        W26857  15.738  27.541  10.644
25994W        W26858  16.703  26.357   8.434
25995W        W26859  16.981  27.834   9.561
25996W        W26860  15.207  28.579  10.107
25997W        W26861  15.831  28.477  10.773
25998W        W26862  15.626  26.183   7.804
25999W        W26863  17.046  26.396   8.036
26000W        W26864  16.956  28.457  10.232
26001W        W26865  15.738  27.140   8.898
26002W        W26866  15.220  28.870   9.678
26003W        W26867  17.958  28.884   7.291
26004W        W26868  14.881  27.648  10.475
26005W        W26869  16.649  27.771   9.169
26006W        W26870  15.247  27.613   8.338
26007W        W26871  15.845  28.591   9.797
26008W        W26872  16.454  25.727   8.951
26009W        W26873  14.604  27.999   7.729
26010W        W26874  16.335  26.756   7.598
26011W        W26875  14.851  27.378   8.633
26012W        W26876  16.030  26.158  10.261
26013W        W26877  17.923  25.874   7.324
26014W        W26878  17.833  27.556  10.618
26015W        W26879  16.667  28.777  10.799
26016W        W26880  18.109  27.881  10.258
26017W        W26881  17.600  28.539  10.790
26018W        W26882  15.324   0.024   9.196
26019W        W26883  18.239  27.874   8.228
26020W        W26884  16.957  26.982   8.880
26021W        W26885  16.728  25.535   8.536
26022W        W26886  15.649  28.429   8.464
26023W        W26887  15.994  26.388   9.782
26024W        W26888  15.941  25.835   8.986
26025W        W26889  14.775  28.527   7.622
26026W        W26890  16.419  27.705   8.616
26027W        W26891  15.685  28.656  10.284
26028W        W26892  14.934  27.593   7.873
26029W        W26893  14.793  26.122   9.035
26030W        W26894  16.292  28.067   8.990
26031W        W26895  14.716  25.916   8.065
26032W        W26896  17.271  27.006   9.840
26033W        W26897  17.180  26.456   7.528
26034W        W26898  17.842  28.024   9.333
26035W        W26899  16.455  28.559   9.034
26036W        W26900  15.572  28.557   7.970
26037W        W26901  16.972  25.596   7.358
26038W        W26902  14.857  28.824   9.276
26039W        W26903  16.725  26.665  10.782
26040W        W26904  14.956  26.479  10.922
26041W        W26905  14.784  26.703   8.322
26042W        W26906  15.472  26.679   7.756
26043W        W26907  17.010  27.081  10.660
26044W        W26908  15.598  27.568   9.277
26045W        W26909  17.244  25.655   8.706
26046W        W26910  16.108  28.914   8.981
26047W        W26911  17.375  28.456   9.892
26048W        W26912  17.300  28.405   8.970
26049W        W26913  16.958  27.587   8.691
26050W        W26914  16.474  25.978   7.861
26051W        W26915  18.267  25.662   8.578
26052W        W26916  15.752  27.158   7.541
26053W        W26917  18.027  26.491   8.431
26054W        W26918  16.569  27.673   7.698
26055W        W26919  17.583  27.813  10.259
26056W        W26920  17.152  28.641   7.417
26057W        W26921  15.717  26.397  10.695
26058W        W26922  15.724  26.839   9.782
26059W        W26923  17.807  28.295  10.155
26060W        W26924  16.974  26.167  10.224
26061W        W26925  14.780  26.897  10.052
26062W        W26926  16.468  27.201   9.962
26063W        W26927  14.961  27.886   8.709
26064W        W26928  15.023  27.196   9.445
26065W        W26929  17.306  27.545   9.854
26066W        W26930  17.152  28.796  10.609
26067W        W26931  16.892  26.659  10.300
26068W        W26932  17.415  28.716   8.568
26069W        W26933  16.349  28.529   9.966
26070W        W26934  15.703  28.691   9.295
26071W        W26935  17.602  27.992   9.788
26072W        W26936  16.559  27.971  10.862
26073W        W26937  15.268  27.958   9.147
26074W        W26938  17.607  27.946   8.856
26075W        W26939  17.130  28.674   9.403
26076W        W26940  15.211  28.464   9.379
26077W        W26941  16.189  26.576  10.604
26078W        W26942  16.408  28.742   8.110
26079W        W26943  16.033  27.994  10.794
26080W        W26944  16.029  28.366   8.106
26081W        W26945  15.375  26.840   7.258
26082W        W26946  14.632   0.121  14.372
26083W        W26947  15.077  28.091  13.928
26084W        W26948  17.672  27.687  11.605
26085W        W26949  17.980  28.779  13.662
26086W        W26950  15.764  28.802  11.184
26087W        W26951  15.922  26.996  12.042
26088W        W26952  15.221  26.965  12.275
26089W        W26953  16.268  27.687  11.701
26090W        W26954  16.130  28.725  14.106
26091W        W26955  14.821  26.363  13.904
26092W        W26956  15.466  25.547  13.675
26093W        W26957  17.124  26.121  12.525
26094W        W26958  16.733  26.762  11.297
26095W        W26959  17.259  26.442  14.170
26096W        W26960  14.821  26.123  13.394
26097W        W26961  14.819  28.676  14.532
26098W        W26962  16.410  28.090  11.357
26099W        W26963  14.758  26.883  13.025
26100W        W26964  15.575  26.799  14.245
26101W        W26965  17.907  26.520  12.655
26102W        W26966  17.942  27.612  13.551
26103W        W26967  16.221  27.089  12.520
26104W        W26968  16.839  28.289  12.929
26105W        W26969  15.237  27.698  13.214
26106W        W26970  14.419  27.246  12.854
26107W        W26971  15.741  27.214  13.924
26108W        W26972  17.842  27.038  14.226
26109W        W26973  15.449  28.366  12.515
26110W        W26974  16.654  28.090  13.717
26111W        W26975  15.993  26.715  12.960
26112W        W26976  16.056  27.570  12.599
26113W        W26977  16.936  28.376  14.430
26114W        W26978  16.235  27.508  14.421
26115W        W26979  16.265  27.359  13.915
26116W        W26980  14.525  26.724  14.439
26117W        W26981  17.369  28.236  14.151
26118W        W26982  15.074  25.988  11.963
26119W        W26983  15.582  28.093  13.106
26120W        W26984  18.269  27.966  12.680
26121W        W26985  17.428  26.500  12.840
26122W        W26986  17.717  26.393  10.876
26123W        W26987  18.098  27.128  13.497
26124W        W26988  16.029  28.724  13.269
26125W        W26989  17.806  28.175  11.500
26126W        W26990  15.084   0.007  11.535
26127W        W26991  15.395  28.806  11.920
26128W        W26992  15.252  25.859  13.282
26129W        W26993  17.715  26.798  13.639
26130W        W26994  17.154  27.183  12.150
26131W        W26995  17.134  27.048  11.154
26132W        W26996  16.468  28.117  13.239
26133W        W26997  16.341  26.325  12.344
26134W        W26998  16.866  28.435  13.425
26135W        W26999  17.590  27.252  11.890
26136W        W27000  16.288  25.997  11.957
26137W        W27001  15.155  28.481  11.582
26138W        W27002  14.683  26.179  12.229
26139W        W27003  17.185  26.841  12.552
26140W        W27004  14.941  28.308  12.549
26141W        W27005  16.198  28.644  11.433
26142W        W27006  17.460  26.830  10.817
26143W        W27007  14.817  28.544  13.296
26144W        W27008  15.559  28.154  13.746
26145W        W27009  15.723  27.463  12.183
26146W        W27010  15.684  26.060  13.048
26147W        W27011  18.056  25.828  12.854
26148W        W27012  15.218  27.503  10.923
26149W        W27013  14.997  26.677  11.387
26150W        W27014  15.177  28.322  12.081
26151W        W27015  16.045  27.923  12.206
26152W        W27016  17.527  28.702  13.927
26153W        W27017  16.344  26.523  11.536
26154W        W27018  17.783  28.981  12.516
26155W        W27019  17.386  26.914  14.015
26156W        W27020  18.288  28.307  12.294
26157W        W27021  16.821  27.609  13.735
26158W        W27022  14.474  27.193  11.722
26159W        W27023  15.709  27.749  13.455
26160W        W27024  16.765  26.868  11.815
26161W        W27025  16.711  27.369  11.979
26162W        W27026  15.191  26.893  13.303
26163W        W27027  15.029  26.778  14.175
26164W        W27028  14.954  25.771  12.415
26165W        W27029  16.634  26.163  12.763
26166W        W27030  16.460  26.193  14.154
26167W        W27031  16.894  26.063  11.288
26168W        W27032  18.051  28.628  14.174
26169W        W27033  16.912  25.675  13.794
26170W        W27034  17.832  28.099  14.312
26171W        W27035  17.473  26.341  13.722
26172W        W27036  17.113  26.181  12.016
26173W        W27037  17.479  27.276  14.512
26174W        W27038  15.124  28.758  12.347
26175W        W27039  15.939  26.838  11.524
26176W        W27040  15.600  25.938  14.080
26177W        W27041  17.522  26.489  11.792
26178W        W27042  17.851  26.856  11.683
26179W        W27043  15.696  28.935  14.362
26180W        W27044  15.455  25.802  11.464
26181W        W27045  17.949  26.085  12.385
26182W        W27046  18.006  28.330  11.046
26183W        W27047  14.824  27.587  12.697
26184W        W27048  16.915  26.153  10.774
26185W        W27049  18.136  28.420  12.862
26186W        W27050  18.123  25.781  13.357
26187W        W27051  16.475  27.028  14.230
26188W        W27052  16.878  28.216  11.898
26189W        W27053  17.027  27.448  14.686
26190W        W27054  16.776  25.681  12.686
26191W        W27055  15.238  26.787  12.762
26192W        W27056  14.905  27.709  13.625
26193W        W27057  16.902  28.633  12.236
26194W        W27058  17.845  26.688  13.157
26195W        W27059  16.640  28.868  13.886
26196W        W27060  17.773  27.795  11.088
26197W        W27061  16.226  27.419  12.130
26198W        W27062  18.217  25.859  13.857
26199W        W27063  16.265  27.760  13.553
26200W        W27064  16.444  26.670  12.708
26201W        W27065  17.241  26.958  11.653
26202W        W27066  17.544  26.704  11.305
26203W        W27067  17.541  28.499  11.794
26204W        W27068  17.359  27.939  12.596
26205W        W27069  17.180  27.495  11.732
26206W        W27070  16.573  27.494  12.525
26207W        W27071  17.526  27.379  12.443
26208W        W27072  15.050  26.443  13.092
26209W        W27073  17.666  27.287  13.814
26210W        W27074  18.040  28.853  13.103
26211W        W27075  16.040  28.395  12.434
26212W        W27076  17.117  28.863  13.620
26213W        W27077  16.900  26.309  13.384
26214W        W27078  16.232   0.085  13.606
26215W        W27079  17.827  26.102  11.882
26216W        W27080  17.638  27.207  13.273
26217W        W27081  14.760  26.644  13.477
26218W        W27082  17.511  26.391  12.326
26219W        W27083  17.772  26.540  14.101
26220W        W27084  16.851  28.148  12.417
26221W        W27085  16.052  28.667  11.961
26222W        W27086  15.127  26.185  11.458
26223W        W27087  16.325  25.766  12.996
26224W        W27088  15.252  28.890  11.010
26225W        W27089  15.861  27.346  11.632
26226W        W27090  16.383  27.841  14.055
26227W        W27091  16.011  26.438  11.926
26228W        W27092  17.479  25.889  12.202
26229W        W27093  17.262  28.980  12.664
26230W        W27094  16.508  28.647  13.122
26231W        W27095  16.045  27.821  13.070
26232W        W27096  17.844  28.424  13.299
26233W        W27097  15.562  26.100  11.948
26234W        W27098  16.130  28.327  12.934
26235W        W27099  15.418  26.423  11.109
26236W        W27100  16.264  26.860  13.378
26237W        W27101  17.159  26.072  13.017
26238W        W27102  14.775  27.457  13.196
26239W        W27103  16.172  27.232  11.236
26240W        W27104  15.644  25.955  11.002
26241W        W27105  16.372  26.775  12.118
26242W        W27106  17.243  25.925  13.497
26243W        W27107  15.888  27.731  13.940
26244W        W27108  16.726  27.474  14.257
26245W        W27109  17.214  27.426  14.042
26246W        W27110  16.546  25.799  14.478
26247W        W27111  15.590  26.421  12.676
26248W        W27112  15.200  26.315  12.339
26249W        W27113  14.842  28.709  11.924
26250W        W27114  16.514  28.370  14.122
26251W        W27115  15.385  27.510  11.448
26252W        W27116  17.060  27.334  12.672
26253W        W27117  17.193  27.001  13.038
26254W        W27118  16.506  27.616  13.049
26255W        W27119  16.932  28.017  11.212
26256W        W27120  16.706  25.994  12.269
26257W        W27121  18.171  26.438  11.661
26258W        W27122  14.835  28.853  14.001
26259W        W27123  15.141  28.156  13.420
26260W        W27124  14.505  28.885  11.562
26261W        W27125  16.458  26.435  13.167
26262W        W27126  15.910  28.231  11.241
26263W        W27127  17.697  28.674  11.334
26264W        W27128  16.794  27.257  11.474
26265W        W27129  15.568  26.612  12.123
26266W        W27130  16.477  26.312  11.036
26267W        W27131  16.910  27.943  14.161
26268W        W27132  17.349  26.027  11.593
26269W        W27133  14.770  25.950  11.182
26270W        W27134  15.985  28.205  13.433
26271W        W27135  15.799  28.010  12.659
26272W        W27136  15.575  27.864  11.041
26273W        W27137  14.626  28.375  11.602
26274W        W27138  15.280  27.234  14.151
26275W        W27139  16.067  25.906  14.334
26276W        W27140  16.481  26.015  13.518
26277W        W27141  15.896  25.694  12.090
26278W        W27142  16.772  25.859  11.768
26279W        W27143  14.717  25.977  12.834
26280W        W27144  14.798  26.692  12.194
26281W        W27145  17.597  26.035  12.733
26282W        W27146  15.133  26.506  11.858
26283W        W27147  17.641  26.186  13.238
26284W        W27148  17.892  27.070  11.023
26285W        W27149  15.221  26.069  12.792
26286W        W27150  16.512  26.518  13.707
26287W        W27151  14.564  26.406  11.252
26288W        W27152  15.377  27.647  13.844
26289W        W27153  16.639  27.109  12.915
26290W        W27154  16.603  28.992  11.323
26291W        W27155  14.749  27.744  10.969
26292W        W27156  15.500  27.980  14.227
26293W        W27157  14.996  27.199  13.695
26294W        W27158  15.988  27.325  13.483
26295W        W27159  17.727  25.898  13.673
26296W        W27160  18.168  27.347  13.953
26297W        W27161  18.040  27.332  11.636
26298W        W27162  16.773  27.783  11.649
26299W        W27163  17.525   0.006  10.950
26300W        W27164  16.661  27.058  14.693
26301W        W27165  15.084  28.000  14.533
26302W        W27166  18.249  26.313  14.122
26303W        W27167  17.637  26.987  12.781
26304W        W27168  16.156  28.935  14.606
26305W        W27169  16.081  25.720  11.160
26306W        W27170  17.433  28.186  11.142
26307W        W27171  15.312  26.369  14.094
26308W        W27172  16.030  28.233  13.965
26309W        W27173  18.003  26.337  13.658
26310W        W27174  17.320   0.041  11.430
26311W        W27175  17.342  27.686  13.047
26312W        W27176  15.636  26.030  13.570
26313W        W27177  15.985  27.070  14.376
26314W        W27178  15.418  28.045  11.504
26315W        W27179  17.492  27.737  12.078
26316W        W27180  15.242  26.391  13.572
26317W        W27181  16.435  28.342  12.126
26318W        W27182  18.060  26.993  12.494
26319W        W27183  16.423  25.714  13.943
26320W        W27184  17.335  28.211  13.056
26321W        W27185  17.615  28.652  12.890
26322W        W27186  16.719  28.493  11.251
26323W        W27187  14.729  28.245  14.278
26324W        W27188  15.546  26.539  13.174
26325W        W27189  15.463  25.831  12.391
26326W        W27190  16.919  26.567  12.921
26327W        W27191  16.010  27.720  11.260
26328W        W27192  17.775  27.504  12.870
26329W        W27193  15.224  28.491  14.213
26330W        W27194  17.654   0.013  11.868
26331W        W27195  15.871  26.142  12.350
26332W        W27196  15.277  27.456  12.455
26333W        W27197  15.673   0.024  13.487
26334W        W27198  17.770   0.040  14.230
26335W        W27199  16.949  27.401  13.229
26336W        W27200  14.993  27.185  11.279
26337W        W27201  17.932  28.643  12.126
26338W        W27202  17.767  26.233  11.380
26339W        W27203  15.927  25.598  13.915
26340W        W27204  17.735  28.330  12.504
26341W        W27205  17.605  26.897  12.252
26342W        W27206  15.974  26.653  12.439
26343W        W27207  16.111  26.836  13.898
26344W        W27208  17.173  28.024  13.729
26345W        W27209  15.723  26.481  13.821
26346W        W27210  15.714  28.777  12.358
26347W        W27211  15.190  28.996  14.332
26348W        W27212  15.429  28.404  11.126
26349W        W27213  17.839  28.121  12.033
26350W        W27214  15.356  26.850  13.788
26351W        W27215  18.058  26.614  11.192
26352W        W27216  15.749  27.814  11.801
26353W        W27217  16.813  27.101  13.855
26354W        W27218  16.791  26.848  13.351
26355W        W27219  15.460  27.294  13.474
26356W        W27220  17.561  28.907  13.345
26357W        W27221  17.327  25.940  14.016
26358W        W27222  15.135  25.942  13.825
26359W        W27223  15.622  27.056  13.041
26360W        W27224  15.762  26.789  11.033
26361W        W27225  14.696  28.414  13.788
26362W        W27226  16.127  27.241  13.003
26363W        W27227  15.965  26.334  11.204
26364W        W27228  15.460  27.132  11.867
26365W        W27229  14.838   0.022  13.522
26366W        W27230  17.567  27.237  11.374
26367W        W27231  17.828  26.022  14.198
26368W        W27232  17.322  28.218  12.167
26369W        W27233  14.790  27.190  14.356
26370W        W27234  17.777  25.726  11.275
26371W        W27235  17.292  28.028  11.648
26372W        W27236  16.332  27.124  11.713
26373W        W27237  17.362  26.026  11.063
26374W        W27238  17.324  26.607  13.322
26375W        W27239  14.817  27.075  12.565
26376W        W27240  15.487  27.910  12.267
26377W        W27241  17.155  26.681  12.074
26378W        W27242  16.112  26.235  12.807
26379W        W27243  18.167  28.058  13.464
26380W        W27244  18.153  26.259  13.155
26381W        W27245  14.609  28.681  12.397
26382W        W27246  14.960  27.998  11.763
26383W        W27247  15.191  25.970  14.379
26384W        W27248  16.222  28.432  14.547
26385W        W27249  18.214  27.468  12.610
26386W        W27250  17.295  27.661  11.255
26387W        W27251  16.709   0.077  13.378
26388W        W27252  17.366  27.770  14.403
26389W        W27253  16.273  25.568  11.654
26390W        W27254  16.813  26.502  12.395
26391W        W27255  14.850  28.022  12.995
26392W        W27256  15.916  25.981  11.596
26393W        W27257  15.705  27.517  14.376
26394W        W27258  16.647  26.370  11.914
26395W        W27259  16.939  27.915  13.295
26396W        W27260  15.166  28.600  13.693
26397W        W27261  15.735  28.424  14.373
26398W        W27262  15.591  26.460  11.589
26399W        W27263  17.049  26.472  11.586
26400W        W27264  16.981  28.470  13.922
26401W        W27265  15.675  27.076  12.528
26402W        W27266  15.233  28.883  13.222
26403W        W27267  18.020  28.840  10.979
26404W        W27268  14.957  27.649  14.157
26405W        W27269  16.900  27.802  12.790
26406W        W27270  15.268  27.601  11.940
26407W        W27271  15.563  28.521  13.385
26408W        W27272  16.274  25.838  12.486
26409W        W27273  14.578  27.895  11.431
26410W        W27274  16.268  26.765  11.079
26411W        W27275  14.842  27.365  12.145
26412W        W27276  16.068  26.100  13.842
26413W        W27277  17.759  25.899  10.772
26414W        W27278  17.849  27.558  14.294
26415W        W27279  16.622  28.795  14.428
26416W        W27280  18.158  27.876  13.972
26417W        W27281  17.616  28.583  14.440
26418W        W27282  15.383  28.945  12.729
26419W        W27283  18.278  27.804  12.204
26420W        W27284  16.727  27.018  12.390
26421W        W27285  16.485  25.540  12.121
26422W        W27286  15.695  28.316  12.060
26423W        W27287  15.998  26.379  13.386
26424W        W27288  15.843  25.686  12.724
26425W        W27289  14.831  28.659  11.224
26426W        W27290  16.548  27.840  12.127
26427W        W27291  15.647  28.662  13.899
26428W        W27292  14.867  27.511  11.635
26429W        W27293  14.813  26.468  12.650
26430W        W27294  16.391  27.987  12.636
26431W        W27295  14.656  26.130  11.684
26432W        W27296  17.232  27.074  13.554
26433W        W27297  17.136  26.506  11.068
26434W        W27298  17.811  28.018  12.946
26435W        W27299  16.523  28.514  12.605
26436W        W27300  15.680  28.510  11.596
26437W        W27301  16.981  25.662  10.953
26438W        W27302  14.898  28.804  12.822
26439W        W27303  16.758  26.604  14.185
26440W        W27304  14.907  26.377  14.469
26441W        W27305  14.961  27.006  11.788
26442W        W27306  15.440  26.942  11.403
26443W        W27307  17.027  27.038  14.345
26444W        W27308  15.623  27.557  12.892
26445W        W27309  17.014  25.608  12.184
26446W        W27310  16.124  28.822  12.711
26447W        W27311  17.380  28.439  13.516
26448W        W27312  17.216  28.457  12.621
26449W        W27313  17.022  27.676  12.274
26450W        W27314  16.403  26.014  11.436
26451W        W27315  18.113  25.710  12.035
26452W        W27316  15.683  27.297  11.090
26453W        W27317  17.958  26.555  12.123
26454W        W27318  16.531  27.611  11.231
26455W        W27319  17.606  27.809  13.924
26456W        W27320  17.198  28.642  11.122
26457W        W27321  15.802  26.344  14.314
26458W        W27322  15.769  26.866  13.492
26459W        W27323  17.820  28.281  13.815
26460W        W27324  16.889  26.174  13.878
26461W        W27325  14.602  26.854  13.919
26462W        W27326  16.508  27.295  13.457
26463W        W27327  14.961  27.860  12.278
26464W        W27328  15.167  27.267  12.928
26465W        W27329  17.326  27.571  13.547
26466W        W27330  17.165  28.818  14.281
26467W        W27331  17.037  26.644  13.753
26468W        W27332  17.425  28.732  12.241
26469W        W27333  16.361  28.518  13.625
26470W        W27334  15.700  28.583  12.892
26471W        W27335  17.612  27.980  13.427
26472W        W27336  16.507  28.013  14.510
26473W        W27337  15.266  27.914  12.727
26474W        W27338  17.834  27.813  12.458
26475W        W27339  17.132  28.702  13.090
26476W        W27340  15.210  28.421  12.975
26477W        W27341  16.230  26.606  14.372
26478W        W27342  16.630  28.657  11.757
26479W        W27343  15.990  27.968  14.429
26480W        W27344  16.097  28.198  11.746
26481W        W27345  15.251  26.923  10.922
26482W        W27346  14.731   0.161  17.969
26483W        W27347  15.144  28.153  17.620
26484W        W27348  17.779  27.716  15.275
26485W        W27349  18.020  28.784  17.321
26486W        W27350  15.702  28.768  14.848
26487W        W27351  15.941  26.958  15.734
26488W        W27352  15.612  26.724  16.082
26489W        W27353  16.376  27.586  15.302
26490W        W27354  16.219  28.728  17.635
26491W        W27355  14.866  26.528  17.697
26492W        W27356  15.435  25.711  17.457
26493W        W27357  17.276  26.091  16.511
26494W        W27358  16.799  26.734  15.065
26495W        W27359  17.405  26.366  17.987
26496W        W27360  14.830  26.067  17.178
26497W        W27361  14.882  28.644  18.041
26498W        W27362  16.244  28.074  14.959
26499W        W27363  14.839  26.744  16.645
26500W        W27364  15.580  26.930  18.003
26501W        W27365  18.150  26.583  16.427
26502W        W27366  17.958  27.629  17.222
26503W        W27367  16.333  27.070  16.227
26504W        W27368  16.830  28.287  16.597
26505W        W27369  15.212  27.685  16.878
26506W        W27370  14.641  27.172  16.450
26507W        W27371  15.742  27.140  17.560
26508W        W27372  17.868  27.075  17.934
26509W        W27373  15.503  28.326  16.172
26510W        W27374  16.539  28.172  17.325
26511W        W27375  15.997  26.698  16.647
26512W        W27376  16.192  27.558  16.204
26513W        W27377  16.955  28.377  18.139
26514W        W27378  16.185  27.532  18.120
26515W        W27379  16.201  27.363  17.631
26516W        W27380  14.575  26.802  18.095
26517W        W27381  17.401  28.272  17.826
26518W        W27382  15.176  25.882  15.756
26519W        W27383  15.721  28.173  16.664
26520W        W27384  18.132  27.990  16.202
26521W        W27385  17.709  26.375  16.607
26522W        W27386  17.858  26.439  14.603
26523W        W27387  18.183  27.160  17.159
26524W        W27388  16.116  28.940  16.786
26525W        W27389  17.650  28.174  15.132
26526W        W27390  14.963  28.889  15.278
26527W        W27391  15.363  28.836  15.648
26528W        W27392  15.328  25.900  16.983
26529W        W27393  17.772  26.817  17.326
26530W        W27394  17.203  27.204  15.855
26531W        W27395  17.202  27.004  14.875
26532W        W27396  16.484  28.013  16.836
26533W        W27397  16.523  26.332  16.084
26534W        W27398  16.912  28.448  17.101
26535W        W27399  17.601  27.519  15.717
26536W        W27400  16.436  26.060  15.656
26537W        W27401  15.364  28.556  15.220
26538W        W27402  14.820  26.271  15.750
26539W        W27403  17.294  26.875  16.262
26540W        W27404  14.953  28.290  16.259
26541W        W27405  16.183  28.625  15.024
26542W        W27406  17.482  26.765  14.494
26543W        W27407  14.898  28.507  16.979
26544W        W27408  15.620  28.208  17.406
26545W        W27409  15.812  27.522  15.780
26546W        W27410  15.841  26.007  16.837
26547W        W27411  18.273  25.775  16.543
26548W        W27412  15.238  27.500  14.595
26549W        W27413  14.989  26.519  14.976
26550W        W27414  15.140  28.328  15.752
26551W        W27415  16.023  28.001  15.821
26552W        W27416  17.590  28.726  17.627
26553W        W27417  16.487  26.394  15.271
26554W        W27418  17.831  28.884  16.195
26555W        W27419  17.440  26.896  17.706
26556W        W27420  18.253  28.304  15.816
26557W        W27421  16.791  27.717  17.377
26558W        W27422  14.616  27.370  15.581
26559W        W27423  15.695  27.770  17.022
26560W        W27424  16.885  26.939  15.533
26561W        W27425  16.791  27.447  15.605
26562W        W27426  15.220  26.807  17.026
26563W        W27427  15.072  26.929  17.975
26564W        W27428  15.166  25.673  16.252
26565W        W27429  16.761  26.181  16.517
26566W        W27430  16.529  26.166  17.879
26567W        W27431  16.974  26.194  14.931
26568W        W27432  18.090  28.623  17.823
26569W        W27433  16.856  25.759  17.803
26570W        W27434  17.867  28.119  17.984
26571W        W27435  17.439  26.434  17.466
26572W        W27436  17.322  26.175  15.707
26573W        W27437  17.566  27.343  18.307
26574W        W27438  15.179  28.725  16.127
26575W        W27439  15.931  26.791  15.218
26576W        W27440  15.624  26.079  17.808
26577W        W27441  17.666  26.512  15.488
26578W        W27442  17.908  26.903  15.257
26579W        W27443  15.691  28.956  18.085
26580W        W27444  15.627  25.847  15.179
26581W        W27445  17.996  26.115  16.230
26582W        W27446  17.975  28.334  14.754
26583W        W27447  14.958  27.574  16.413
26584W        W27448  16.947  26.121  14.395
26585W        W27449  18.135  28.444  16.472
26586W        W27450  18.005  25.767  17.077
26587W        W27451  16.563  26.998  17.747
26588W        W27452  16.558  28.083  15.379
26589W        W27453  17.043  27.433  18.326
26590W        W27454  16.897  25.702  16.377
26591W        W27455  15.291  26.591  16.454
26592W        W27456  14.905  27.929  17.212
26593W        W27457  16.899  28.604  15.882
26594W        W27458  18.027  26.691  16.914
26595W        W27459  16.676  28.852  17.424
26596W        W27460  17.792  27.818  14.742
26597W        W27461  16.310  27.312  15.752
26598W        W27462  18.188  25.829  17.557
26599W        W27463  16.299  27.711  17.204
26600W        W27464  16.543  26.669  16.463
26601W        W27465  17.390  26.944  15.355
26602W        W27466  17.548  26.609  14.982
26603W        W27467  17.425  28.491  15.469
26604W        W27468  17.234  27.964  16.388
26605W        W27469  17.240  27.424  15.366
26606W        W27470  16.709  27.399  16.108
26607W        W27471  17.614  27.279  16.185
26608W        W27472  15.087  26.341  16.846
26609W        W27473  17.719  27.291  17.490
26610W        W27474  18.064  28.883  16.710
26611W        W27475  16.012  28.387  16.169
26612W        W27476  17.180  28.904  17.317
26613W        W27477  17.026  26.383  17.153
26614W        W27478  16.280   0.128  17.239
26615W        W27479  17.910  26.098  15.661
26616W        W27480  17.727  27.233  16.943
26617W        W27481  14.752  26.608  17.164
26618W        W27482  17.553  26.419  16.123
26619W        W27483  17.832  26.584  17.798
26620W        W27484  16.833  28.125  16.104
26621W        W27485  16.131  28.703  15.774
26622W        W27486  15.215  26.045  14.904
26623W        W27487  16.485  25.775  16.671
26624W        W27488  15.184  28.887  14.828
26625W        W27489  15.935  27.307  15.312
26626W        W27490  16.384  27.838  17.699
26627W        W27491  16.073  26.461  15.601
26628W        W27492  17.539  25.898  16.106
26629W        W27493  17.362   0.013  16.356
26630W        W27494  16.607  28.734  16.752
26631W        W27495  16.065  27.765  16.676
26632W        W27496  17.899  28.433  16.961
26633W        W27497  15.685  26.104  15.627
26634W        W27498  16.193  28.418  16.659
26635W        W27499  15.390  26.447  14.620
26636W        W27500  16.370  26.938  16.894
26637W        W27501  17.327  25.748  16.932
26638W        W27502  14.677  27.613  16.854
26639W        W27503  16.195  27.193  14.862
26640W        W27504  15.642  25.979  14.643
26641W        W27505  16.431  26.784  15.773
26642W        W27506  17.136  25.907  17.377
26643W        W27507  15.885  27.761  17.501
26644W        W27508  16.695  27.491  17.926
26645W        W27509  17.360  27.387  17.823
26646W        W27510  16.544  25.797  18.233
26647W        W27511  15.759  26.316  16.381
26648W        W27512  15.303  26.319  15.998
26649W        W27513  14.848  28.769  15.745
26650W        W27514  16.544  28.348  17.807
26651W        W27515  15.510  27.561  15.121
26652W        W27516  17.157  27.425  16.357
26653W        W27517  17.277  27.084  16.728
26654W        W27518  16.469  27.459  16.782
26655W        W27519  16.961  27.951  14.706
26656W        W27520  16.893  25.987  15.938
26657W        W27521  18.219  26.504  15.450
26658W        W27522  14.847  28.848  17.562
26659W        W27523  15.322  28.173  17.013
26660W        W27524  14.466  28.733  15.186
26661W        W27525  16.566  26.449  16.925
26662W        W27526  15.770  28.284  15.031
26663W        W27527  17.640  28.680  15.031
26664W        W27528  16.810  27.257  15.128
26665W        W27529  15.569  26.619  15.566
26666W        W27530  16.573  26.342  14.646
26667W        W27531  16.948  27.958  17.825
26668W        W27532  17.463  26.097  15.138
26669W        W27533  14.768  25.887  14.662
26670W        W27534  16.041  28.142  17.087
26671W        W27535  15.787  27.869  16.250
26672W        W27536  15.548  27.912  14.741
26673W        W27537  14.687  28.357  15.467
26674W        W27538  15.244  27.316  17.677
26675W        W27539  16.078  25.999  18.083
26676W        W27540  16.615  25.990  17.379
26677W        W27541  16.062  25.710  15.727
26678W        W27542  16.887  26.018  15.406
26679W        W27543  14.901  25.863  16.683
26680W        W27544  14.915  26.716  16.097
26681W        W27545  17.749  25.864  16.641
26682W        W27546  15.249  26.251  15.386
26683W        W27547  17.656  26.155  17.086
26684W        W27548  17.882  26.974  14.737
26685W        W27549  15.333  26.082  16.494
26686W        W27550  16.550  26.504  17.441
26687W        W27551  14.534  26.316  14.815
26688W        W27552  15.362  27.739  17.408
26689W        W27553  16.785  27.109  16.555
26690W        W27554  16.585  28.932  14.960
26691W        W27555  14.702  27.651  14.609
26692W        W27556  15.617  28.042  17.882
26693W        W27557  14.989  27.399  17.235
26694W        W27558  16.004  27.303  17.134
26695W        W27559  17.610  25.722  17.411
26696W        W27560  18.213  27.368  17.631
26697W        W27561  18.089  27.433  14.932
26698W        W27562  16.887  27.756  15.184
26699W        W27563  17.494   0.020  14.664
26700W        W27564  16.609  27.102  18.261
26701W        W27565  15.151  27.887  18.066
26702W        W27566  18.219  26.240  17.893
26703W        W27567  17.724  26.889  16.537
26704W        W27568  16.201  28.895  18.110
26705W        W27569  16.030  25.704  14.838
26706W        W27570  17.417  28.193  14.681
26707W        W27571  15.329  26.478  17.923
26708W        W27572  16.084  28.237  17.598
26709W        W27573  18.065  26.378  17.365
26710W        W27574  17.253   0.048  15.123
26711W        W27575  17.420  27.633  16.759
26712W        W27576  15.671  26.157  17.297
26713W        W27577  16.082  27.040  18.027
26714W        W27578  15.384  28.040  15.322
26715W        W27579  17.327  27.919  15.473
26716W        W27580  15.218  26.374  17.341
26717W        W27581  16.440  28.309  15.830
26718W        W27582  18.064  27.012  16.146
26719W        W27583  16.344  25.702  17.725
26720W        W27584  17.313  28.273  16.779
26721W        W27585  17.625  28.620  16.576
26722W        W27586  16.656  28.401  14.876
26723W        W27587  14.702  28.141  17.906
26724W        W27588  15.582  26.445  16.862
26725W        W27589  15.604  25.893  16.088
26726W        W27590  17.036  26.611  16.646
26727W        W27591  15.973  27.646  14.859
26728W        W27592  17.894  27.569  16.509
26729W        W27593  15.378  28.528  17.890
26730W        W27594  17.607   0.009  15.496
26731W        W27595  16.054  26.138  16.001
26732W        W27596  15.392  27.538  16.108
26733W        W27597  15.760   0.073  17.142
26734W        W27598  17.847   0.049  17.918
26735W        W27599  16.949  27.395  16.973
26736W        W27600  14.895  27.231  14.872
26737W        W27601  17.888  28.640  15.713
26738W        W27602  17.947  26.263  15.093
26739W        W27603  15.951  25.715  17.321
26740W        W27604  17.746  28.364  16.133
26741W        W27605  17.719  26.990  15.754
26742W        W27606  16.106  26.626  16.142
26743W        W27607  16.183  26.879  17.405
26744W        W27608  17.185  28.074  17.380
26745W        W27609  15.771  26.581  17.600
26746W        W27610  15.696  28.784  16.040
26747W        W27611  15.221   0.026  17.886
26748W        W27612  15.344  28.404  14.719
26749W        W27613  17.764  28.126  15.660
26750W        W27614  15.319  26.835  17.529
26751W        W27615  18.235  26.650  14.933
26752W        W27616  15.894  27.848  15.339
26753W        W27617  16.964  27.266  17.534
26754W        W27618  16.862  26.885  17.050
26755W        W27619  15.478  27.289  17.113
26756W        W27620  17.609  28.935  16.996
26757W        W27621  17.354  25.841  17.876
26758W        W27622  15.073  26.040  17.714
26759W        W27623  15.571  26.981  16.674
26760W        W27624  15.826  26.701  14.708
26761W        W27625  14.708  28.359  17.420
26762W        W27626  16.035  27.233  16.627
26763W        W27627  16.084  26.233  14.760
26764W        W27628  15.443  27.116  15.787
26765W        W27629  14.830   0.016  17.079
26766W        W27630  17.605  27.293  15.030
26767W        W27631  17.766  26.093  17.711
26768W        W27632  17.305  28.213  15.905
26769W        W27633  14.747  27.304  17.930
26770W        W27634  17.916  25.763  15.228
26771W        W27635  17.112  28.230  15.118
26772W        W27636  16.395  27.016  15.315
26773W        W27637  17.403  26.229  14.618
26774W        W27638  17.455  26.643  16.961
26775W        W27639  15.261  27.074  16.284
26776W        W27640  15.493  27.947  15.826
26777W        W27641  17.270  26.692  15.784
26778W        W27642  16.248  26.255  16.544
26779W        W27643  18.209  28.044  17.093
26780W        W27644  18.147  26.195  16.814
26781W        W27645  14.615  28.709  16.184
26782W        W27646  14.881  27.882  15.481
26783W        W27647  15.148  26.096  18.238
26784W        W27648  16.348  28.425  18.283
26785W        W27649  18.045  27.509  16.008
26786W        W27650  17.351  27.751  14.971
26787W        W27651  16.802   0.145  16.998
26788W        W27652  17.382  27.799  18.088
26789W        W27653  16.304  25.578  15.286
26790W        W27654  17.038  26.425  16.161
26791W        W27655  14.916  28.066  16.722
26792W        W27656  16.082  26.056  15.270
26793W        W27657  15.679  27.521  17.903
26794W        W27658  16.817  26.448  15.686
26795W        W27659  16.991  27.907  16.930
26796W        W27660  15.245  28.581  17.363
26797W        W27661  15.891  28.484  18.005
26798W        W27662  15.674  26.342  15.074
26799W        W27663  17.164  26.484  15.314
26800W        W27664  17.000  28.504  17.617
26801W        W27665  15.789  27.197  16.186
26802W        W27666  15.307  28.867  16.946
26803W        W27667  17.991  28.844  14.689
26804W        W27668  14.886  27.701  17.664
26805W        W27669  16.767  27.755  16.478
26806W        W27670  15.264  27.559  15.589
26807W        W27671  15.725  28.556  17.033
26808W        W27672  16.449  25.801  16.128
26809W        W27673  14.571  27.997  15.073
26810W        W27674  16.313  26.701  14.886
26811W        W27675  14.954  27.298  15.954
26812W        W27676  16.111  26.159  17.573
26813W        W27677  17.818  25.921  14.723
26814W        W27678  17.864  27.582  17.953
26815W        W27679  16.694  28.807  17.998
26816W        W27680  18.175  27.889  17.622
26817W        W27681  17.687  28.597  18.143
26818W        W27682  15.377   0.024  16.480
26819W        W27683  18.173  27.830  15.622
26820W        W27684  16.825  26.890  16.067
26821W        W27685  16.640  25.584  15.704
26822W        W27686  15.667  28.401  15.679
26823W        W27687  16.076  26.439  17.111
26824W        W27688  16.029  25.824  16.400
26825W        W27689  14.890  28.441  14.993
26826W        W27690  16.501  27.798  15.843
26827W        W27691  15.713  28.709  17.541
26828W        W27692  15.040  27.761  15.002
26829W        W27693  14.860  26.228  16.301
26830W        W27694  16.358  28.039  16.313
26831W        W27695  14.808  26.071  15.199
26832W        W27696  17.319  27.059  17.236
26833W        W27697  17.022  26.596  14.622
26834W        W27698  17.755  28.078  16.580
26835W        W27699  16.526  28.546  16.266
26836W        W27700  15.826  28.769  15.364
26837W        W27701  17.006  25.635  14.293
26838W        W27702  14.894  28.829  16.580
26839W        W27703  16.749  26.603  18.049
26840W        W27704  14.975  26.572  18.314
26841W        W27705  14.799  26.835  15.593
26842W        W27706  15.431  26.796  15.062
26843W        W27707  17.045  27.021  18.009
26844W        W27708  15.587  27.496  16.585
26845W        W27709  17.165  25.539  15.967
26846W        W27710  16.151  28.897  16.267
26847W        W27711  17.443  28.484  17.211
26848W        W27712  17.191  28.505  16.315
26849W        W27713  17.127  27.715  15.922
26850W        W27714  16.501  25.950  14.979
26851W        W27715  18.260  25.724  15.992
26852W        W27716  15.676  27.196  14.792
26853W        W27717  17.994  26.557  15.912
26854W        W27718  16.546  27.597  14.816
26855W        W27719  17.615  27.840  17.599
26856W        W27720  17.168  28.636  14.799
26857W        W27721  15.827  26.456  18.103
26858W        W27722  15.740  26.840  17.140
26859W        W27723  17.847  28.288  17.478
26860W        W27724  16.981  26.277  17.673
26861W        W27725  14.802  26.997  17.512
26862W        W27726  16.535  27.250  17.262
26863W        W27727  14.973  27.851  15.984
26864W        W27728  15.091  27.209  16.746
26865W        W27729  17.322  27.578  17.275
26866W        W27730  17.229  28.799  17.984
26867W        W27731  16.985  26.759  17.537
26868W        W27732  17.418  28.740  15.918
26869W        W27733  16.284  28.597  17.145
26870W        W27734  15.751  28.676  16.532
26871W        W27735  17.622  27.997  17.092
26872W        W27736  16.552  27.969  18.155
26873W        W27737  15.314  27.940  16.435
26874W        W27738  17.642  27.839  16.110
26875W        W27739  17.143  28.768  16.774
26876W        W27740  15.278  28.478  16.608
26877W        W27741  16.246  26.591  17.844
26878W        W27742  16.557  28.612  15.412
26879W        W27743  16.035  28.017  18.193
26880W        W27744  16.107  28.320  15.423
26881W        W27745  15.240  26.957  14.606
26882W        W27746  14.680   0.265  21.635
26883W        W27747  15.104  28.108  21.286
26884W        W27748  17.809  27.730  18.953
26885W        W27749  17.912  28.795  20.912
26886W        W27750  15.931  28.683  18.490
26887W        W27751  15.853  26.908  19.392
26888W        W27752  15.433  26.755  19.757
26889W        W27753  16.369  27.578  18.991
26890W        W27754  16.177  28.659  21.189
26891W        W27755  14.828  26.451  21.361
26892W        W27756  15.320  25.603  21.191
26893W        W27757  17.212  26.013  19.964
26894W        W27758  16.735  26.743  18.637
26895W        W27759  17.291  26.432  21.631
26896W        W27760  14.776  26.042  20.935
26897W        W27761  14.787  28.746  21.750
26898W        W27762  16.355  28.024  18.627
26899W        W27763  14.818  26.774  20.363
26900W        W27764  15.559  26.847  21.643
26901W        W27765  17.950  26.686  19.990
26902W        W27766  17.931  27.592  20.873
26903W        W27767  16.293  27.023  19.934
26904W        W27768  16.852  28.273  20.230
26905W        W27769  15.185  27.735  20.528
26906W        W27770  14.578  27.200  20.208
26907W        W27771  15.707  27.114  21.214
26908W        W27772  17.907  27.075  21.532
26909W        W27773  15.447  28.404  19.887
26910W        W27774  16.600  28.129  21.004
26911W        W27775  15.933  26.659  20.283
26912W        W27776  16.089  27.498  19.941
26913W        W27777  16.918  28.337  21.760
26914W        W27778  16.238  27.475  21.779
26915W        W27779  16.281  27.344  21.266
26916W        W27780  14.540  26.753  21.816
26917W        W27781  17.352  28.263  21.468
26918W        W27782  15.120  25.835  19.449
26919W        W27783  15.533  28.130  20.474
26920W        W27784  18.158  27.983  19.838
26921W        W27785  17.530  26.512  20.287
26922W        W27786  17.844  26.451  18.304
26923W        W27787  18.370  27.166  20.820
26924W        W27788  16.105  28.765  20.315
26925W        W27789  17.724  28.204  18.749
26926W        W27790  15.060   0.005  18.894
26927W        W27791  15.403  28.873  19.267
26928W        W27792  15.265  25.886  20.730
26929W        W27793  17.906  26.966  21.003
26930W        W27794  17.180  27.154  19.519
26931W        W27795  17.217  27.020  18.609
26932W        W27796  16.464  28.030  20.474
26933W        W27797  16.429  26.313  19.698
26934W        W27798  16.897  28.426  20.722
26935W        W27799  17.625  27.370  19.320
26936W        W27800  16.405  25.957  19.308
26937W        W27801  15.236  28.524  18.913
26938W        W27802  14.761  26.206  19.540
26939W        W27803  17.250  26.814  19.944
26940W        W27804  14.930  28.338  19.863
26941W        W27805  16.281  28.494  18.821
26942W        W27806  17.498  26.831  18.206
26943W        W27807  14.745  28.556  20.627
26944W        W27808  15.548  28.164  21.018
26945W        W27809  15.752  27.436  19.496
26946W        W27810  15.762  26.030  20.417
26947W        W27811  18.140  25.843  20.206
26948W        W27812  15.243  27.390  18.185
26949W        W27813  15.098  26.615  18.813
26950W        W27814  15.185  28.360  19.419
26951W        W27815  16.045  27.860  19.571
26952W        W27816  17.499  28.718  21.220
26953W        W27817  16.436  26.411  18.900
26954W        W27818  17.841  28.908  19.898
26955W        W27819  17.505  26.823  21.321
26956W        W27820  18.272  28.312  19.453
26957W        W27821  16.811  27.650  21.035
26958W        W27822  14.456  27.288  19.282
26959W        W27823  15.657  27.730  20.743
26960W        W27824  16.880  26.880  19.129
26961W        W27825  16.741  27.339  19.298
26962W        W27826  15.186  26.820  20.722
26963W        W27827  15.026  26.841  21.695
26964W        W27828  14.987  25.772  19.929
26965W        W27829  16.693  26.106  20.132
26966W        W27830  16.483  26.193  21.579
26967W        W27831  16.996  26.052  18.653
26968W        W27832  18.036  28.691  21.411
26969W        W27833  16.844  25.737  21.474
26970W        W27834  17.827  28.120  21.613
26971W        W27835  17.431  26.295  21.168
26972W        W27836  17.274  26.122  19.443
26973W        W27837  17.495  27.297  21.758
26974W        W27838  15.138  28.805  19.704
26975W        W27839  16.024  26.724  18.916
26976W        W27840  15.582  26.015  21.395
26977W        W27841  17.591  26.457  19.195
26978W        W27842  17.915  26.841  19.065
26979W        W27843  15.645  28.941  21.680
26980W        W27844  15.670  25.640  18.812
26981W        W27845  17.955  26.180  19.882
26982W        W27846  18.094  28.366  18.389
26983W        W27847  14.862  27.594  20.033
26984W        W27848  16.979  26.123  18.149
26985W        W27849  18.133  28.455  20.110
26986W        W27850  18.043  25.871  20.718
26987W        W27851  16.526  26.914  21.463
26988W        W27852  16.561  28.108  19.081
26989W        W27853  17.023  27.439  21.948
26990W        W27854  16.842  25.635  19.986
26991W        W27855  15.219  26.553  20.161
26992W        W27856  14.898  27.757  20.965
26993W        W27857  16.783  28.639  19.716
26994W        W27858  17.903  26.843  20.491
26995W        W27859  16.632  28.807  21.004
26996W        W27860  17.792  27.829  18.406
26997W        W27861  16.246  27.304  19.463
26998W        W27862  18.173  25.933  21.287
26999W        W27863  16.338  27.702  20.859
27000W        W27864  16.500  26.594  20.114
27001W        W27865  17.404  26.920  19.102
27002W        W27866  17.576  26.651  18.698
27003W        W27867  17.463  28.566  19.072
27004W        W27868  17.328  27.951  19.931
27005W        W27869  17.189  27.365  19.032
27006W        W27870  16.618  27.414  19.832
27007W        W27871  17.494  27.460  19.804
27008W        W27872  15.033  26.336  20.578
27009W        W27873  17.633  27.341  21.211
27010W        W27874  18.036  28.858  20.407
27011W        W27875  15.966  28.310  19.820
27012W        W27876  17.129  28.881  20.879
27013W        W27877  17.037  26.351  20.825
27014W        W27878  16.192  28.984  20.774
27015W        W27879  17.878  26.046  19.322
27016W        W27880  17.633  27.274  20.608
27017W        W27881  14.713  26.609  20.879
27018W        W27882  17.528  26.418  19.769
27019W        W27883  17.961  26.582  21.401
27020W        W27884  16.865  28.116  19.736
27021W        W27885  16.152  28.677  19.406
27022W        W27886  15.218  26.078  18.763
27023W        W27887  16.441  25.694  20.331
27024W        W27888  15.256  28.986  18.405
27025W        W27889  15.934  27.247  19.004
27026W        W27890  16.380  27.837  21.372
27027W        W27891  16.112  26.398  19.298
27028W        W27892  17.632  25.795  19.713
27029W        W27893  17.327  28.968  19.992
27030W        W27894  16.624  28.734  20.363
27031W        W27895  16.044  27.719  20.421
27032W        W27896  17.926  28.392  20.596
27033W        W27897  15.574  25.941  19.245
27034W        W27898  16.011  28.249  20.337
27035W        W27899  15.449  26.465  18.457
27036W        W27900  16.334  26.806  20.558
27037W        W27901  17.223  25.716  20.514
27038W        W27902  14.683  27.585  20.547
27039W        W27903  16.204  27.169  18.562
27040W        W27904  15.642  26.007  18.390
27041W        W27905  16.400  26.786  19.462
27042W        W27906  17.142  25.873  21.020
27043W        W27907  15.912  27.722  21.184
27044W        W27908  16.698  27.471  21.555
27045W        W27909  17.179  27.491  21.377
27046W        W27910  16.520  25.793  21.893
27047W        W27911  15.657  26.324  20.009
27048W        W27912  15.232  26.237  19.746
27049W        W27913  14.853  28.717  19.252
27050W        W27914  16.483  28.334  21.474
27051W        W27915  15.501  27.441  18.789
27052W        W27916  17.087  27.294  20.050
27053W        W27917  17.251  26.959  20.439
27054W        W27918  16.490  27.494  20.333
27055W        W27919  16.983  27.939  18.413
27056W        W27920  16.813  25.985  19.623
27057W        W27921  18.371  26.193  18.948
27058W        W27922  14.722  28.901  21.265
27059W        W27923  15.081  28.191  20.766
27060W        W27924  14.522  28.902  18.875
27061W        W27925  16.554  26.335  20.586
27062W        W27926  15.858  28.182  18.672
27063W        W27927  17.733  28.714  18.670
27064W        W27928  16.779  27.242  18.758
27065W        W27929  15.632  26.413  19.452
27066W        W27930  16.566  26.273  18.416
27067W        W27931  16.914  27.951  21.434
27068W        W27932  17.436  26.028  18.964
27069W        W27933  14.765  25.708  18.609
27070W        W27934  16.024  28.092  20.822
27071W        W27935  15.758  27.895  20.034
27072W        W27936  15.584  27.794  18.356
27073W        W27937  14.597  28.368  18.916
27074W        W27938  15.274  27.254  21.503
27075W        W27939  16.028  25.927  21.733
27076W        W27940  16.600  25.952  21.032
27077W        W27941  15.972  25.644  19.437
27078W        W27942  16.925  25.886  19.134
27079W        W27943  14.830  25.885  20.444
27080W        W27944  14.911  26.647  19.739
27081W        W27945  17.641  25.890  20.234
27082W        W27946  15.176  26.308  19.229
27083W        W27947  17.525  26.126  20.682
27084W        W27948  17.926  26.976  18.449
27085W        W27949  15.285  26.043  20.233
27086W        W27950  16.549  26.496  21.090
27087W        W27951  14.715  26.221  18.603
27088W        W27952  15.388  27.646  21.170
27089W        W27953  16.718  27.025  20.277
27090W        W27954  16.514  28.846  18.515
27091W        W27955  14.674  27.706  18.246
27092W        W27956  15.566  27.995  21.519
27093W        W27957  15.048  27.268  21.034
27094W        W27958  15.982  27.336  20.834
27095W        W27959  17.667  25.825  21.101
27096W        W27960  18.191  27.394  21.253
27097W        W27961  18.089  27.453  18.586
27098W        W27962  16.869  27.742  18.883
27099W        W27963  17.529   0.049  18.329
27100W        W27964  16.636  27.095  21.927
27101W        W27965  15.138  27.985  21.810
27102W        W27966  18.302  26.252  21.704
27103W        W27967  17.647  27.087  20.113
27104W        W27968  16.139  28.804  21.702
27105W        W27969  16.101  25.761  18.537
27106W        W27970  17.426  28.214  18.348
27107W        W27971  15.291  26.410  21.593
27108W        W27972  15.997  28.207  21.326
27109W        W27973  17.921  26.296  20.981
27110W        W27974  17.297   0.060  18.793
27111W        W27975  17.353  27.651  20.355
27112W        W27976  15.697  26.082  20.912
27113W        W27977  16.036  27.031  21.640
27114W        W27978  15.519  28.130  19.081
27115W        W27979  17.363  27.816  19.198
27116W        W27980  15.252  26.333  21.037
27117W        W27981  16.410  28.266  19.557
27118W        W27982  18.146  27.012  19.546
27119W        W27983  16.346  25.684  21.413
27120W        W27984  17.314  28.188  20.390
27121W        W27985  17.624  28.583  20.230
27122W        W27986  16.755  28.373  18.632
27123W        W27987  14.734  28.244  21.629
27124W        W27988  15.531  26.453  20.570
27125W        W27989  15.527  25.812  19.800
27126W        W27990  16.980  26.533  20.327
27127W        W27991  16.012  27.648  18.610
27128W        W27992  17.839  27.571  20.171
27129W        W27993  15.269  28.465  21.631
27130W        W27994  17.621   0.079  19.197
27131W        W27995  15.961  26.085  19.677
27132W        W27996  15.345  27.517  19.800
27133W        W27997  15.693   0.043  20.608
27134W        W27998  17.728   0.081  21.502
27135W        W27999  16.957  27.370  20.586
27136W        W28000  14.832  27.141  18.413
27137W        W28001  17.938  28.697  19.327
27138W        W28002  17.883  26.247  18.791
27139W        W28003  15.878  25.640  21.132
27140W        W28004  17.785  28.381  19.741
27141W        W28005  17.635  26.909  19.589
27142W        W28006  16.014  26.609  19.779
27143W        W28007  16.189  26.892  21.049
27144W        W28008  17.200  28.097  21.003
27145W        W28009  15.706  26.548  21.189
27146W        W28010  15.810  28.801  19.823
27147W        W28011  15.176  28.959  21.484
27148W        W28012  15.459  28.498  18.414
27149W        W28013  17.803  28.198  19.244
27150W        W28014  15.246  26.811  21.228
27151W        W28015  18.232  26.627  18.674
27152W        W28016  15.850  27.742  19.092
27153W        W28017  16.827  27.166  21.158
27154W        W28018  16.831  26.827  20.749
27155W        W28019  15.469  27.263  20.753
27156W        W28020  17.554  28.971  20.574
27157W        W28021  17.332  25.876  21.534
27158W        W28022  15.057  26.010  21.381
27159W        W28023  15.495  26.957  20.310
27160W        W28024  15.817  26.814  18.469
27161W        W28025  14.691  28.396  21.124
27162W        W28026  16.017  27.178  20.354
27163W        W28027  16.035  26.306  18.560
27164W        W28028  15.337  27.129  19.412
27165W        W28029  14.794   0.054  20.787
27166W        W28030  17.658  27.250  18.807
27167W        W28031  17.765  26.144  21.545
27168W        W28032  17.335  28.240  19.481
27169W        W28033  14.718  27.269  21.685
27170W        W28034  17.807  25.746  18.709
27171W        W28035  17.204  28.169  18.833
27172W        W28036  16.403  27.041  19.023
27173W        W28037  17.464  26.097  18.443
27174W        W28038  17.517  26.650  20.801
27175W        W28039  15.066  27.089  19.948
27176W        W28040  15.534  27.983  19.583
27177W        W28041  17.187  26.640  19.456
27178W        W28042  16.172  26.198  20.147
27179W        W28043  18.213  28.005  20.733
27180W        W28044  18.020  26.323  20.421
27181W        W28045  14.608  28.713  19.714
27182W        W28046  14.982  28.017  19.088
27183W        W28047  15.028  26.075  21.898
27184W        W28048  16.289  28.373  21.956
27185W        W28049  18.025  27.483  19.691
27186W        W28050  17.367  27.691  18.663
27187W        W28051  16.707   0.153  20.628
27188W        W28052  17.395  27.804  21.729
27189W        W28053  16.222  25.534  19.005
27190W        W28054  16.924  26.434  19.824
27191W        W28055  14.793  28.035  20.308
27192W        W28056  16.013  26.008  18.981
27193W        W28057  15.735  27.492  21.597
27194W        W28058  16.758  26.386  19.304
27195W        W28059  16.943  27.900  20.609
27196W        W28060  15.160  28.592  21.098
27197W        W28061  15.784  28.405  21.763
27198W        W28062  15.634  26.369  18.929
27199W        W28063  17.134  26.469  18.942
27200W        W28064  16.938  28.476  21.247
27201W        W28065  15.774  27.099  19.893
27202W        W28066  15.219  28.807  20.613
27203W        W28067  18.089  28.882  18.352
27204W        W28068  14.952  27.651  21.459
27205W        W28069  16.883  27.762  20.121
27206W        W28070  15.321  27.638  19.262
27207W        W28071  15.830  28.574  20.793
27208W        W28072  16.377  25.812  19.815
27209W        W28073  14.579  27.834  18.782
27210W        W28074  16.300  26.697  18.351
27211W        W28075  14.897  27.395  19.546
27212W        W28076  16.101  26.107  21.229
27213W        W28077  17.900  25.951  18.214
27214W        W28078  17.884  27.602  21.618
27215W        W28079  16.654  28.784  21.677
27216W        W28080  18.135  27.909  21.239
27217W        W28081  17.646  28.602  21.716
27218W        W28082  15.365  28.994  20.142
27219W        W28083  18.173  27.819  19.317
27220W        W28084  16.785  26.928  19.759
27221W        W28085  16.627  25.499  19.497
27222W        W28086  15.678  28.474  19.440
27223W        W28087  16.067  26.427  20.796
27224W        W28088  15.968  25.720  20.079
27225W        W28089  14.859  28.660  18.559
27226W        W28090  16.543  27.773  19.471
27227W        W28091  15.649  28.610  21.286
27228W        W28092  14.881  27.454  19.024
27229W        W28093  14.809  26.242  20.060
27230W        W28094  16.400  27.900  19.967
27231W        W28095  14.796  25.950  19.075
27232W        W28096  17.272  27.087  20.939
27233W        W28097  17.143  26.523  18.419
27234W        W28098  17.777  28.081  20.189
27235W        W28099  16.406  28.399  20.055
27236W        W28100  15.803  28.628  18.982
27237W        W28101  17.034  25.647  18.295
27238W        W28102  14.880  28.831  20.154
27239W        W28103  16.802  26.589  21.751
27240W        W28104  14.939  26.543  22.115
27241W        W28105  14.855  26.919  19.286
27242W        W28106  15.534  26.900  18.944
27243W        W28107  17.075  27.021  21.625
27244W        W28108  15.577  27.473  20.276
27245W        W28109  17.164  25.622  19.559
27246W        W28110  16.341  28.857  19.863
27247W        W28111  17.452  28.495  20.764
27248W        W28112  17.230  28.460  19.931
27249W        W28113  17.046  27.645  19.607
27250W        W28114  16.517  25.911  18.792
27251W        W28115  18.164  25.754  19.700
27252W        W28116  15.740  27.295  18.351
27253W        W28117  17.982  26.526  19.503
27254W        W28118  16.548  27.578  18.476
27255W        W28119  17.595  27.846  21.241
27256W        W28120  17.219  28.633  18.527
27257W        W28121  15.785  26.378  21.700
27258W        W28122  15.782  26.862  20.743
27259W        W28123  17.797  28.305  21.116
27260W        W28124  16.932  26.218  21.335
27261W        W28125  14.736  26.937  21.274
27262W        W28126  16.494  27.230  20.779
27263W        W28127  15.009  27.896  19.605
27264W        W28128  15.063  27.245  20.433
27265W        W28129  17.316  27.603  20.877
27266W        W28130  17.165  28.784  21.601
27267W        W28131  17.022  26.698  21.223
27268W        W28132  17.466  28.749  19.559
27269W        W28133  16.343  28.481  20.706
27270W        W28134  15.629  28.607  20.318
27271W        W28135  17.641  27.981  20.720
27272W        W28136  16.564  27.936  21.843
27273W        W28137  15.247  27.957  20.061
27274W        W28138  17.709  27.870  19.604
27275W        W28139  17.139  28.709  20.382
27276W        W28140  15.142  28.415  20.308
27277W        W28141  16.161  26.568  21.434
27278W        W28142  16.627  28.605  19.194
27279W        W28143  16.032  27.942  21.779
27280W        W28144  16.048  28.208  19.182
27281W        W28145  15.318  26.963  18.463
27282W        W28146  14.694   0.167  25.248
27283W        W28147  15.100  28.090  24.902
27284W        W28148  17.806  27.706  22.585
27285W        W28149  18.028  28.801  24.602
27286W        W28150  15.698  28.735  22.140
27287W        W28151  15.968  26.885  22.935
27288W        W28152  15.486  26.795  23.424
27289W        W28153  16.392  27.616  22.706
27290W        W28154  16.145  28.709  25.079
27291W        W28155  14.881  26.426  24.941
27292W        W28156  15.415  25.579  24.839
27293W        W28157  17.395  25.965  23.605
27294W        W28158  16.689  26.724  22.295
27295W        W28159  17.441  26.323  25.328
27296W        W28160  14.682  26.133  24.563
27297W        W28161  14.858  28.685  25.338
27298W        W28162  16.377  27.999  22.346
27299W        W28163  14.736  26.755  23.974
27300W        W28164  15.625  26.833  25.187
27301W        W28165  18.099  26.594  23.671
27302W        W28166  17.908  27.577  24.535
27303W        W28167  16.327  27.021  23.603
27304W        W28168  16.888  28.211  23.856
27305W        W28169  15.187  27.694  24.155
27306W        W28170  14.559  27.191  23.780
27307W        W28171  15.688  27.211  24.831
27308W        W28172  18.034  27.006  25.200
27309W        W28173  15.507  28.343  23.513
27310W        W28174  16.469  28.236  24.607
27311W        W28175  15.962  26.724  23.903
27312W        W28176  16.227  27.532  23.585
27313W        W28177  16.959  28.368  25.388
27314W        W28178  16.326  27.570  25.440
27315W        W28179  16.195  27.365  24.966
27316W        W28180  14.622  26.708  25.417
27317W        W28181  17.406  28.316  25.058
27318W        W28182  15.109  25.792  23.171
27319W        W28183  15.675  28.137  23.996
27320W        W28184  18.168  27.946  23.584
27321W        W28185  17.683  26.343  23.928
27322W        W28186  17.898  26.439  21.960
27323W        W28187  18.296  27.068  24.377
27324W        W28188  16.225  28.875  23.918
27325W        W28189  17.889  28.227  22.473
27326W        W28190  15.266  28.950  22.474
27327W        W28191  15.434  28.796  22.924
27328W        W28192  15.364  25.810  24.384
27329W        W28193  17.928  26.890  24.695
27330W        W28194  17.212  27.184  23.151
27331W        W28195  17.297  27.053  22.204
27332W        W28196  16.542  27.990  24.145
27333W        W28197  16.437  26.366  23.430
27334W        W28198  16.920  28.324  24.366
27335W        W28199  17.694  27.348  22.987
27336W        W28200  16.444  25.992  23.028
27337W        W28201  15.158  28.455  22.582
27338W        W28202  14.787  26.187  23.178
27339W        W28203  17.232  26.911  23.613
27340W        W28204  14.962  28.332  23.539
27341W        W28205  16.136  28.635  22.376
27342W        W28206  17.559  26.797  21.836
27343W        W28207  14.779  28.516  24.220
27344W        W28208  15.554  28.151  24.672
27345W        W28209  15.867  27.570  23.150
27346W        W28210  15.802  26.000  24.180
27347W        W28211  18.166  25.660  23.748
27348W        W28212  15.144  27.470  21.955
27349W        W28213  15.266  26.612  22.538
27350W        W28214  15.211  28.334  23.080
27351W        W28215  16.150  27.998  23.153
27352W        W28216  17.622  28.789  24.927
27353W        W28217  16.586  26.345  22.640
27354W        W28218  17.764  28.835  23.569
27355W        W28219  17.553  26.839  25.127
27356W        W28220  18.238  28.226  23.183
27357W        W28221  16.799  27.716  24.637
27358W        W28222  14.513  27.328  22.807
27359W        W28223  15.666  27.750  24.344
27360W        W28224  16.875  26.843  22.795
27361W        W28225  16.786  27.350  22.912
27362W        W28226  15.183  26.794  24.296
27363W        W28227  15.119  26.790  25.307
27364W        W28228  15.072  25.673  23.676
27365W        W28229  16.705  26.158  23.847
27366W        W28230  16.540  26.166  25.221
27367W        W28231  17.080  26.024  22.333
27368W        W28232  18.152  28.529  25.213
27369W        W28233  16.855  25.750  25.169
27370W        W28234  17.851  28.078  25.303
27371W        W28235  17.498  26.435  24.806
27372W        W28236  17.296  26.175  23.128
27373W        W28237  17.489  27.459  25.452
27374W        W28238  15.190  28.759  23.379
27375W        W28239  16.185  26.639  22.453
27376W        W28240  15.561  25.918  25.252
27377W        W28241  17.630  26.450  22.847
27378W        W28242  17.931  26.853  22.778
27379W        W28243  15.733  28.964  25.266
27380W        W28244  15.638  25.932  22.404
27381W        W28245  17.982  26.103  23.580
27382W        W28246  18.035  28.377  21.999
27383W        W28247  14.935  27.563  23.689
27384W        W28248  16.950  26.106  21.841
27385W        W28249  18.112  28.415  23.822
27386W        W28250  18.105  25.744  24.340
27387W        W28251  16.597  26.993  25.053
27388W        W28252  16.621  28.070  22.842
27389W        W28253  16.972  27.599  25.524
27390W        W28254  16.965  25.700  23.861
27391W        W28255  15.209  26.585  23.810
27392W        W28256  14.880  27.726  24.574
27393W        W28257  16.913  28.651  23.310
27394W        W28258  17.989  26.685  24.197
27395W        W28259  16.558  28.786  24.751
27396W        W28260  17.815  27.885  22.087
27397W        W28261  16.287  27.275  23.124
27398W        W28262  18.183  25.749  24.864
27399W        W28263  16.305  27.738  24.510
27400W        W28264  16.483  26.622  23.881
27401W        W28265  17.400  26.895  22.743
27402W        W28266  17.650  26.684  22.347
27403W        W28267  17.489  28.453  22.732
27404W        W28268  17.282  27.916  23.705
27405W        W28269  17.255  27.365  22.651
27406W        W28270  16.749  27.270  23.431
27407W        W28271  17.564  27.316  23.511
27408W        W28272  14.952  26.340  24.177
27409W        W28273  17.678  27.322  24.950
27410W        W28274  18.016  28.861  24.069
27411W        W28275  16.031  28.387  23.492
27412W        W28276  17.002  28.847  24.461
27413W        W28277  17.062  26.379  24.528
27414W        W28278  16.250   0.112  24.401
27415W        W28279  17.828  26.052  23.094
27416W        W28280  17.792  27.169  24.238
27417W        W28281  14.678  26.661  24.495
27418W        W28282  17.603  26.438  23.437
27419W        W28283  17.971  26.501  25.038
27420W        W28284  16.821  28.132  23.359
27421W        W28285  16.048  28.720  22.927
27422W        W28286  15.138  26.115  22.391
27423W        W28287  16.456  25.661  24.017
27424W        W28288  15.225  28.854  21.985
27425W        W28289  15.973  27.329  22.671
27426W        W28290  16.372  27.864  24.999
27427W        W28291  16.155  26.413  22.953
27428W        W28292  17.761  25.655  23.436
27429W        W28293  17.215  28.979  23.595
27430W        W28294  16.530  28.632  24.249
27431W        W28295  16.072  27.785  24.023
27432W        W28296  17.828  28.432  24.268
27433W        W28297  15.712  25.948  22.927
27434W        W28298  16.171  28.345  23.995
27435W        W28299  15.458  26.404  22.106
27436W        W28300  16.316  26.936  24.247
27437W        W28301  17.324  25.684  24.263
27438W        W28302  14.667  27.608  24.120
27439W        W28303  16.188  27.123  22.195
27440W        W28304  15.533  25.948  21.899
27441W        W28305  16.455  26.791  23.100
27442W        W28306  17.265  25.914  24.756
27443W        W28307  15.883  27.748  24.808
27444W        W28308  16.702  27.486  25.102
27445W        W28309  17.211  27.596  25.040
27446W        W28310  16.541  25.819  25.608
27447W        W28311  15.676  26.356  23.676
27448W        W28312  15.249  26.280  23.394
27449W        W28313  14.886  28.728  22.936
27450W        W28314  16.509  28.351  25.097
27451W        W28315  15.541  27.543  22.470
27452W        W28316  17.131  27.400  23.772
27453W        W28317  17.292  27.048  24.115
27454W        W28318  16.454  27.442  24.087
27455W        W28319  17.026  27.938  22.084
27456W        W28320  16.904  25.919  23.367
27457W        W28321  18.214  26.384  22.723
27458W        W28322  14.808  28.864  24.855
27459W        W28323  15.126  28.157  24.389
27460W        W28324  14.553  28.970  22.596
27461W        W28325  16.585  26.396  24.329
27462W        W28326  15.891  28.159  22.249
27463W        W28327  17.634  28.644  22.265
27464W        W28328  16.845  27.202  22.404
27465W        W28329  15.656  26.435  23.101
27466W        W28330  16.526  26.260  22.118
27467W        W28331  16.879  27.980  25.076
27468W        W28332  17.469  25.955  22.700
27469W        W28333  14.699  25.636  22.293
27470W        W28334  15.995  28.136  24.418
27471W        W28335  15.843  27.902  23.568
27472W        W28336  15.579  27.798  22.012
27473W        W28337  14.571  28.420  22.655
27474W        W28338  15.219  27.232  25.071
27475W        W28339  16.072  25.912  25.336
27476W        W28340  16.700  26.015  24.715
27477W        W28341  16.051  25.638  23.202
27478W        W28342  16.937  25.937  22.834
27479W        W28343  14.893  25.829  24.175
27480W        W28344  14.802  26.606  23.472
27481W        W28345  17.745  25.827  23.976
27482W        W28346  15.245  26.196  22.877
27483W        W28347  17.611  26.103  24.404
27484W        W28348  17.921  27.090  22.042
27485W        W28349  15.326  26.067  23.924
27486W        W28350  16.609  26.529  24.836
27487W        W28351  14.629  26.154  22.260
27488W        W28352  15.363  27.644  24.764
27489W        W28353  16.766  27.050  23.915
27490W        W28354  16.557  28.865  22.196
27491W        W28355  14.656  27.775  21.860
27492W        W28356  15.579  27.999  25.152
27493W        W28357  15.008  27.219  24.591
27494W        W28358  16.006  27.344  24.456
27495W        W28359  17.700  25.641  24.660
27496W        W28360  18.225  27.331  24.844
27497W        W28361  18.154  27.497  22.241
27498W        W28362  16.894  27.723  22.540
27499W        W28363  17.469   0.016  21.944
27500W        W28364  16.653  27.156  25.560
27501W        W28365  15.156  28.021  25.447
27502W        W28366  18.223  26.076  25.278
27503W        W28367  17.698  26.879  23.803
27504W        W28368  16.192  28.981  25.519
27505W        W28369  16.123  25.732  22.230
27506W        W28370  17.448  28.236  21.997
27507W        W28371  15.366  26.360  25.070
27508W        W28372  16.014  28.241  24.922
27509W        W28373  18.061  26.210  24.622
27510W        W28374  17.275  28.999  22.430
27511W        W28375  17.512  27.586  24.062
27512W        W28376  15.679  26.040  24.756
27513W        W28377  16.115  27.102  25.409
27514W        W28378  15.446  28.043  22.691
27515W        W28379  17.397  27.761  22.919
27516W        W28380  15.255  26.301  24.578
27517W        W28381  16.435  28.440  23.162
27518W        W28382  18.173  27.015  23.310
27519W        W28383  16.359  25.717  24.972
27520W        W28384  17.348  28.269  24.093
27521W        W28385  17.486  28.746  23.988
27522W        W28386  16.723  28.359  22.245
27523W        W28387  14.721  28.195  25.238
27524W        W28388  15.565  26.464  24.180
27525W        W28389  15.545  25.864  23.477
27526W        W28390  17.006  26.597  24.023
27527W        W28391  16.026  27.632  22.235
27528W        W28392  17.934  27.543  23.776
27529W        W28393  15.303  28.460  25.198
27530W        W28394  17.644  28.957  22.791
27531W        W28395  15.994  26.121  23.349
27532W        W28396  15.368  27.453  23.404
27533W        W28397  15.744   0.044  24.223
27534W        W28398  17.997   0.043  25.179
27535W        W28399  16.933  27.368  24.277
27536W        W28400  14.827  27.072  22.140
27537W        W28401  17.942  28.585  22.976
27538W        W28402  17.829  26.193  22.422
27539W        W28403  15.900  25.568  24.697
27540W        W28404  17.781  28.326  23.432
27541W        W28405  17.664  26.898  23.230
27542W        W28406  16.015  26.659  23.400
27543W        W28407  16.160  26.873  24.753
27544W        W28408  17.203  28.025  24.682
27545W        W28409  15.726  26.555  24.737
27546W        W28410  15.721  28.771  23.341
27547W        W28411  15.234  28.970  25.132
27548W        W28412  15.398  28.306  22.138
27549W        W28413  17.795  28.084  22.959
27550W        W28414  15.263  26.794  24.799
27551W        W28415  18.175  26.713  22.323
27552W        W28416  15.912  27.839  22.703
27553W        W28417  16.992  27.230  24.768
27554W        W28418  16.829  26.861  24.437
27555W        W28419  15.457  27.286  24.351
27556W        W28420  17.570  28.981  24.416
27557W        W28421  17.356  25.811  25.271
27558W        W28422  15.059  25.927  25.024
27559W        W28423  15.505  27.009  23.906
27560W        W28424  15.838  26.748  22.064
27561W        W28425  14.700  28.376  24.721
27562W        W28426  15.995  27.234  23.960
27563W        W28427  15.991  26.246  22.151
27564W        W28428  15.552  27.194  22.981
27565W        W28429  14.763   0.010  24.375
27566W        W28430  17.720  27.212  22.482
27567W        W28431  17.751  26.028  25.007
27568W        W28432  17.325  28.168  23.207
27569W        W28433  14.742  27.239  25.361
27570W        W28434  17.831  25.663  22.410
27571W        W28435  17.399  28.012  22.462
27572W        W28436  16.416  27.062  22.657
27573W        W28437  17.476  26.123  22.007
27574W        W28438  17.481  26.612  24.310
27575W        W28439  15.047  27.052  23.584
27576W        W28440  15.489  27.914  23.199
27577W        W28441  17.212  26.672  23.157
27578W        W28442  16.159  26.230  23.855
27579W        W28443  18.147  28.034  24.408
27580W        W28444  18.165  26.208  24.096
27581W        W28445  14.652  28.753  23.390
27582W        W28446  14.912  28.037  22.769
27583W        W28447  15.165  25.870  25.551
27584W        W28448  16.277  28.462  25.540
27585W        W28449  18.113  27.530  23.266
27586W        W28450  17.442  27.563  22.210
27587W        W28451  16.680   0.127  24.127
27588W        W28452  17.319  27.955  25.403
27589W        W28453  16.283  25.555  22.722
27590W        W28454  17.091  26.373  23.564
27591W        W28455  14.868  28.063  23.964
27592W        W28456  16.126  26.049  22.615
27593W        W28457  15.808  27.540  25.278
27594W        W28458  16.811  26.375  23.096
27595W        W28459  17.070  27.847  24.191
27596W        W28460  15.194  28.575  24.682
27597W        W28461  15.788  28.445  25.366
27598W        W28462  15.738  26.408  22.588
27599W        W28463  17.140  26.413  22.675
27600W        W28464  16.957  28.476  24.864
27601W        W28465  15.840  27.166  23.468
27602W        W28466  15.224  28.852  24.235
27603W        W28467  17.983  28.897  21.972
27604W        W28468  14.925  27.655  25.093
27605W        W28469  16.747  27.717  23.735
27606W        W28470  15.216  27.610  22.885
27607W        W28471  15.618  28.535  24.344
27608W        W28472  16.422  25.861  23.531
27609W        W28473  14.633  28.045  22.300
27610W        W28474  16.317  26.678  21.915
27611W        W28475  14.857  27.391  23.209
27612W        W28476  16.183  26.217  24.827
27613W        W28477  17.958  25.925  21.974
27614W        W28478  18.016  27.541  25.283
27615W        W28479  16.640  28.794  25.316
27616W        W28480  18.167  27.893  24.920
27617W        W28481  17.676  28.549  25.429
27618W        W28482  15.413  28.998  23.779
27619W        W28483  18.233  27.818  22.846
27620W        W28484  16.775  26.756  23.479
27621W        W28485  16.578  25.513  23.176
27622W        W28486  15.749  28.323  23.055
27623W        W28487  16.070  26.457  24.347
27624W        W28488  15.975  25.768  23.743
27625W        W28489  14.819  28.652  22.261
27626W        W28490  16.561  27.707  23.223
27627W        W28491  15.669  28.636  24.867
27628W        W28492  15.133  27.862  22.318
27629W        W28493  14.862  26.152  23.709
27630W        W28494  16.370  28.032  23.628
27631W        W28495  14.776  25.949  22.723
27632W        W28496  17.429  27.011  24.622
27633W        W28497  17.167  26.532  22.141
27634W        W28498  17.763  28.032  23.896
27635W        W28499  16.535  28.528  23.670
27636W        W28500  15.679  28.491  22.584
27637W        W28501  17.000  25.617  21.979
27638W        W28502  14.912  28.818  23.820
27639W        W28503  16.848  26.638  25.374
27640W        W28504  14.963  26.321  25.445
27641W        W28505  14.797  26.458  22.684
27642W        W28506  15.681  26.943  22.504
27643W        W28507  17.096  27.133  25.276
27644W        W28508  15.598  27.539  23.868
27645W        W28509  17.331  25.675  23.139
27646W        W28510  16.230  28.852  23.395
27647W        W28511  17.396  28.497  24.555
27648W        W28512  17.285  28.451  23.623
27649W        W28513  17.077  27.662  23.309
27650W        W28514  16.594  25.862  22.437
27651W        W28515  18.220  25.648  23.220
27652W        W28516  15.705  27.259  22.049
27653W        W28517  18.031  26.537  23.172
27654W        W28518  16.544  27.542  22.185
27655W        W28519  17.640  27.840  24.908
27656W        W28520  17.135  28.639  22.101
27657W        W28521  15.860  26.360  25.216
27658W        W28522  15.785  26.898  24.357
27659W        W28523  17.846  28.311  24.785
27660W        W28524  17.022  26.260  25.036
27661W        W28525  14.768  26.920  24.943
27662W        W28526  16.517  27.264  24.588
27663W        W28527  14.980  27.892  23.270
27664W        W28528  15.011  27.214  24.067
27665W        W28529  17.364  27.534  24.550
27666W        W28530  17.211  28.784  25.234
27667W        W28531  17.079  26.750  24.912
27668W        W28532  17.453  28.678  23.194
27669W        W28533  16.092  28.634  24.550
27670W        W28534  15.764  28.643  23.857
27671W        W28535  17.624  27.980  24.405
27672W        W28536  16.576  28.026  25.491
27673W        W28537  15.296  27.925  23.694
27674W        W28538  17.680  27.807  23.385
27675W        W28539  16.959  28.710  23.956
27676W        W28540  15.253  28.431  23.954
27677W        W28541  16.319  26.622  25.311
27678W        W28542  16.563  28.618  22.684
27679W        W28543  16.061  28.010  25.384
27680W        W28544  16.160  28.274  22.723
27681W        W28545  15.327  26.913  22.107
27682W        W28546  14.734   0.163  28.896
27683W        W28547  15.123  28.030  28.532
27684W        W28548  17.772  27.698  26.236
27685W        W28549  17.999  28.815  28.213
27686W        W28550  15.756  28.801  25.749
27687W        W28551  15.829  27.018  26.567
27688W        W28552  15.345  27.051  26.786
27689W        W28553  16.370  27.616  26.313
27690W        W28554  16.158  28.673  28.463
27691W        W28555  14.907  26.379  28.464
27692W        W28556  15.437  25.611  28.246
27693W        W28557  17.183  26.019  27.223
27694W        W28558  16.872  26.757  25.903
27695W        W28559  17.411  26.217  28.820
27696W        W28560  14.873  26.043  28.059
27697W        W28561  14.881  28.634  28.956
27698W        W28562  16.437  28.186  25.975
27699W        W28563  14.755  26.758  27.503
27700W        W28564  15.593  26.816  28.728
27701W        W28565  17.956  26.536  27.274
27702W        W28566  17.884  27.612  28.062
27703W        W28567  16.292  27.048  27.206
27704W        W28568  16.838  28.354  27.481
27705W        W28569  15.174  27.696  27.777
27706W        W28570  14.486  27.184  27.344
27707W        W28571  15.684  27.118  28.322
27708W        W28572  17.928  27.020  28.738
27709W        W28573  15.459  28.386  27.142
27710W        W28574  16.684  28.091  28.218
27711W        W28575  15.979  26.665  27.400
27712W        W28576  16.156  27.587  27.154
27713W        W28577  16.876  28.374   0.025
27714W        W28578  16.131  27.527  28.867
27715W        W28579  16.348  27.336  28.430
27716W        W28580  14.631  26.614  28.941
27717W        W28581  17.394  28.270  28.676
27718W        W28582  15.100  25.817  26.566
27719W        W28583  15.633  28.125  27.680
27720W        W28584  18.141  27.997  27.095
27721W        W28585  17.448  26.432  27.428
27722W        W28586  17.848  26.528  25.545
27723W        W28587  18.157  27.095  27.869
27724W        W28588  16.035   0.015  27.574
27725W        W28589  17.831  28.212  26.214
27726W        W28590  15.031   0.020  26.138
27727W        W28591  15.378  28.857  26.537
27728W        W28592  15.459  25.909  27.789
27729W        W28593  17.957  26.825  28.253
27730W        W28594  17.144  27.221  26.858
27731W        W28595  17.177  27.204  25.814
27732W        W28596  16.508  28.066  27.740
27733W        W28597  16.211  26.370  27.022
27734W        W28598  16.904  28.515  27.969
27735W        W28599  17.610  27.279  26.674
27736W        W28600  16.761  25.982  26.504
27737W        W28601  15.154  28.530  26.189
27738W        W28602  14.768  26.182  26.701
27739W        W28603  17.223  26.902  27.256
27740W        W28604  14.934  28.338  27.157
27741W        W28605  16.228  28.717  25.985
27742W        W28606  17.328  26.772  25.584
27743W        W28607  14.750  28.523  27.891
27744W        W28608  15.554  28.111  28.234
27745W        W28609  15.826  27.603  26.745
27746W        W28610  16.002  25.915  27.896
27747W        W28611  18.096  25.629  27.360
27748W        W28612  15.306  27.521  25.494
27749W        W28613  15.031  26.716  25.820
27750W        W28614  15.192  28.387  26.690
27751W        W28615  16.066  28.063  26.790
27752W        W28616  17.604  28.739  28.545
27753W        W28617  16.494  26.479  26.229
27754W        W28618  17.736  28.868  26.937
27755W        W28619  17.459  26.822  28.402
27756W        W28620  18.299  28.260  26.678
27757W        W28621  16.815  27.595  28.331
27758W        W28622  14.499  27.309  26.417
27759W        W28623  15.699  27.698  27.957
27760W        W28624  16.791  26.878  26.446
27761W        W28625  16.731  27.371  26.591
27762W        W28626  15.230  26.801  27.797
27763W        W28627  15.117  26.690  28.852
27764W        W28628  14.951  25.824  27.067
27765W        W28629  16.782  26.152  27.524
27766W        W28630  16.421  26.215  28.790
27767W        W28631  16.921  26.006  26.009
27768W        W28632  18.057  28.577  28.748
27769W        W28633  16.906  25.635  28.627
27770W        W28634  17.865  28.089  28.870
27771W        W28635  17.574  26.329  28.317
27772W        W28636  17.152  26.190  26.746
27773W        W28637  17.569  27.333  28.988
27774W        W28638  15.157  28.793  27.000
27775W        W28639  16.010  26.577  26.371
27776W        W28640  15.514  25.901  28.801
27777W        W28641  17.530  26.442  26.429
27778W        W28642  17.830  26.858  26.468
27779W        W28643  15.698  28.989   0.050
27780W        W28644  15.698  25.650  26.161
27781W        W28645  18.070  26.032  27.005
27782W        W28646  18.041  28.295  25.730
27783W        W28647  14.827  27.593  27.267
27784W        W28648  16.996  26.121  25.518
27785W        W28649  18.166  28.434  27.435
27786W        W28650  18.083  25.783  27.903
27787W        W28651  16.454  26.724  28.920
27788W        W28652  16.681  28.203  26.451
27789W        W28653  17.108  27.471   0.132
27790W        W28654  16.866  25.634  27.390
27791W        W28655  15.218  26.635  27.262
27792W        W28656  14.887  27.681  28.223
27793W        W28657  16.947  28.581  26.702
27794W        W28658  17.964  26.564  27.801
27795W        W28659  16.647  28.834  28.305
27796W        W28660  17.832  27.756  25.721
27797W        W28661  16.245  27.310  26.735
27798W        W28662  18.223  25.725  28.401
27799W        W28663  16.410  27.665  28.036
27800W        W28664  16.524  26.600  27.363
27801W        W28665  17.273  26.839  26.219
27802W        W28666  17.711  26.707  25.999
27803W        W28667  17.036  28.583  26.198
27804W        W28668  17.224  28.066  27.309
27805W        W28669  17.171  27.316  26.334
27806W        W28670  16.646  27.400  27.098
27807W        W28671  17.592  27.293  27.205
27808W        W28672  15.023  26.348  27.671
27809W        W28673  17.631  27.318  28.459
27810W        W28674  18.067  28.928  27.700
27811W        W28675  15.972  28.427  27.137
27812W        W28676  17.161  28.889  28.293
27813W        W28677  17.008  26.254  27.996
27814W        W28678  16.233   0.013  28.051
27815W        W28679  17.853  26.051  26.525
27816W        W28680  17.645  27.137  27.986
27817W        W28681  14.786  26.635  28.025
27818W        W28682  17.607  26.319  26.943
27819W        W28683  17.976  26.498  28.632
27820W        W28684  16.821  28.182  27.002
27821W        W28685  16.109  28.801  26.663
27822W        W28686  15.144  26.233  25.919
27823W        W28687  16.371  25.673  27.533
27824W        W28688  15.242  28.941  25.658
27825W        W28689  15.897  27.416  26.262
27826W        W28690  16.392  27.833  28.545
27827W        W28691  16.283  26.122  26.586
27828W        W28692  17.500  25.825  26.854
27829W        W28693  17.419   0.055  27.295
27830W        W28694  16.497  28.733  27.615
27831W        W28695  16.066  27.798  27.608
27832W        W28696  17.861  28.459  27.864
27833W        W28697  15.437  26.129  26.345
27834W        W28698  16.104  28.360  27.620
27835W        W28699  15.443  26.458  25.553
27836W        W28700  16.291  26.921  27.721
27837W        W28701  17.214  25.875  27.714
27838W        W28702  14.663  27.572  27.785
27839W        W28703  16.248  27.305  25.878
27840W        W28704  15.616  26.026  25.790
27841W        W28705  16.281  26.795  26.756
27842W        W28706  17.247  25.913  28.302
27843W        W28707  15.924  27.658  28.406
27844W        W28708  16.676  27.474  28.827
27845W        W28709  17.222  27.567  28.632
27846W        W28710  16.538  25.765   0.035
27847W        W28711  15.781  26.195  27.239
27848W        W28712  15.265  26.312  26.819
27849W        W28713  14.852  28.758  26.556
27850W        W28714  16.481  28.317  28.673
27851W        W28715  15.474  27.714  26.104
27852W        W28716  17.101  27.405  27.342
27853W        W28717  17.193  27.087  27.758
27854W        W28718  16.432  27.431  27.581
27855W        W28719  16.978  28.105  25.846
27856W        W28720  16.630  26.033  27.041
27857W        W28721  18.136  26.467  26.263
27858W        W28722  14.832  28.855  28.492
27859W        W28723  15.056  28.126  28.022
27860W        W28724  14.509  28.902  26.189
27861W        W28725  16.557  26.508  27.883
27862W        W28726  15.916  28.300  25.893
27863W        W28727  17.706  28.670  26.018
27864W        W28728  16.726  27.240  26.078
27865W        W28729  15.478  26.650  26.483
27866W        W28730  16.595  26.339  25.735
27867W        W28731  16.898  27.958  28.722
27868W        W28732  17.364  25.969  26.318
27869W        W28733  14.694  25.902  25.720
27870W        W28734  16.072  28.048  28.050
27871W        W28735  15.777  27.955  27.200
27872W        W28736  15.630  27.923  25.659
27873W        W28737  14.649  28.399  26.229
27874W        W28738  15.198  27.174  28.617
27875W        W28739  16.029  25.903  28.886
27876W        W28740  16.514  25.997  27.927
27877W        W28741  15.929  25.743  26.626
27878W        W28742  16.755  25.555  26.222
27879W        W28743  14.958  25.840  27.596
27880W        W28744  14.912  26.677  26.823
27881W        W28745  17.681  25.965  27.337
27882W        W28746  15.003  26.489  26.339
27883W        W28747  17.668  26.126  27.840
27884W        W28748  17.763  27.061  25.628
27885W        W28749  15.286  26.129  27.307
27886W        W28750  16.569  26.544  28.410
27887W        W28751  14.622  26.399  25.847
27888W        W28752  15.380  27.588  28.344
27889W        W28753  16.752  27.048  27.491
27890W        W28754  16.603   0.071  25.985
27891W        W28755  14.714  27.749  25.547
27892W        W28756  15.589  27.917  28.727
27893W        W28757  14.983  27.175  28.126
27894W        W28758  16.048  27.309  28.010
27895W        W28759  17.701  25.632  28.251
27896W        W28760  18.163  27.311  28.367
27897W        W28761  18.105  27.329  25.932
27898W        W28762  16.912  27.765  26.287
27899W        W28763  17.569   0.017  25.594
27900W        W28764  16.805  27.063   0.122
27901W        W28765  15.178  27.879   0.059
27902W        W28766  18.267  26.115  28.816
27903W        W28767  17.678  26.900  27.525
27904W        W28768  16.164  28.864  28.941
27905W        W28769  16.058  25.708  25.806
27906W        W28770  17.537  28.182  25.799
27907W        W28771  15.396  26.346  28.594
27908W        W28772  15.999  28.181  28.526
27909W        W28773  18.075  26.221  28.188
27910W        W28774  17.318   0.024  26.043
27911W        W28775  17.439  27.692  27.589
27912W        W28776  15.710  26.044  28.315
27913W        W28777  16.057  27.036  28.718
27914W        W28778  15.543  28.225  26.263
27915W        W28779  17.373  27.718  26.559
27916W        W28780  15.311  26.311  28.092
27917W        W28781  16.425  28.448  26.840
27918W        W28782  18.141  27.008  26.860
27919W        W28783  16.377  25.692  28.531
27920W        W28784  17.348  28.419  27.667
27921W        W28785  17.719  28.673  27.417
27922W        W28786  16.716  28.594  25.794
27923W        W28787  14.743  28.128  28.875
27924W        W28788  15.563  26.430  27.648
27925W        W28789  15.499  25.871  26.908
27926W        W28790  16.999  26.615  27.625
27927W        W28791  16.097  27.796  25.858
27928W        W28792  17.924  27.658  27.425
27929W        W28793  15.323  28.350  28.902
27930W        W28794  17.633   0.042  26.478
27931W        W28795  15.792  26.250  26.710
27932W        W28796  15.310  27.487  27.068
27933W        W28797  15.702   0.004  27.994
27934W        W28798  17.971   0.078  28.669
27935W        W28799  16.903  27.522  27.814
27936W        W28800  15.003  27.228  25.819
27937W        W28801  17.958  28.610  26.528
27938W        W28802  17.777  26.202  26.008
27939W        W28803  15.847  25.583  28.547
27940W        W28804  17.775  28.371  27.000
27941W        W28805  17.656  26.835  26.967
27942W        W28806  15.669  26.678  26.980
27943W        W28807  16.185  26.854  28.229
27944W        W28808  17.181  27.997  28.303
27945W        W28809  15.734  26.581  28.270
27946W        W28810  15.720  28.863  27.035
27947W        W28811  15.299  28.842  28.747
27948W        W28812  15.404  28.411  25.734
27949W        W28813  17.794  27.998  26.669
27950W        W28814  15.253  26.768  28.316
27951W        W28815  18.196  26.814  25.845
27952W        W28816  15.931  27.915  26.324
27953W        W28817  16.725  27.012  28.560
27954W        W28818  16.953  26.754  28.117
27955W        W28819  15.441  27.268  27.893
27956W        W28820  17.557  28.881  27.890
27957W        W28821  17.417  25.687  28.731
27958W        W28822  15.084  25.886  28.506
27959W        W28823  15.456  27.068  27.402
27960W        W28824  15.893  26.689  25.609
27961W        W28825  14.724  28.334  28.381
27962W        W28826  15.946  27.247  27.524
27963W        W28827  16.095  26.239  25.739
27964W        W28828  15.417  27.169  26.192
27965W        W28829  14.803   0.037  28.018
27966W        W28830  17.629  27.216  26.118
27967W        W28831  17.822  25.990  28.611
27968W        W28832  17.302  28.165  26.805
27969W        W28833  14.792  27.122  28.935
27970W        W28834  17.791  25.697  26.016
27971W        W28835  17.306  28.136  26.267
27972W        W28836  16.308  27.028  26.304
27973W        W28837  17.381  25.928  25.797
27974W        W28838  17.439  26.633  27.915
27975W        W28839  14.970  27.081  27.139
27976W        W28840  15.505  27.994  26.757
27977W        W28841  17.197  26.712  26.737
27978W        W28842  16.252  26.175  27.498
27979W        W28843  18.170  28.056  27.985
27980W        W28844  18.136  26.133  27.534
27981W        W28845  14.625  28.727  27.014
27982W        W28846  15.064  28.013  26.361
27983W        W28847  15.225  25.631   0.166
27984W        W28848  16.362  28.411   0.177
27985W        W28849  18.010  27.509  26.937
27986W        W28850  17.328  27.698  25.937
27987W        W28851  16.747   0.118  27.861
27988W        W28852  17.412  27.868   0.005
27989W        W28853  16.199  25.491  26.264
27990W        W28854  16.971  26.467  27.140
27991W        W28855  14.792  28.031  27.561
27992W        W28856  15.934  26.094  26.210
27993W        W28857  15.640  27.394  28.758
27994W        W28858  16.669  26.450  26.728
27995W        W28859  17.054  28.013  27.810
27996W        W28860  15.198  28.534  28.305
27997W        W28861  15.815  28.471   0.020
27998W        W28862  15.630  26.492  26.021
27999W        W28863  16.995  26.417  26.323
28000W        W28864  16.946  28.444  28.488
28001W        W28865  15.801  27.191  27.043
28002W        W28866  15.236  28.812  27.854
28003W        W28867  18.061  28.827  25.658
28004W        W28868  14.895  27.591  28.733
28005W        W28869  16.775  27.812  27.386
28006W        W28870  15.346  27.537  26.562
28007W        W28871  15.845  28.513  28.048
28008W        W28872  16.125  25.844  27.093
28009W        W28873  14.642  27.922  26.036
28010W        W28874  16.352  26.798  25.825
28011W        W28875  14.885  27.411  26.758
28012W        W28876  16.212  26.171  28.314
28013W        W28877  17.805  25.961  25.534
28014W        W28878  17.984  27.556  28.801
28015W        W28879  16.645  28.783  28.833
28016W        W28880  18.173  27.902  28.486
28017W        W28881  17.632  28.536   0.035
28018W        W28882  15.354   0.044  27.406
28019W        W28883  18.227  27.777  26.555
28020W        W28884  16.748  26.908  26.976
28021W        W28885  16.442  25.623  26.738
28022W        W28886  15.718  28.461  26.692
28023W        W28887  16.047  26.444  27.886
28024W        W28888  15.848  25.619  27.504
28025W        W28889  14.811  28.674  25.833
28026W        W28890  16.514  27.805  26.794
28027W        W28891  15.655  28.552  28.533
28028W        W28892  14.944  27.520  26.239
28029W        W28893  14.795  26.314  27.205
28030W        W28894  16.349  28.077  27.236
28031W        W28895  14.759  26.019  26.216
28032W        W28896  17.126  27.194  28.272
28033W        W28897  17.290  26.400  25.918
28034W        W28898  17.731  28.133  27.458
28035W        W28899  16.764  28.737  27.150
28036W        W28900  15.783  28.709  26.249
28037W        W28901  17.013  25.604  25.654
28038W        W28902  14.883  28.809  27.459
28039W        W28903  17.021  26.603  28.981
28040W        W28904  15.070  26.136  28.977
28041W        W28905  14.964  27.019  26.425
28042W        W28906  15.869  26.958  26.036
28043W        W28907  17.190  27.067  28.769
28044W        W28908  15.581  27.581  27.482
28045W        W28909  16.984  25.679  26.874
28046W        W28910  16.260  28.836  27.148
28047W        W28911  17.390  28.452  28.174
28048W        W28912  17.271  28.568  27.141
28049W        W28913  17.025  27.720  26.930
28050W        W28914  16.417  25.958  26.099
28051W        W28915  18.166  25.642  26.667
28052W        W28916  15.747  27.403  25.769
28053W        W28917  18.065  26.502  26.770
28054W        W28918  16.612  27.692  25.869
28055W        W28919  17.643  27.834  28.477
28056W        W28920  17.256  28.603  25.734
28057W        W28921  15.909  26.367  28.707
28058W        W28922  15.768  26.879  27.843
28059W        W28923  17.846  28.298  28.363
28060W        W28924  16.733  26.051  28.390
28061W        W28925  14.778  26.869  28.496
28062W        W28926  16.625  27.153  28.036
28063W        W28927  15.003  27.901  26.871
28064W        W28928  14.994  27.226  27.615
28065W        W28929  17.363  27.583  28.081
28066W        W28930  17.169  28.771  28.811
28067W        W28931  17.084  26.431  28.491
28068W        W28932  17.447  28.572  26.537
28069W        W28933  16.379  28.473  28.049
28070W        W28934  15.662  28.645  27.553
28071W        W28935  17.593  28.031  27.962
28072W        W28936  16.510  27.919   0.043
28073W        W28937  15.254  27.944  27.320
28074W        W28938  17.562  27.779  27.062
28075W        W28939  17.047  28.823  27.566
28076W        W28940  15.187  28.384  27.594
28077W        W28941  15.946  26.705   0.090
28078W        W28942  16.556  28.722  26.385
28079W        W28943  16.018  28.009  28.998
28080W        W28944  16.161  28.371  26.379
28081W        W28945  15.459  26.981  25.676
28082W        W28946  18.281   3.714   3.372
28083W        W28947  18.696   2.601   2.966
28084W        W28948  21.434   2.160   0.761
28085W        W28949  21.656   3.305   2.661
28086W        W28950  19.538   3.315   0.331
28087W        W28951  19.416   1.501   1.107
28088W        W28952  19.018   1.186   1.287
28089W        W28953  19.973   2.171   0.759
28090W        W28954  19.741   3.315   3.032
28091W        W28955  18.345   0.863   3.064
28092W        W28956  18.990   0.144   2.858
28093W        W28957  20.861   0.517   1.811
28094W        W28958  20.443   1.196   0.450
28095W        W28959  21.019   0.908   3.365
28096W        W28960  18.652   0.475   2.614
28097W        W28961  18.439   3.240   3.507
28098W        W28962  19.974   2.546   0.404
28099W        W28963  18.509   1.211   2.010
28100W        W28964  19.423   1.345   3.269
28101W        W28965  21.648   1.023   1.778
28102W        W28966  21.518   2.093   2.538
28103W        W28967  19.792   1.535   1.521
28104W        W28968  20.503   2.827   2.001
28105W        W28969  18.843   2.151   2.268
28106W        W28970  18.184   1.623   1.957
28107W        W28971  19.386   1.767   2.900
28108W        W28972  21.556   1.528   3.208
28109W        W28973  19.068   2.869   1.665
28110W        W28974  20.324   2.669   2.673
28111W        W28975  19.522   1.122   1.813
28112W        W28976  19.620   1.993   1.690
28113W        W28977  20.518   2.942   3.425
28114W        W28978  19.952   2.112   3.486
28115W        W28979  19.855   1.955   3.001
28116W        W28980  18.250   1.222   3.469
28117W        W28981  20.966   2.735   3.247
28118W        W28982  18.639   0.121   1.144
28119W        W28983  19.181   2.571   2.236
28120W        W28984  21.775   2.507   1.553
28121W        W28985  21.225   0.821   2.053
28122W        W28986  21.466   0.852   0.207
28123W        W28987  21.875   1.586   2.420
28124W        W28988  19.780   3.291   2.119
28125W        W28989  21.646   2.628   0.677
28126W        W28990  18.851   3.573   0.631
28127W        W28991  19.000   3.311   1.054
28128W        W28992  19.091   0.398   2.356
28129W        W28993  21.487   1.408   2.714
28130W        W28994  20.776   1.703   1.229
28131W        W28995  20.827   1.504   0.317
28132W        W28996  20.058   2.667   2.229
28133W        W28997  20.052   1.130   1.697
28134W        W28998  20.439   3.110   2.449
28135W        W28999  21.300   1.841   1.171
28136W        W29000  20.319   0.528   1.013
28137W        W29001  18.770   2.918   0.749
28138W        W29002  18.322   0.584   1.339
28139W        W29003  20.769   1.429   1.702
28140W        W29004  18.549   2.916   1.757
28141W        W29005  19.883   3.036   0.603
28142W        W29006  21.153   1.271  28.990
28143W        W29007  18.352   2.994   2.271
28144W        W29008  19.149   2.678   2.733
28145W        W29009  19.259   1.966   1.300
28146W        W29010  19.596   0.438   2.480
28147W        W29011  21.727   0.121   1.777
28148W        W29012  18.786   1.958   0.190
28149W        W29013  18.630   1.022   0.404
28150W        W29014  18.740   2.878   1.268
28151W        W29015  19.543   2.399   1.299
28152W        W29016  21.187   3.249   2.912
28153W        W29017  20.097   0.891   0.733
28154W        W29018  21.483   3.285   1.408
28155W        W29019  21.075   1.368   3.092
28156W        W29020  21.847   2.802   1.128
28157W        W29021  20.504   2.196   2.733
28158W        W29022  18.302   1.681   1.123
28159W        W29023  19.289   2.185   2.539
28160W        W29024  20.425   1.398   0.916
28161W        W29025  20.278   1.873   1.070
28162W        W29026  18.770   1.309   2.458
28163W        W29027  18.703   1.253   3.179
28164W        W29028  18.620   0.242   1.625
28165W        W29029  20.407   0.547   2.070
28166W        W29030  20.169   0.674   3.282
28167W        W29031  20.502   0.540   0.514
28168W        W29032  21.707   3.153   3.176
28169W        W29033  20.584   0.214   3.170
28170W        W29034  21.481   2.676   3.285
28171W        W29035  21.131   0.676   2.926
28172W        W29036  20.701   0.664   1.324
28173W        W29037  21.184   1.806   3.448
28174W        W29038  18.814   3.323   1.538
28175W        W29039  19.590   1.082   0.799
28176W        W29040  19.210   0.422   3.318
28177W        W29041  21.093   0.895   1.040
28178W        W29042  21.424   1.381   0.949
28179W        W29043  19.301   3.490   3.293
28180W        W29044  19.258   0.001   0.554
28181W        W29045  21.454   0.551   1.667
28182W        W29046  21.753   2.828   0.199
28183W        W29047  18.441   2.052   1.795
28184W        W29048  20.597   0.534   0.009
28185W        W29049  21.757   2.996   1.795
28186W        W29050  21.677   0.234   2.462
28187W        W29051  20.274   1.499   3.115
28188W        W29052  20.209   2.665   0.845
28189W        W29053  20.460   1.988   3.683
28190W        W29054  20.299   0.157   1.729
28191W        W29055  18.986   1.020   1.784
28192W        W29056  18.572   2.170   2.722
28193W        W29057  20.377   3.229   1.486
28194W        W29058  21.578   1.182   2.259
28195W        W29059  20.276   3.394   2.856
28196W        W29060  21.484   2.243   0.252
28197W        W29061  19.767   1.913   1.175
28198W        W29062  21.829   0.240   2.949
28199W        W29063  20.022   2.257   2.547
28200W        W29064  20.268   1.057   2.166
28201W        W29065  20.921   1.331   0.810
28202W        W29066  21.327   1.299   0.459
28203W        W29067  21.353   2.962   1.031
28204W        W29068  20.794   2.445   1.752
28205W        W29069  20.670   1.804   0.707
28206W        W29070  20.140   1.953   1.584
28207W        W29071  21.184   1.792   1.705
28208W        W29072  18.773   0.818   2.239
28209W        W29073  21.251   1.829   2.924
28210W        W29074  21.693   3.384   2.127
28211W        W29075  19.565   2.857   1.554
28212W        W29076  20.775   3.466   2.675
28213W        W29077  20.569   0.812   2.521
28214W        W29078  19.878   3.615   2.587
28215W        W29079  21.425   0.515   1.153
28216W        W29080  21.379   1.680   2.264
28217W        W29081  18.382   0.982   2.550
28218W        W29082  21.087   0.919   1.568
28219W        W29083  21.485   1.035   3.084
28220W        W29084  20.397   2.673   1.511
28221W        W29085  19.645   3.173   1.049
28222W        W29086  18.722   0.514   0.533
28223W        W29087  19.985   0.221   2.148
28224W        W29088  18.983   3.317   0.195
28225W        W29089  19.131   1.788   0.616
28226W        W29090  19.994   2.448   3.045
28227W        W29091  19.815   0.619   1.111
28228W        W29092  21.052   0.278   1.400
28229W        W29093  20.885   3.525   1.683
28230W        W29094  20.290   3.319   1.995
28231W        W29095  19.649   2.290   2.160
28232W        W29096  21.453   2.970   2.299
28233W        W29097  19.034   0.360   0.915
28234W        W29098  19.594   2.801   2.051
28235W        W29099  19.302   0.910   0.057
28236W        W29100  19.993   1.450   2.374
28237W        W29101  20.804   0.203   2.219
28238W        W29102  18.320   2.068   2.300
28239W        W29103  19.814   1.668   0.170
28240W        W29104  19.267   0.437   0.248
28241W        W29105  19.933   1.429   1.020
28242W        W29106  20.788   0.370   2.708
28243W        W29107  19.504   2.321   2.965
28244W        W29108  20.346   2.006   3.178
28245W        W29109  20.852   2.139   3.139
28246W        W29110  20.197   0.337   3.666
28247W        W29111  19.414   0.686   2.070
28248W        W29112  18.852   0.682   1.383
28249W        W29113  18.492   3.288   1.085
28250W        W29114  20.135   2.944   3.072
28251W        W29115  18.724   2.401   0.484
28252W        W29116  20.648   1.933   1.761
28253W        W29117  20.887   1.672   2.130
28254W        W29118  20.013   1.936   2.092
28255W        W29119  20.687   2.519   0.190
28256W        W29120  20.199   0.608   1.516
28257W        W29121  21.978   0.999   0.992
28258W        W29122  18.450   3.377   2.983
28259W        W29123  18.639   2.598   2.434
28260W        W29124  18.234   3.626   0.787
28261W        W29125  20.055   0.666   2.440
28262W        W29126  19.511   2.757   0.365
28263W        W29127  21.391   3.089   0.513
28264W        W29128  20.176   1.725   0.582
28265W        W29129  19.279   0.784   1.066
28266W        W29130  20.175   0.830   0.211
28267W        W29131  20.491   2.519   3.143
28268W        W29132  20.865   0.410   0.894
28269W        W29133  18.369   0.167   0.368
28270W        W29134  19.636   2.619   2.552
28271W        W29135  19.325   2.411   1.770
28272W        W29136  19.204   2.315   0.231
28273W        W29137  18.246   2.881   0.827
28274W        W29138  19.015   1.672   3.269
28275W        W29139  19.717   0.383   3.467
28276W        W29140  20.285   0.451   2.822
28277W        W29141  19.522   0.182   1.172
28278W        W29142  20.395   0.077   0.782
28279W        W29143  18.616   0.336   2.121
28280W        W29144  18.487   1.087   1.365
28281W        W29145  21.254   0.166   1.972
28282W        W29146  18.775   0.861   0.912
28283W        W29147  21.214   0.462   2.422
28284W        W29148  21.613   1.748   0.384
28285W        W29149  19.002   0.510   1.852
28286W        W29150  20.159   1.000   2.860
28287W        W29151  18.219   0.670   0.443
28288W        W29152  19.010   2.124   2.980
28289W        W29153  20.320   1.544   1.946
28290W        W29154  20.129   3.411   0.344
28291W        W29155  18.316   2.264   0.092
28292W        W29156  19.148   2.568   3.233
28293W        W29157  18.683   1.680   2.857
28294W        W29158  19.695   1.871   2.493
28295W        W29159  21.300   0.193   2.870
28296W        W29160  21.829   1.837   2.872
28297W        W29161  21.900   2.144   0.549
28298W        W29162  20.461   2.262   0.588
28299W        W29163  21.145   3.521   0.197
28300W        W29164  20.284   1.497   3.653
28301W        W29165  18.734   2.592   3.527
28302W        W29166  21.945   0.647   3.525
28303W        W29167  21.233   1.320   1.906
28304W        W29168  19.761   3.527   3.523
28305W        W29169  19.698   0.188   0.276
28306W        W29170  21.201   2.667   0.249
28307W        W29171  19.087   0.930   3.226
28308W        W29172  19.599   2.824   3.029
28309W        W29173  21.594   0.676   2.708
28310W        W29174  20.959   3.657   0.697
28311W        W29175  21.086   2.158   2.073
28312W        W29176  19.233   0.604   2.829
28313W        W29177  19.829   1.626   3.403
28314W        W29178  19.170   2.568   0.707
28315W        W29179  20.946   2.156   0.974
28316W        W29180  18.818   0.919   2.793
28317W        W29181  19.975   2.845   1.273
28318W        W29182  21.735   1.481   1.358
28319W        W29183  20.055   0.171   3.169
28320W        W29184  21.041   2.778   2.041
28321W        W29185  21.268   3.223   1.877
28322W        W29186  20.349   2.910   0.371
28323W        W29187  18.335   2.784   3.284
28324W        W29188  19.207   0.980   2.450
28325W        W29189  19.094   0.234   1.431
28326W        W29190  20.809   1.134   2.156
28327W        W29191  19.654   2.130   0.351
28328W        W29192  21.582   2.048   1.952
28329W        W29193  18.827   3.042   3.211
28330W        W29194  21.371   3.648   1.052
28331W        W29195  19.389   0.677   1.550
28332W        W29196  18.947   2.003   1.711
28333W        W29197  19.433   3.665   2.284
28334W        W29198  21.421   3.582   3.227
28335W        W29199  20.496   1.965   2.274
28336W        W29200  18.448   1.585   0.410
28337W        W29201  21.737   3.290   0.895
28338W        W29202  21.516   0.901   0.745
28339W        W29203  19.512   0.177   2.980
28340W        W29204  21.324   2.806   1.560
28341W        W29205  21.186   1.383   1.389
28342W        W29206  19.670   1.072   1.315
28343W        W29207  19.819   1.453   2.887
28344W        W29208  20.856   2.554   2.782
28345W        W29209  19.533   1.030   2.852
28346W        W29210  19.330   3.293   1.442
28347W        W29211  18.796   3.574   3.316
28348W        W29212  19.003   2.807   0.269
28349W        W29213  21.427   2.471   1.159
28350W        W29214  19.102   1.338   2.860
28351W        W29215  21.821   1.337   0.642
28352W        W29216  19.463   2.158   0.835
28353W        W29217  20.687   1.729   2.880
28354W        W29218  20.510   1.458   2.430
28355W        W29219  19.049   1.735   2.506
28356W        W29220  21.212   3.439   2.376
28357W        W29221  21.053   0.368   3.351
28358W        W29222  18.740   0.529   3.120
28359W        W29223  19.145   1.396   2.105
28360W        W29224  19.423   1.323   0.368
28361W        W29225  18.303   2.904   2.782
28362W        W29226  19.646   1.572   2.023
28363W        W29227  19.688   0.767   0.382
28364W        W29228  18.883   1.653   1.080
28365W        W29229  18.453   3.517   2.479
28366W        W29230  21.174   1.745   0.657
28367W        W29231  21.530   0.547   3.225
28368W        W29232  20.934   2.602   1.272
28369W        W29233  18.462   1.684   3.332
28370W        W29234  21.361   0.398   0.665
28371W        W29235  21.121   2.594   0.751
28372W        W29236  19.653   1.701   0.673
28373W        W29237  20.995   0.475   0.325
28374W        W29238  21.177   0.999   2.539
28375W        W29239  18.594   1.581   1.576
28376W        W29240  18.994   2.427   1.373
28377W        W29241  20.721   1.175   1.273
28378W        W29242  19.912   0.703   1.943
28379W        W29243  21.751   2.569   2.449
28380W        W29244  21.702   0.669   2.185
28381W        W29245  18.275   3.327   1.582
28382W        W29246  18.565   2.483   0.981
28383W        W29247  18.753   0.364   3.604
28384W        W29248  19.832   3.008   3.477
28385W        W29249  21.696   1.996   1.451
28386W        W29250  20.998   2.183   0.448
28387W        W29251  20.368   3.633   2.391
28388W        W29252  21.189   2.312   3.479
28389W        W29253  19.776  28.977   0.768
28390W        W29254  20.547   0.955   1.726
28391W        W29255  18.302   2.511   1.994
28392W        W29256  19.505   0.438   0.721
28393W        W29257  19.448   1.994   3.355
28394W        W29258  20.222   1.017   1.214
28395W        W29259  20.701   2.451   2.299
28396W        W29260  18.775   3.070   2.663
28397W        W29261  19.319   2.988   3.472
28398W        W29262  19.163   0.826   0.555
28399W        W29263  20.616   0.909   0.847
28400W        W29264  20.644   3.012   2.925
28401W        W29265  19.267   1.560   1.625
28402W        W29266  18.974   3.430   2.337
28403W        W29267  21.696   3.359   0.178
28404W        W29268  18.509   2.191   3.242
28405W        W29269  20.324   2.327   1.926
28406W        W29270  18.967   2.165   0.930
28407W        W29271  19.364   3.065   2.429
28408W        W29272  19.764   0.321   1.623
28409W        W29273  18.202   2.379   0.600
28410W        W29274  19.936   1.291   0.486
28411W        W29275  18.625   2.037   1.295
28412W        W29276  19.800   0.594   2.933
28413W        W29277  21.570   0.339   0.207
28414W        W29278  21.611   2.054   3.285
28415W        W29279  20.244   3.381   3.392
28416W        W29280  21.821   2.376   2.919
28417W        W29281  21.262   3.121   3.433
28418W        W29282  19.006   3.688   1.887
28419W        W29283  21.881   2.273   1.049
28420W        W29284  20.321   1.489   1.423
28421W        W29285  20.044   0.137   1.221
28422W        W29286  19.246   2.837   1.149
28423W        W29287  19.716   1.025   2.310
28424W        W29288  19.476   0.151   2.030
28425W        W29289  18.444   3.252   0.503
28426W        W29290  20.066   2.339   1.241
28427W        W29291  19.229   3.174   2.908
28428W        W29292  18.543   1.973   0.752
28429W        W29293  18.530   0.729   1.790
28430W        W29294  19.868   2.452   1.713
28431W        W29295  18.312   0.371   0.848
28432W        W29296  21.007   1.482   2.579
28433W        W29297  20.918   0.980   0.394
28434W        W29298  21.504   2.555   1.991
28435W        W29299  20.032   2.932   1.787
28436W        W29300  19.260   3.072   0.678
28437W        W29301  20.619   0.080   0.280
28438W        W29302  18.584   3.377   1.994
28439W        W29303  20.497   1.106   3.364
28440W        W29304  18.622   0.866   3.513
28441W        W29305  18.541   1.318   0.849
28442W        W29306  19.073   1.282   0.766
28443W        W29307  20.713   1.610   3.390
28444W        W29308  19.283   1.925   2.087
28445W        W29309  20.555   0.164   1.287
28446W        W29310  19.857   3.340   1.527
28447W        W29311  20.974   2.979   2.519
28448W        W29312  20.831   2.994   1.623
28449W        W29313  20.568   2.208   1.336
28450W        W29314  20.017   0.402   0.607
28451W        W29315  21.774   0.129   1.236
28452W        W29316  19.305   1.774   0.125
28453W        W29317  21.544   0.998   1.281
28454W        W29318  20.146   2.083   0.211
28455W        W29319  21.295   2.339   2.944
28456W        W29320  20.865   3.073   0.285
28457W        W29321  19.567   0.839   3.341
28458W        W29322  19.466   1.424   2.505
28459W        W29323  21.447   2.822   2.796
28460W        W29324  20.638   0.734   3.041
28461W        W29325  18.295   1.347   2.920
28462W        W29326  20.205   1.787   2.683
28463W        W29327  18.489   2.472   1.496
28464W        W29328  18.701   1.692   2.091
28465W        W29329  20.968   2.049   2.560
28466W        W29330  20.815   3.373   3.262
28467W        W29331  20.644   1.211   2.862
28468W        W29332  20.996   3.306   1.220
28469W        W29333  19.923   3.061   2.593
28470W        W29334  19.283   3.241   1.951
28471W        W29335  21.227   2.507   2.437
28472W        W29336  20.148   2.585   3.538
28473W        W29337  18.811   2.483   1.888
28474W        W29338  21.267   2.287   1.600
28475W        W29339  20.801   3.238   2.107
28476W        W29340  18.875   2.966   2.150
28477W        W29341  19.973   1.144   3.348
28478W        W29342  20.205   3.195   0.979
28479W        W29343  19.628   2.512   3.442
28480W        W29344  19.677   2.643   0.863
28481W        W29345  18.927   1.443   0.266
28482W        W29346  18.266   3.637   7.083
28483W        W29347  18.695   2.575   6.513
28484W        W29348  21.360   2.055   4.293
28485W        W29349  21.711   3.280   6.241
28486W        W29350  19.260   3.384   3.808
28487W        W29351  19.592   1.430   4.708
28488W        W29352  19.046   1.472   5.123
28489W        W29353  19.933   2.016   4.423
28490W        W29354  19.716   3.309   6.670
28491W        W29355  18.294   0.798   6.577
28492W        W29356  19.015   0.059   6.477
28493W        W29357  20.798   0.483   5.263
28494W        W29358  20.353   1.238   4.103
28495W        W29359  21.043   0.861   6.947
28496W        W29360  18.409   0.520   6.148
28497W        W29361  18.411   3.164   7.219
28498W        W29362  19.751   2.674   3.925
28499W        W29363  18.443   1.211   5.629
28500W        W29364  19.486   1.386   6.808
28501W        W29365  21.748   0.966   5.338
28502W        W29366  21.434   2.050   6.056
28503W        W29367  19.990   1.343   5.242
28504W        W29368  20.464   2.808   5.608
28505W        W29369  18.922   2.120   5.765
28506W        W29370  18.138   1.648   5.553
28507W        W29371  19.416   1.770   6.440
28508W        W29372  21.601   1.551   6.755
28509W        W29373  19.085   2.919   5.184
28510W        W29374  20.249   2.707   6.369
28511W        W29375  19.609   1.316   5.579
28512W        W29376  19.722   2.124   5.198
28513W        W29377  20.692   3.115   7.057
28514W        W29378  19.947   2.089   7.149
28515W        W29379  19.951   1.928   6.628
28516W        W29380  18.159   1.138   6.955
28517W        W29381  20.991   2.950   6.662
28518W        W29382  18.708   0.306   4.716
28519W        W29383  19.217   2.549   5.773
28520W        W29384  21.595   2.412   5.135
28521W        W29385  21.363   0.754   5.597
28522W        W29386  21.476   0.900   3.628
28523W        W29387  21.978   1.509   6.003
28524W        W29388  19.850   3.193   5.774
28525W        W29389  21.478   2.653   4.133
28526W        W29390  18.613   3.619   4.320
28527W        W29391  19.043   3.557   4.640
28528W        W29392  19.088   0.424   5.940
28529W        W29393  21.519   1.380   6.250
28530W        W29394  20.882   1.708   4.862
28531W        W29395  20.756   1.554   3.931
28532W        W29396  20.066   2.685   5.888
28533W        W29397  19.923   0.883   4.998
28534W        W29398  20.307   3.147   6.064
28535W        W29399  21.405   1.716   4.701
28536W        W29400  19.939   0.504   4.653
28537W        W29401  18.938   3.233   4.238
28538W        W29402  18.366   0.660   4.854
28539W        W29403  20.825   1.326   5.251
28540W        W29404  18.585   2.939   5.296
28541W        W29405  19.726   3.204   3.950
28542W        W29406  21.174   1.330   3.608
28543W        W29407  18.426   2.956   5.821
28544W        W29408  19.141   2.610   6.267
28545W        W29409  19.505   1.966   4.750
28546W        W29410  19.600   0.503   5.952
28547W        W29411  21.789   0.223   5.516
28548W        W29412  18.969   2.132   3.497
28549W        W29413  18.730   1.009   4.009
28550W        W29414  18.738   2.871   4.791
28551W        W29415  19.562   2.493   4.800
28552W        W29416  21.277   3.341   6.510
28553W        W29417  19.934   0.969   4.289
28554W        W29418  21.453   3.444   5.335
28555W        W29419  21.117   1.395   6.610
28556W        W29420  21.846   2.838   4.946
28557W        W29421  20.447   2.204   6.504
28558W        W29422  18.333   1.702   4.698
28559W        W29423  19.327   2.150   6.081
28560W        W29424  20.524   1.478   4.516
28561W        W29425  20.404   1.948   4.664
28562W        W29426  18.746   1.287   6.078
28563W        W29427  18.735   1.252   6.749
28564W        W29428  18.605   0.221   5.221
28565W        W29429  20.393   0.606   5.539
28566W        W29430  20.228   0.659   6.817
28567W        W29431  20.590   0.530   4.041
28568W        W29432  21.707   3.259   6.786
28569W        W29433  20.568   0.114   6.722
28570W        W29434  21.546   2.609   6.935
28571W        W29435  21.086   0.891   6.418
28572W        W29436  20.788   0.606   4.737
28573W        W29437  21.211   1.724   7.030
28574W        W29438  18.821   3.358   5.064
28575W        W29439  19.497   1.271   4.232
28576W        W29440  19.121   0.421   6.854
28577W        W29441  21.188   0.910   4.564
28578W        W29442  21.527   1.291   4.444
28579W        W29443  19.239   3.486   6.833
28580W        W29444  19.203   0.110   4.297
28581W        W29445  21.562   0.511   5.163
28582W        W29446  21.675   2.908   3.708
28583W        W29447  18.615   2.073   5.361
28584W        W29448  20.623   0.618   3.533
28585W        W29449  21.676   2.942   5.425
28586W        W29450  21.588   0.323   6.027
28587W        W29451  20.285   1.504   6.651
28588W        W29452  20.014   2.539   4.388
28589W        W29453  20.811   1.865   7.293
28590W        W29454  20.379   0.112   5.370
28591W        W29455  18.879   1.047   5.381
28592W        W29456  18.611   2.139   6.246
28593W        W29457  20.265   3.232   5.010
28594W        W29458  21.651   1.171   5.795
28595W        W29459  20.371   3.579   6.450
28596W        W29460  21.507   2.044   3.802
28597W        W29461  19.964   1.755   4.889
28598W        W29462  21.776   0.326   6.537
28599W        W29463  20.007   2.271   6.223
28600W        W29464  20.359   1.085   5.718
28601W        W29465  21.020   1.399   4.437
28602W        W29466  21.207   1.087   4.062
28603W        W29467  21.304   2.999   4.515
28604W        W29468  20.912   2.660   5.312
28605W        W29469  20.854   1.886   4.363
28606W        W29470  20.264   1.987   5.249
28607W        W29471  21.270   1.709   5.231
28608W        W29472  18.731   0.818   5.839
28609W        W29473  21.283   1.916   6.549
28610W        W29474  21.779   3.346   5.716
28611W        W29475  19.584   2.934   5.094
28612W        W29476  20.841   3.467   6.244
28613W        W29477  20.633   0.812   6.124
28614W        W29478  19.901   3.540   6.213
28615W        W29479  21.508   0.499   4.624
28616W        W29480  21.365   1.620   5.744
28617W        W29481  18.307   1.017   6.100
28618W        W29482  21.136   0.830   5.101
28619W        W29483  21.513   1.054   6.652
28620W        W29484  20.429   2.669   5.105
28621W        W29485  19.765   3.288   4.757
28622W        W29486  18.838   0.459   4.114
28623W        W29487  19.977   0.320   5.649
28624W        W29488  18.758   3.550   3.821
28625W        W29489  19.482   1.794   4.250
28626W        W29490  20.028   2.421   6.733
28627W        W29491  19.560   0.887   4.629
28628W        W29492  21.152   0.300   4.944
28629W        W29493  20.970   3.551   5.493
28630W        W29494  20.295   3.317   5.560
28631W        W29495  19.681   2.246   5.708
28632W        W29496  21.528   2.924   5.924
28633W        W29497  19.161   0.534   4.611
28634W        W29498  19.648   2.752   5.608
28635W        W29499  19.080   0.749   3.711
28636W        W29500  20.012   1.426   5.918
28637W        W29501  20.764   0.274   5.737
28638W        W29502  18.369   2.058   5.814
28639W        W29503  19.890   1.770   3.894
28640W        W29504  19.272   0.291   3.814
28641W        W29505  20.109   1.267   4.737
28642W        W29506  20.785   0.267   6.255
28643W        W29507  19.559   2.266   6.520
28644W        W29508  20.382   1.914   6.953
28645W        W29509  20.850   2.050   6.800
28646W        W29510  20.194   0.281   7.203
28647W        W29511  19.394   0.838   5.574
28648W        W29512  18.859   0.721   4.988
28649W        W29513  18.437   3.298   4.679
28650W        W29514  20.093   2.939   6.822
28651W        W29515  19.068   1.980   3.981
28652W        W29516  20.779   1.836   5.382
28653W        W29517  20.843   1.433   5.741
28654W        W29518  20.180   2.065   5.771
28655W        W29519  20.696   2.451   3.616
28656W        W29520  20.342   0.522   5.010
28657W        W29521  21.899   0.941   4.465
28658W        W29522  18.418   3.340   6.650
28659W        W29523  18.710   2.555   5.951
28660W        W29524  18.073   3.482   4.339
28661W        W29525  20.134   0.679   5.982
28662W        W29526  19.302   2.929   4.041
28663W        W29527  21.301   3.179   4.003
28664W        W29528  20.343   1.791   4.148
28665W        W29529  19.105   1.103   4.711
28666W        W29530  20.226   0.860   3.774
28667W        W29531  20.554   2.644   6.803
28668W        W29532  21.064   0.480   4.312
28669W        W29533  18.410   0.184   3.945
28670W        W29534  19.621   2.584   6.112
28671W        W29535  19.365   2.481   5.286
28672W        W29536  19.208   2.521   3.753
28673W        W29537  18.113   2.972   4.399
28674W        W29538  19.051   1.684   6.829
28675W        W29539  19.638   0.357   7.084
28676W        W29540  20.314   0.412   6.371
28677W        W29541  19.523   0.187   4.774
28678W        W29542  20.412   0.306   4.494
28679W        W29543  18.630   0.314   5.738
28680W        W29544  18.469   1.113   5.062
28681W        W29545  21.281   0.252   5.595
28682W        W29546  18.720   0.801   4.489
28683W        W29547  21.103   0.578   5.992
28684W        W29548  21.660   1.568   3.696
28685W        W29549  18.988   0.550   5.448
28686W        W29550  20.146   1.033   6.389
28687W        W29551  18.318   0.700   3.924
28688W        W29552  19.048   2.136   6.525
28689W        W29553  20.365   1.581   5.565
28690W        W29554  20.126   3.520   3.916
28691W        W29555  18.527   1.994   3.769
28692W        W29556  19.170   2.606   6.764
28693W        W29557  18.689   1.674   6.454
28694W        W29558  19.752   1.859   6.047
28695W        W29559  21.268   0.384   6.443
28696W        W29560  21.769   1.826   6.352
28697W        W29561  21.742   1.712   4.203
28698W        W29562  20.562   2.261   4.127
28699W        W29563  21.144   3.553   3.654
28700W        W29564  20.345   1.481   7.297
28701W        W29565  18.749   2.585   7.047
28702W        W29566  21.899   0.706   7.209
28703W        W29567  21.292   1.224   5.424
28704W        W29568  19.797   3.350   7.177
28705W        W29569  19.753   0.157   3.929
28706W        W29570  21.132   2.738   3.755
28707W        W29571  19.184   0.933   6.746
28708W        W29572  19.642   2.764   6.628
28709W        W29573  21.552   0.808   6.193
28710W        W29574  20.894   3.554   4.108
28711W        W29575  21.039   2.158   5.753
28712W        W29576  19.300   0.579   6.385
28713W        W29577  19.912   1.595   7.030
28714W        W29578  19.128   2.643   4.450
28715W        W29579  21.142   2.150   4.747
28716W        W29580  18.793   0.849   6.385
28717W        W29581  20.000   2.821   4.821
28718W        W29582  21.675   1.403   5.096
28719W        W29583  20.016   0.198   6.732
28720W        W29584  20.898   2.665   5.823
28721W        W29585  21.174   3.052   5.547
28722W        W29586  20.203   3.011   3.841
28723W        W29587  18.348   2.820   6.822
28724W        W29588  19.197   0.965   6.045
28725W        W29589  19.085   0.236   5.049
28726W        W29590  20.849   0.903   5.586
28727W        W29591  19.556   2.150   3.833
28728W        W29592  21.553   2.072   5.549
28729W        W29593  18.836   3.029   6.745
28730W        W29594  21.272   3.622   4.601
28731W        W29595  19.401   0.634   5.073
28732W        W29596  19.134   2.011   5.229
28733W        W29597  19.476   3.546   5.868
28734W        W29598  21.358   3.653   6.906
28735W        W29599  20.642   1.873   5.918
28736W        W29600  18.537   1.477   3.842
28737W        W29601  21.591   3.270   4.844
28738W        W29602  21.550   0.718   4.144
28739W        W29603  19.522   0.159   6.587
28740W        W29604  21.330   2.862   5.059
28741W        W29605  21.210   1.298   4.907
28742W        W29606  19.469   1.134   5.117
28743W        W29607  19.842   1.472   6.413
28744W        W29608  20.766   2.648   6.331
28745W        W29609  19.557   1.048   6.422
28746W        W29610  19.348   3.414   5.060
28747W        W29611  18.764   3.494   7.000
28748W        W29612  18.869   3.046   3.743
28749W        W29613  21.492   2.530   4.641
28750W        W29614  19.121   1.338   6.426
28751W        W29615  21.753   1.169   3.989
28752W        W29616  19.536   2.344   4.303
28753W        W29617  20.690   1.725   6.451
28754W        W29618  20.499   1.359   6.136
28755W        W29619  19.036   1.726   6.081
28756W        W29620  21.284   3.431   5.913
28757W        W29621  21.034   0.304   6.908
28758W        W29622  18.619   0.378   6.634
28759W        W29623  19.108   1.358   5.700
28760W        W29624  19.414   1.122   3.748
28761W        W29625  18.334   2.917   6.325
28762W        W29626  19.869   1.759   5.533
28763W        W29627  19.716   0.722   3.855
28764W        W29628  19.105   1.624   4.607
28765W        W29629  18.457   3.403   6.120
28766W        W29630  21.262   1.618   4.035
28767W        W29631  21.494   0.594   6.868
28768W        W29632  20.957   2.628   4.794
28769W        W29633  18.402   1.627   6.917
28770W        W29634  21.500   0.218   4.177
28771W        W29635  21.028   2.438   4.300
28772W        W29636  19.949   1.506   4.327
28773W        W29637  21.076   0.612   3.815
28774W        W29638  21.170   1.109   5.957
28775W        W29639  18.546   1.599   5.195
28776W        W29640  19.012   2.435   4.917
28777W        W29641  20.737   1.114   4.800
28778W        W29642  19.923   0.841   5.506
28779W        W29643  21.785   2.486   6.049
28780W        W29644  21.851   0.690   5.766
28781W        W29645  18.316   3.386   5.169
28782W        W29646  18.641   2.384   4.537
28783W        W29647  18.649   0.385   7.244
28784W        W29648  19.764   2.837   7.230
28785W        W29649  21.742   1.908   5.098
28786W        W29650  20.974   2.044   3.878
28787W        W29651  20.439   3.646   5.938
28788W        W29652  21.203   2.230   7.114
28789W        W29653  19.876   0.050   4.418
28790W        W29654  20.400   1.014   5.191
28791W        W29655  18.335   2.513   5.528
28792W        W29656  19.568   0.480   4.292
28793W        W29657  19.517   1.918   6.914
28794W        W29658  20.337   0.830   4.586
28795W        W29659  20.488   2.383   6.011
28796W        W29660  18.822   3.009   6.210
28797W        W29661  19.368   3.025   6.980
28798W        W29662  19.197   0.854   4.207
28799W        W29663  20.751   0.952   4.306
28800W        W29664  20.526   3.108   6.546
28801W        W29665  19.526   1.647   5.175
28802W        W29666  18.983   3.426   5.966
28803W        W29667  21.648   3.415   3.703
28804W        W29668  18.581   2.111   6.771
28805W        W29669  20.590   2.305   5.515
28806W        W29670  19.093   2.125   4.485
28807W        W29671  19.368   3.021   5.986
28808W        W29672  19.860   0.408   5.155
28809W        W29673  18.274   2.223   4.183
28810W        W29674  19.885   1.254   3.857
28811W        W29675  18.744   1.977   4.860
28812W        W29676  19.833   0.609   6.411
28813W        W29677  21.554   0.392   3.710
28814W        W29678  21.629   2.033   6.929
28815W        W29679  20.264   3.414   6.947
28816W        W29680  21.616   2.320   6.495
28817W        W29681  21.271   3.156   7.025
28818W        W29682  19.070   3.572   5.482
28819W        W29683  21.758   2.080   4.624
28820W        W29684  20.424   1.546   5.033
28821W        W29685  20.149   0.051   4.883
28822W        W29686  19.225   3.073   4.705
28823W        W29687  19.737   0.994   5.961
28824W        W29688  19.473   0.289   5.481
28825W        W29689  18.401   3.228   4.026
28826W        W29690  20.075   2.302   4.870
28827W        W29691  19.270   3.107   6.473
28828W        W29692  18.663   1.854   4.307
28829W        W29693  18.468   0.699   5.386
28830W        W29694  20.078   2.436   5.422
28831W        W29695  18.321   0.416   4.392
28832W        W29696  21.080   1.654   6.150
28833W        W29697  20.752   1.043   3.803
28834W        W29698  21.360   2.554   5.598
28835W        W29699  20.036   2.933   5.346
28836W        W29700  19.438   3.383   4.337
28837W        W29701  20.676   0.139   3.685
28838W        W29702  18.604   3.375   5.593
28839W        W29703  20.578   1.051   7.104
28840W        W29704  18.730   0.783   6.932
28841W        W29705  18.499   1.346   4.346
28842W        W29706  19.016   1.459   4.108
28843W        W29707  20.729   1.519   6.926
28844W        W29708  19.367   1.813   5.671
28845W        W29709  20.675   0.119   4.899
28846W        W29710  19.830   3.404   5.277
28847W        W29711  21.084   3.016   6.157
28848W        W29712  20.704   3.132   5.287
28849W        W29713  20.683   2.211   5.011
28850W        W29714  20.081   0.492   4.150
28851W        W29715  21.821   0.131   4.825
28852W        W29716  19.392   1.637   3.737
28853W        W29717  21.593   0.953   4.864
28854W        W29718  20.067   2.249   3.964
28855W        W29719  21.135   2.452   6.647
28856W        W29720  20.826   3.167   3.757
28857W        W29721  19.699   0.810   6.853
28858W        W29722  19.471   1.428   6.056
28859W        W29723  21.478   2.857   6.483
28860W        W29724  20.713   0.613   6.628
28861W        W29725  18.294   1.336   6.492
28862W        W29726  20.233   1.799   6.219
28863W        W29727  18.489   2.448   5.032
28864W        W29728  18.690   1.663   5.688
28865W        W29729  20.918   2.155   6.263
28866W        W29730  20.835   3.513   6.759
28867W        W29731  20.643   1.127   6.586
28868W        W29732  21.083   3.321   4.993
28869W        W29733  19.843   3.026   6.252
28870W        W29734  19.398   3.184   5.507
28871W        W29735  21.267   2.524   6.143
28872W        W29736  20.193   2.545   7.201
28873W        W29737  18.853   2.518   5.419
28874W        W29738  21.138   2.207   5.256
28875W        W29739  20.751   3.203   5.807
28876W        W29740  18.937   2.979   5.687
28877W        W29741  20.100   1.132   6.933
28878W        W29742  20.065   3.141   4.347
28879W        W29743  19.587   2.420   7.007
28880W        W29744  19.624   2.878   4.437
28881W        W29745  18.960   1.280   3.613
28882W        W29746  18.244   3.691  10.641
28883W        W29747  18.696   2.572  10.182
28884W        W29748  21.648   2.280   7.988
28885W        W29749  21.780   3.325  10.101
28886W        W29750  19.306   3.371   7.358
28887W        W29751  19.436   1.380   8.399
28888W        W29752  19.004   1.265   8.700
28889W        W29753  19.907   2.016   8.069
28890W        W29754  19.709   3.341  10.211
28891W        W29755  18.277   0.802  10.268
28892W        W29756  18.843   0.115  10.095
28893W        W29757  21.004   0.584   9.156
28894W        W29758  20.478   1.088   7.641
28895W        W29759  20.981   0.836  10.687
28896W        W29760  18.506   0.495   9.891
28897W        W29761  18.449   3.234  10.748
28898W        W29762  19.591   2.625   7.675
28899W        W29763  18.436   1.137   9.307
28900W        W29764  19.481   1.318  10.503
28901W        W29765  21.674   1.102   9.051
28902W        W29766  21.546   2.184   9.922
28903W        W29767  19.893   1.449   8.944
28904W        W29768  20.687   2.884   9.344
28905W        W29769  18.696   1.805   9.535
28906W        W29770  18.240   1.596   9.183
28907W        W29771  19.458   1.746  10.222
28908W        W29772  21.553   1.586  10.564
28909W        W29773  19.110   2.809   8.957
28910W        W29774  20.159   2.653  10.000
28911W        W29775  19.707   1.090   9.335
28912W        W29776  19.717   1.989   8.976
28913W        W29777  20.409   2.838  10.815
28914W        W29778  19.917   2.105  10.761
28915W        W29779  19.931   2.081  10.229
28916W        W29780  18.213   1.152  10.668
28917W        W29781  20.920   2.774  10.710
28918W        W29782  18.620   0.231   8.390
28919W        W29783  19.287   2.620   9.411
28920W        W29784  21.840   2.565   9.007
28921W        W29785  21.271   0.976   9.349
28922W        W29786  21.395   0.788   7.344
28923W        W29787  21.970   1.615   9.764
28924W        W29788  19.693   3.566   9.350
28925W        W29789  21.675   2.894   7.763
28926W        W29790  18.724   3.620   7.999
28927W        W29791  19.135   3.563   8.426
28928W        W29792  19.032   0.417   9.665
28929W        W29793  21.510   1.560   9.985
28930W        W29794  20.772   1.434   8.418
28931W        W29795  20.867   1.371   7.403
28932W        W29796  20.188   2.769   9.477
28933W        W29797  19.988   0.946   8.918
28934W        W29798  20.457   3.085   9.776
28935W        W29799  21.217   1.976   8.032
28936W        W29800  20.004   0.270   8.382
28937W        W29801  18.911   3.161   8.112
28938W        W29802  18.303   0.608   8.594
28939W        W29803  20.901   1.079   9.004
28940W        W29804  18.583   2.898   9.022
28941W        W29805  19.677   3.149   7.650
28942W        W29806  21.347   1.246   7.129
28943W        W29807  18.384   2.972   9.479
28944W        W29808  19.145   2.635   9.929
28945W        W29809  19.343   2.065   8.574
28946W        W29810  19.548   0.533   9.770
28947W        W29811  21.711   0.104   9.039
28948W        W29812  19.097   2.181   7.049
28949W        W29813  18.882   0.813   7.435
28950W        W29814  18.757   2.907   8.554
28951W        W29815  19.415   2.591   8.605
28952W        W29816  21.271   3.314  10.113
28953W        W29817  20.146   0.785   7.944
28954W        W29818  21.399   3.494   8.835
28955W        W29819  21.110   1.446  10.295
28956W        W29820  21.949   2.871   8.611
28957W        W29821  20.432   2.169  10.076
28958W        W29822  18.161   1.697   8.320
28959W        W29823  19.034   2.220   9.628
28960W        W29824  20.399   1.166   8.174
28961W        W29825  20.258   1.625   8.357
28962W        W29826  18.798   1.300   9.666
28963W        W29827  18.703   1.281  10.421
28964W        W29828  18.579   0.184   8.894
28965W        W29829  20.449   0.367   9.241
28966W        W29830  20.100   0.668  10.703
28967W        W29831  20.540   0.527   7.635
28968W        W29832  21.782   3.157  10.585
28969W        W29833  20.549   0.161  10.471
28970W        W29834  21.537   2.633  10.704
28971W        W29835  21.079   0.791  10.185
28972W        W29836  20.764   0.465   8.736
28973W        W29837  21.167   1.798  10.857
28974W        W29838  18.962   3.298   8.868
28975W        W29839  19.664   1.011   8.053
28976W        W29840  19.142   0.459  10.644
28977W        W29841  21.176   1.015   8.235
28978W        W29842  21.329   1.491   8.177
28979W        W29843  19.333   3.507  10.517
28980W        W29844  19.126   0.118   7.849
28981W        W29845  21.574   0.598   9.054
28982W        W29846  21.707   3.003   7.256
28983W        W29847  18.484   2.043   9.104
28984W        W29848  20.638   0.544   7.132
28985W        W29849  21.811   2.977   9.319
28986W        W29850  21.636   0.327   9.741
28987W        W29851  20.301   1.428  10.394
28988W        W29852  19.940   2.555   8.072
28989W        W29853  20.636   1.880  11.015
28990W        W29854  20.418  28.843   9.094
28991W        W29855  18.923   0.954   9.087
28992W        W29856  18.566   2.138   9.921
28993W        W29857  20.227   3.208   8.534
28994W        W29858  21.622   1.310   9.533
28995W        W29859  20.233   3.362  10.163
28996W        W29860  21.572   2.094   7.467
28997W        W29861  19.774   1.745   8.521
28998W        W29862  21.815   0.348  10.261
28999W        W29863  20.032   2.203   9.732
29000W        W29864  20.201   0.906   9.404
29001W        W29865  20.855   1.321   7.927
29002W        W29866  21.274   1.182   7.670
29003W        W29867  21.301   3.118   8.061
29004W        W29868  21.022   3.087   8.987
29005W        W29869  20.775   1.810   7.800
29006W        W29870  20.294   1.752   8.870
29007W        W29871  21.214   1.832   8.779
29008W        W29872  18.729   0.784   9.523
29009W        W29873  21.295   1.920  10.284
29010W        W29874  21.807   3.432   9.563
29011W        W29875  19.581   3.035   8.876
29012W        W29876  20.754   3.368  10.074
29013W        W29877  20.441   0.788   9.878
29014W        W29878  19.911   3.638   9.847
29015W        W29879  21.543   0.607   8.270
29016W        W29880  21.503   1.832   9.528
29017W        W29881  18.361   1.002   9.799
29018W        W29882  21.231   0.797   8.720
29019W        W29883  21.475   1.099  10.375
29020W        W29884  20.691   2.950   8.602
29021W        W29885  19.707   3.324   8.462
29022W        W29886  18.721   0.433   7.756
29023W        W29887  19.988   0.115   9.255
29024W        W29888  18.810   3.502   7.509
29025W        W29889  19.421   1.827   8.121
29026W        W29890  20.221   2.458  10.481
29027W        W29891  19.729   0.695   8.536
29028W        W29892  21.273   0.278   8.777
29029W        W29893  20.916   3.582   9.000
29030W        W29894  20.186   3.321   9.389
29031W        W29895  19.565   2.154   9.444
29032W        W29896  21.530   3.044   9.745
29033W        W29897  19.054   0.455   8.221
29034W        W29898  19.759   3.035   9.346
29035W        W29899  19.338   0.758   7.220
29036W        W29900  20.012   1.384   9.616
29037W        W29901  20.829   0.252   9.556
29038W        W29902  18.219   2.001   9.561
29039W        W29903  19.896   1.736   7.555
29040W        W29904  19.140   0.300   7.353
29041W        W29905  19.925   1.207   8.471
29042W        W29906  20.794   0.394  10.041
29043W        W29907  19.506   2.248   9.945
29044W        W29908  20.345   1.922  10.540
29045W        W29909  20.846   2.001  10.508
29046W        W29910  20.140   0.298  11.065
29047W        W29911  19.315   0.750   9.346
29048W        W29912  18.823   0.676   8.656
29049W        W29913  18.641   3.421   8.474
29050W        W29914  20.032   2.961  10.433
29051W        W29915  19.127   2.418   7.756
29052W        W29916  20.787   1.566   8.933
29053W        W29917  20.890   1.366   9.440
29054W        W29918  20.083   1.823   9.361
29055W        W29919  20.670   2.335   7.201
29056W        W29920  20.113   0.435   8.854
29057W        W29921  21.640   1.067   8.006
29058W        W29922  18.512   3.374  10.216
29059W        W29923  18.646   2.576   9.668
29060W        W29924  18.247   3.530   8.165
29061W        W29925  20.063   0.460   9.638
29062W        W29926  19.193   2.967   7.716
29063W        W29927  21.226   3.055   7.532
29064W        W29928  20.323   1.556   7.826
29065W        W29929  19.261   0.894   8.401
29066W        W29930  20.181   0.790   7.336
29067W        W29931  20.587   2.344  10.826
29068W        W29932  21.034   0.532   8.321
29069W        W29933  18.328   0.114   7.542
29070W        W29934  19.732   2.619   9.663
29071W        W29935  19.271   2.279   9.031
29072W        W29936  19.232   2.638   7.296
29073W        W29937  18.390   3.032   8.208
29074W        W29938  18.979   1.725  10.439
29075W        W29939  19.666   0.363  10.824
29076W        W29940  20.276   0.364  10.095
29077W        W29941  19.465   0.144   8.329
29078W        W29942  20.511   0.435   8.222
29079W        W29943  18.559   0.283   9.425
29080W        W29944  18.515   1.086   8.798
29081W        W29945  21.313   0.237   9.339
29082W        W29946  18.600   0.721   8.182
29083W        W29947  21.175   0.607   9.698
29084W        W29948  21.691   1.618   7.266
29085W        W29949  18.961   0.432   9.151
29086W        W29950  20.155   0.959  10.274
29087W        W29951  18.174   0.605   7.586
29088W        W29952  19.043   2.161  10.158
29089W        W29953  20.393   1.364   9.242
29090W        W29954  20.122   3.425   7.582
29091W        W29955  18.243   1.920   7.338
29092W        W29956  19.203   2.649  10.457
29093W        W29957  18.659   1.644  10.043
29094W        W29958  19.721   1.795   9.795
29095W        W29959  21.293   0.283  10.116
29096W        W29960  21.833   1.895  10.243
29097W        W29961  21.668   1.757   7.878
29098W        W29962  20.352   1.976   7.477
29099W        W29963  21.004   3.525   7.261
29100W        W29964  20.281   1.520  10.907
29101W        W29965  18.725   2.581  10.702
29102W        W29966  21.888   0.660  10.742
29103W        W29967  21.311   1.468   9.151
29104W        W29968  19.933   3.404  10.685
29105W        W29969  19.575   0.236   7.603
29106W        W29970  21.414   2.584   7.436
29107W        W29971  19.107   0.944  10.464
29108W        W29972  19.628   2.768  10.150
29109W        W29973  21.574   0.764   9.998
29110W        W29974  21.130   3.522   7.767
29111W        W29975  21.020   1.863   9.309
29112W        W29976  19.167   0.542  10.139
29113W        W29977  19.872   1.659  10.540
29114W        W29978  19.062   2.671   8.212
29115W        W29979  21.309   2.350   8.392
29116W        W29980  18.764   0.896  10.087
29117W        W29981  19.871   2.819   8.515
29118W        W29982  21.666   1.542   8.774
29119W        W29983  20.030   0.178  10.517
29120W        W29984  21.007   3.069   9.720
29121W        W29985  21.352   3.336   9.323
29122W        W29986  20.080   2.822   7.639
29123W        W29987  18.330   2.814  10.460
29124W        W29988  19.158   0.935   9.775
29125W        W29989  19.059   0.224   8.684
29126W        W29990  20.730   0.876   9.466
29127W        W29991  19.495   2.142   7.432
29128W        W29992  21.581   2.394   9.420
29129W        W29993  18.812   3.019  10.438
29130W        W29994  21.358   3.612   8.240
29131W        W29995  19.313   0.645   8.848
29132W        W29996  18.921   1.930   8.870
29133W        W29997  19.409   3.521   9.785
29134W        W29998  21.458   3.556  10.535
29135W        W29999  20.569   1.769   9.605
29136W        W30000  18.571   1.190   7.245
29137W        W30001  21.630   3.227   8.444
29138W        W30002  21.242   0.677   7.840
29139W        W30003  19.489   0.191  10.370
29140W        W30004  21.519   2.980   8.900
29141W        W30005  21.203   1.320   8.665
29142W        W30006  19.493   1.120   8.856
29143W        W30007  19.850   1.360  10.126
29144W        W30008  20.738   2.471  10.351
29145W        W30009  19.506   0.958  10.142
29146W        W30010  19.456   3.547   8.867
29147W        W30011  18.829   3.536  10.581
29148W        W30012  18.917   3.050   7.257
29149W        W30013  21.637   2.735   8.245
29150W        W30014  19.114   1.330  10.116
29151W        W30015  21.763   1.133   7.491
29152W        W30016  19.474   2.346   8.139
29153W        W30017  20.673   1.687  10.143
29154W        W30018  20.491   1.294   9.792
29155W        W30019  19.149   1.745   9.811
29156W        W30020  21.102   3.595   9.698
29157W        W30021  21.016   0.322  10.579
29158W        W30022  18.664   0.490  10.417
29159W        W30023  19.220   1.287   9.327
29160W        W30024  19.683   1.152   7.229
29161W        W30025  18.289   2.945   9.973
29162W        W30026  19.616   1.612   9.334
29163W        W30027  19.726   0.742   7.573
29164W        W30028  18.997   1.697   8.426
29165W        W30029  18.404   3.451   9.719
29166W        W30030  21.241   1.699   7.565
29167W        W30031  21.440   0.601  10.502
29168W        W30032  21.212   2.862   8.512
29169W        W30033  18.391   1.657  10.545
29170W        W30034  21.455   0.176   7.768
29171W        W30035  21.246   2.609   7.926
29172W        W30036  19.842   1.502   8.050
29173W        W30037  21.067   0.378   7.419
29174W        W30038  21.201   1.159   9.840
29175W        W30039  18.522   1.589   8.713
29176W        W30040  18.931   2.413   8.657
29177W        W30041  20.746   0.930   8.517
29178W        W30042  19.778   0.586   9.220
29179W        W30043  21.826   2.618   9.839
29180W        W30044  21.749   0.782   9.497
29181W        W30045  18.310   3.316   8.848
29182W        W30046  18.549   2.514   8.274
29183W        W30047  18.711   0.433  10.947
29184W        W30048  19.905   2.969  10.961
29185W        W30049  21.644   2.061   8.972
29186W        W30050  21.064   2.214   7.601
29187W        W30051  20.414   3.607   9.745
29188W        W30052  21.123   2.308  10.814
29189W        W30053  19.845  28.989   7.973
29190W        W30054  20.477   0.809   8.978
29191W        W30055  18.253   2.485   9.272
29192W        W30056  19.688   0.500   8.037
29193W        W30057  19.488   2.202  10.454
29194W        W30058  20.243   0.783   8.489
29195W        W30059  20.706   2.640   9.862
29196W        W30060  18.789   3.029   9.918
29197W        W30061  19.536   3.047  10.592
29198W        W30062  19.249   0.619   7.759
29199W        W30063  20.758   0.822   7.992
29200W        W30064  20.517   2.926  10.278
29201W        W30065  19.357   1.623   8.865
29202W        W30066  18.931   3.432   9.633
29203W        W30067  21.523   3.461   7.401
29204W        W30068  18.601   2.110  10.440
29205W        W30069  18.975   2.163   8.201
29206W        W30070  19.405   3.019   9.717
29207W        W30071  19.615   0.237   8.838
29208W        W30072  18.125   2.320   7.657
29209W        W30073  19.977   1.201   7.645
29210W        W30074  18.569   2.048   8.513
29211W        W30075  19.818   0.573  10.249
29212W        W30076  21.568   0.315   7.287
29213W        W30077  21.595   2.098  10.673
29214W        W30078  20.440   3.297  10.625
29215W        W30079  21.834   2.423  10.325
29216W        W30080  21.318   3.097  10.788
29217W        W30081  19.085   3.684   9.216
29218W        W30082  21.803   2.337   8.553
29219W        W30083  20.383   1.253   8.724
29220W        W30084  20.004  28.910   8.773
29221W        W30085  19.246   3.072   8.499
29222W        W30086  19.899   0.921   9.820
29223W        W30087  19.412   0.226   9.340
29224W        W30088  18.412   3.252   7.737
29225W        W30089  19.819   2.277   8.531
29226W        W30090  19.232   3.132  10.176
29227W        W30091  18.415   2.044   8.006
29228W        W30092  18.505   0.653   9.070
29229W        W30093  19.701   2.567   9.084
29230W        W30094  18.259   0.335   8.026
29231W        W30095  21.059   1.688   9.807
29232W        W30096  20.905   0.863   7.474
29233W        W30097  21.289   2.815   9.342
29234W        W30098  20.102   2.922   8.977
29235W        W30099  19.406   3.357   8.033
29236W        W30100  20.686   0.035   7.235
29237W        W30101  18.612   3.372   9.245
29238W        W30102  20.480   1.052  10.749
29239W        W30103  18.692   0.914  10.759
29240W        W30104  18.338   1.202   8.340
29241W        W30105  19.354   1.115   7.618
29242W        W30106  20.744   1.508  10.656
29243W        W30107  19.162   1.833   9.304
29244W        W30108  20.452   0.095   8.630
29245W        W30109  19.962   3.416   8.931
29246W        W30110  21.022   2.889  10.216
29247W        W30111  20.506   3.254   8.974
29248W        W30112  20.064   0.351   7.687
29249W        W30113  21.768   0.177   8.530
29250W        W30114  19.447   1.602   7.309
29251W        W30115  21.630   1.071   8.523
29252W        W30116  19.967   2.288   7.620
29253W        W30117  21.263   2.427  10.324
29254W        W30118  21.026   2.709   7.113
29255W        W30119  19.574   0.826  10.651
29256W        W30120  19.497   1.327   9.761
29257W        W30121  21.543   2.861  10.229
29258W        W30122  20.568   0.677  10.391
29259W        W30123  18.267   1.317  10.176
29260W        W30124  20.194   1.718   9.969
29261W        W30125  18.439   2.465   8.786
29262W        W30126  18.784   1.483   9.137
29263W        W30127  20.954   2.170   9.983
29264W        W30128  20.948   3.369  10.543
29265W        W30129  20.699   1.145  10.249
29266W        W30130  21.018   3.350   8.524
29267W        W30131  19.933   3.094   9.824
29268W        W30132  19.294   3.227   9.262
29269W        W30133  21.259   2.610   9.834
29270W        W30134  20.109   2.488  11.022
29271W        W30135  18.805   2.448   9.188
29272W        W30136  21.346   2.491   8.898
29273W        W30137  20.726   3.388   9.421
29274W        W30138  18.900   2.952   9.422
29275W        W30139  19.953   1.173  10.711
29276W        W30140  19.981   3.103   8.072
29277W        W30141  19.746   2.587  10.649
29278W        W30142  19.528   2.869   8.125
29279W        W30143  19.102   1.230   7.151
29280W        W30144  18.450   3.548  14.355
29281W        W30145  18.611   2.450  13.815
29282W        W30146  21.422   2.176  11.684
29283W        W30147  21.615   3.297  13.641
29284W        W30148  19.530   3.362  11.013
29285W        W30149  19.567   1.328  12.095
29286W        W30150  19.188   1.173  12.442
29287W        W30151  20.032   1.994  11.797
29288W        W30152  19.796   3.254  13.994
29289W        W30153  18.281   0.822  13.943
29290W        W30154  18.987   0.095  13.807
29291W        W30155  20.953   0.497  12.678
29292W        W30156  20.474   1.280  11.360
29293W        W30157  21.036   0.790  14.395
29294W        W30158  18.382   0.538  13.520
29295W        W30159  18.545   3.056  14.479
29296W        W30160  19.770   2.679  11.384
29297W        W30161  18.345   1.200  12.991
29298W        W30162  19.398   1.372  14.231
29299W        W30163  21.693   0.991  12.665
29300W        W30164  21.430   1.993  13.565
29301W        W30165  20.036   1.435  12.657
29302W        W30166  20.531   2.762  12.981
29303W        W30167  18.964   2.061  13.129
29304W        W30168  18.006   1.580  12.845
29305W        W30169  19.378   1.754  13.876
29306W        W30170  21.552   1.550  14.161
29307W        W30171  19.177   2.821  12.658
29308W        W30172  20.229   2.714  13.715
29309W        W30173  19.661   1.346  13.004
29310W        W30174  19.809   1.993  12.713
29311W        W30175  20.609   2.953  14.469
29312W        W30176  19.867   2.109  14.469
29313W        W30177  19.883   1.965  13.962
29314W        W30178  18.192   1.150  14.374
29315W        W30179  21.009   2.699  14.227
29316W        W30180  18.640   0.229  12.054
29317W        W30181  19.224   2.526  13.212
29318W        W30182  21.646   2.455  12.526
29319W        W30183  21.292   0.817  12.957
29320W        W30184  21.450   0.863  10.946
29321W        W30185  21.904   1.571  13.368
29322W        W30186  19.831   3.283  13.103
29323W        W30187  21.578   2.659  11.503
29324W        W30188  18.608   3.507  11.607
29325W        W30189  19.107   3.566  12.170
29326W        W30190  19.071   0.474  13.280
29327W        W30191  21.460   1.463  13.641
29328W        W30192  20.860   1.661  12.066
29329W        W30193  20.900   1.474  11.162
29330W        W30194  20.075   2.679  13.224
29331W        W30195  20.150   0.884  12.540
29332W        W30196  20.592   2.960  13.458
29333W        W30197  21.482   1.746  11.975
29334W        W30198  20.078   0.341  12.099
29335W        W30199  18.974   3.194  11.820
29336W        W30200  18.304   0.605  12.206
29337W        W30201  20.883   1.383  12.527
29338W        W30202  18.625   2.881  12.716
29339W        W30203  19.817   3.201  11.427
29340W        W30204  21.206   1.284  10.796
29341W        W30205  18.410   2.880  13.217
29342W        W30206  19.122   2.565  13.737
29343W        W30207  19.478   2.074  12.321
29344W        W30208  19.616   0.475  13.383
29345W        W30209  21.840   0.252  12.780
29346W        W30210  19.048   2.177  10.698
29347W        W30211  18.666   0.870  11.273
29348W        W30212  18.794   2.899  12.230
29349W        W30213  19.524   2.596  12.313
29350W        W30214  21.216   3.185  13.956
29351W        W30215  20.155   1.014  11.675
29352W        W30216  21.411   3.344  12.674
29353W        W30217  21.012   1.306  13.888
29354W        W30218  21.854   2.895  12.287
29355W        W30219  20.425   2.156  13.832
29356W        W30220  18.044   1.775  11.969
29357W        W30221  19.318   2.124  13.501
29358W        W30222  20.409   1.484  11.833
29359W        W30223  20.453   1.982  12.081
29360W        W30224  18.677   1.283  13.471
29361W        W30225  18.672   1.199  14.160
29362W        W30226  18.569   0.264  12.560
29363W        W30227  20.348   0.591  12.924
29364W        W30228  20.136   0.690  14.257
29365W        W30229  20.607   0.434  11.362
29366W        W30230  21.729   3.191  14.157
29367W        W30231  20.500   0.276  14.217
29368W        W30232  21.518   2.588  14.314
29369W        W30233  21.082   0.773  13.860
29370W        W30234  20.850   0.649  12.151
29371W        W30235  21.204   1.780  14.487
29372W        W30236  18.945   3.286  12.588
29373W        W30237  19.633   1.026  11.620
29374W        W30238  19.061   0.414  14.216
29375W        W30239  21.180   0.915  11.816
29376W        W30240  21.582   1.293  11.736
29377W        W30241  19.459   3.355  14.357
29378W        W30242  19.183   0.073  11.532
29379W        W30243  21.522   0.531  12.484
29380W        W30244  21.739   2.919  11.084
29381W        W30245  18.579   2.028  12.763
29382W        W30246  20.597   0.529  10.868
29383W        W30247  21.726   2.903  12.789
29384W        W30248  21.652   0.326  13.402
29385W        W30249  20.260   1.655  14.094
29386W        W30250  20.091   2.529  11.767
29387W        W30251  20.728   1.948  14.678
29388W        W30252  20.442   0.068  12.895
29389W        W30253  18.795   1.098  12.762
29390W        W30254  18.560   2.015  13.476
29391W        W30255  20.443   3.254  12.485
29392W        W30256  21.579   1.186  13.190
29393W        W30257  20.262   3.249  13.760
29394W        W30258  21.476   2.073  11.182
29395W        W30259  19.933   1.730  12.241
29396W        W30260  21.839   0.318  13.881
29397W        W30261  20.032   2.253  13.536
29398W        W30262  20.283   1.099  13.012
29399W        W30263  20.905   1.326  11.665
29400W        W30264  21.272   1.169  11.333
29401W        W30265  21.327   2.992  11.834
29402W        W30266  21.126   2.467  12.674
29403W        W30267  20.711   1.794  11.546
29404W        W30268  20.315   1.963  12.593
29405W        W30269  21.252   1.718  12.431
29406W        W30270  18.676   0.837  13.204
29407W        W30271  21.160   1.797  13.959
29408W        W30272  21.762   3.319  13.071
29409W        W30273  19.652   3.010  12.597
29410W        W30274  20.857   3.419  13.613
29411W        W30275  20.604   0.860  13.579
29412W        W30276  19.898   3.582  13.542
29413W        W30277  21.492   0.497  11.921
29414W        W30278  21.418   1.685  13.153
29415W        W30279  18.223   1.028  13.456
29416W        W30280  21.167   0.933  12.463
29417W        W30281  21.471   1.084  14.013
29418W        W30282  20.354   2.489  12.573
29419W        W30283  19.828   3.268  12.180
29420W        W30284  18.771   0.392  11.455
29421W        W30285  19.979   0.281  13.075
29422W        W30286  18.748   3.494  11.094
29423W        W30287  19.551   1.816  11.882
29424W        W30288  19.941   2.467  14.053
29425W        W30289  19.796   0.780  12.106
29426W        W30290  21.155   0.252  12.254
29427W        W30291  20.890   3.474  12.654
29428W        W30292  20.350   3.342  13.016
29429W        W30293  19.693   2.269  13.152
29430W        W30294  21.604   2.903  13.323
29431W        W30295  19.083   0.424  11.887
29432W        W30296  19.611   2.809  13.067
29433W        W30297  19.153   0.856  10.977
29434W        W30298  20.006   1.316  13.407
29435W        W30299  20.868   0.213  13.137
29436W        W30300  18.178   2.005  13.110
29437W        W30301  19.806   1.687  11.062
29438W        W30302  19.219   0.384  11.144
29439W        W30303  20.070   1.224  12.155
29440W        W30304  20.779   0.374  13.743
29441W        W30305  19.472   2.269  13.971
29442W        W30306  20.350   2.094  14.337
29443W        W30307  20.823   2.128  14.167
29444W        W30308  20.170   0.341  14.625
29445W        W30309  19.324   0.928  12.930
29446W        W30310  18.827   0.746  12.313
29447W        W30311  18.602   3.408  12.144
29448W        W30312  20.159   2.949  14.183
29449W        W30313  19.318   2.453  11.462
29450W        W30314  20.972   1.766  12.870
29451W        W30315  20.896   1.269  13.029
29452W        W30316  20.196   2.223  13.022
29453W        W30317  20.727   2.653  11.206
29454W        W30318  20.463   0.441  12.453
29455W        W30319  21.861   0.852  11.722
29456W        W30320  18.605   3.241  13.967
29457W        W30321  18.731   2.487  13.322
29458W        W30322  18.083   3.394  11.624
29459W        W30323  20.104   0.727  13.378
29460W        W30324  19.337   2.993  11.483
29461W        W30325  21.307   3.180  11.319
29462W        W30326  20.223   1.738  11.378
29463W        W30327  19.293   0.877  12.005
29464W        W30328  20.288   0.812  11.189
29465W        W30329  20.508   2.568  14.120
29466W        W30330  21.033   0.447  11.681
29467W        W30331  18.360   0.130  11.232
29468W        W30332  19.622   2.565  13.568
29469W        W30333  19.374   2.335  12.757
29470W        W30334  19.412   2.785  11.013
29471W        W30335  18.424   3.048  11.818
29472W        W30336  18.950   1.679  14.242
29473W        W30337  19.558   0.425  14.286
29474W        W30338  20.279   0.502  13.808
29475W        W30339  19.532   0.293  12.148
29476W        W30340  20.532   0.344  11.857
29477W        W30341  18.593   0.337  13.082
29478W        W30342  18.418   1.080  12.366
29479W        W30343  21.352   0.275  12.961
29480W        W30344  18.649   0.733  11.818
29481W        W30345  21.155   0.547  13.381
29482W        W30346  21.568   1.541  11.092
29483W        W30347  18.947   0.595  12.791
29484W        W30348  20.067   1.003  13.828
29485W        W30349  18.211   0.619  11.263
29486W        W30350  18.957   2.067  13.869
29487W        W30351  20.498   1.558  12.874
29488W        W30352  20.260   3.321  11.099
29489W        W30353  18.366   1.885  11.002
29490W        W30354  19.063   2.385  14.261
29491W        W30355  18.647   1.657  13.829
29492W        W30356  19.729   1.834  13.478
29493W        W30357  21.304   0.271  13.776
29494W        W30358  21.837   1.847  13.819
29495W        W30359  21.775   1.750  11.545
29496W        W30360  20.424   2.230  11.359
29497W        W30361  21.177   3.554  10.966
29498W        W30362  20.314   1.615  14.603
29499W        W30363  18.691   2.542  14.583
29500W        W30364  21.921   0.679  14.413
29501W        W30365  21.336   1.343  12.767
29502W        W30366  19.962   3.419  14.469
29503W        W30367  19.664   0.154  11.289
29504W        W30368  21.235   2.701  11.126
29505W        W30369  19.129   0.924  14.162
29506W        W30370  19.520   2.800  14.033
29507W        W30371  21.547   0.791  13.595
29508W        W30372  20.909   3.522  11.404
29509W        W30373  21.137   2.137  13.169
29510W        W30374  19.251   0.586  13.759
29511W        W30375  19.824   1.618  14.377
29512W        W30376  19.177   2.679  11.916
29513W        W30377  20.945   2.131  11.878
29514W        W30378  18.770   0.842  13.761
29515W        W30379  20.010   2.783  12.272
29516W        W30380  21.672   1.417  12.367
29517W        W30381  19.993   0.207  14.137
29518W        W30382  20.958   2.611  13.193
29519W        W30383  21.253   2.946  12.954
29520W        W30384  20.257   2.860  11.346
29521W        W30385  18.349   2.673  14.208
29522W        W30386  19.131   0.998  13.421
29523W        W30387  19.049   0.287  12.378
29524W        W30388  20.788   0.770  13.102
29525W        W30389  19.490   2.271  10.987
29526W        W30390  21.436   2.043  12.768
29527W        W30391  18.839   2.816  14.114
29528W        W30392  21.256   3.576  11.848
29529W        W30393  19.379   0.672  12.474
29530W        W30394  19.082   1.926  12.644
29531W        W30395  19.411   3.504  13.389
29532W        W30396  21.416   3.585  14.263
29533W        W30397  20.588   1.899  13.269
29534W        W30398  18.561   1.379  10.972
29535W        W30399  21.559   3.301  12.170
29536W        W30400  21.456   0.695  11.435
29537W        W30401  19.508   0.131  13.861
29538W        W30402  21.357   2.884  12.426
29539W        W30403  21.222   1.314  12.120
29540W        W30404  19.682   1.082  12.540
29541W        W30405  19.816   1.459  13.875
29542W        W30406  20.867   2.612  13.734
29543W        W30407  19.502   1.047  13.830
29544W        W30408  19.469   3.478  12.509
29545W        W30409  18.951   3.333  14.357
29546W        W30410  19.084   3.172  10.850
29547W        W30411  21.572   2.570  12.013
29548W        W30412  19.058   1.326  13.834
29549W        W30413  21.786   1.103  11.271
29550W        W30414  19.622   2.339  11.870
29551W        W30415  20.675   1.708  13.796
29552W        W30416  20.538   1.369  13.407
29553W        W30417  19.015   1.700  13.477
29554W        W30418  21.267   3.428  13.243
29555W        W30419  21.020   0.321  14.209
29556W        W30420  18.583   0.391  14.012
29557W        W30421  19.119   1.398  13.054
29558W        W30422  19.517   1.222  11.015
29559W        W30423  18.287   2.860  13.734
29560W        W30424  20.054   1.728  13.089
29561W        W30425  19.757   0.726  11.188
29562W        W30426  19.152   1.672  12.197
29563W        W30427  18.405   3.318  13.497
29564W        W30428  21.243   1.703  11.497
29565W        W30429  21.485   0.597  14.128
29566W        W30430  21.047   2.588  12.149
29567W        W30431  18.393   1.641  14.269
29568W        W30432  21.462   0.185  11.410
29569W        W30433  21.081   2.573  11.618
29570W        W30434  19.908   1.476  11.714
29571W        W30435  21.076   0.497  11.123
29572W        W30436  21.127   1.074  13.437
29573W        W30437  18.484   1.537  12.606
29574W        W30438  19.039   2.412  12.352
29575W        W30439  20.713   1.145  12.109
29576W        W30440  19.833   0.774  12.935
29577W        W30441  21.895   2.496  13.407
29578W        W30442  21.807   0.701  13.092
29579W        W30443  18.355   3.288  12.576
29580W        W30444  18.692   2.455  11.948
29581W        W30445  18.669   0.397  14.544
29582W        W30446  19.742   2.938  14.516
29583W        W30447  21.781   1.922  12.409
29584W        W30448  20.977   2.169  11.299
29585W        W30449  20.417   3.618  13.445
29586W        W30450  21.165   2.284  14.519
29587W        W30451  19.837   0.074  11.755
29588W        W30452  20.656   0.923  12.606
29589W        W30453  18.365   2.457  12.929
29590W        W30454  19.563   0.509  11.668
29591W        W30455  19.381   1.952  14.364
29592W        W30456  20.346   0.780  12.081
29593W        W30457  20.520   2.415  13.387
29594W        W30458  18.781   2.921  13.602
29595W        W30459  19.209   2.889  14.460
29596W        W30460  19.143   0.767  11.498
29597W        W30461  20.662   0.852  11.668
29598W        W30462  20.702   3.048  13.963
29599W        W30463  19.517   1.590  12.564
29600W        W30464  18.911   3.403  13.501
29601W        W30465  21.687   3.416  11.041
29602W        W30466  18.546   2.147  14.237
29603W        W30467  20.700   2.248  12.898
29604W        W30468  19.131   2.144  11.925
29605W        W30469  19.312   2.989  13.460
29606W        W30470  19.866   0.441  12.551
29607W        W30471  18.268   2.192  11.430
29608W        W30472  19.977   1.229  11.241
29609W        W30473  18.712   2.006  12.263
29610W        W30474  19.771   0.593  13.853
29611W        W30475  21.559   0.358  10.959
29612W        W30476  21.594   2.048  14.246
29613W        W30477  20.418   3.401  14.232
29614W        W30478  21.769   2.356  13.874
29615W        W30479  21.302   3.077  14.451
29616W        W30480  19.023   3.639  13.059
29617W        W30481  21.858   2.129  11.962
29618W        W30482  20.434   1.530  12.346
29619W        W30483  20.178  28.999  12.468
29620W        W30484  19.304   3.078  12.218
29621W        W30485  19.642   0.969  13.357
29622W        W30486  19.449   0.383  12.901
29623W        W30487  18.377   3.163  11.277
29624W        W30488  19.974   2.254  12.265
29625W        W30489  19.171   3.175  13.918
29626W        W30490  18.512   1.912  11.793
29627W        W30491  18.432   0.718  12.746
29628W        W30492  19.857   2.514  12.715
29629W        W30493  18.286   0.360  11.703
29630W        W30494  21.007   1.621  13.428
29631W        W30495  20.815   0.942  11.169
29632W        W30496  21.506   2.487  13.027
29633W        W30497  20.114   2.953  12.774
29634W        W30498  19.478   3.371  11.815
29635W        W30499  20.608   0.032  11.021
29636W        W30500  18.604   3.322  13.021
29637W        W30501  20.616   1.143  14.471
29638W        W30502  18.590   0.914  14.606
29639W        W30503  18.315   1.330  11.905
29640W        W30504  19.038   1.243  11.296
29641W        W30505  20.748   1.610  14.287
29642W        W30506  19.428   1.827  13.050
29643W        W30507  20.681   0.028  12.236
29644W        W30508  19.978   3.444  12.646
29645W        W30509  21.130   2.991  13.492
29646W        W30510  20.862   2.936  12.613
29647W        W30511  20.851   2.055  12.429
29648W        W30512  20.096   0.500  11.576
29649W        W30513  21.769   0.145  12.171
29650W        W30514  19.403   1.777  10.748
29651W        W30515  21.590   0.950  12.153
29652W        W30516  19.870   2.157  11.337
29653W        W30517  21.253   2.317  13.970
29654W        W30518  20.812   3.160  11.026
29655W        W30519  19.684   0.929  14.290
29656W        W30520  19.443   1.421  13.475
29657W        W30521  21.532   2.810  13.849
29658W        W30522  20.623   0.762  14.094
29659W        W30523  18.274   1.322  13.860
29660W        W30524  20.211   1.750  13.592
29661W        W30525  18.517   2.456  12.437
29662W        W30526  18.643   1.640  13.097
29663W        W30527  20.914   2.121  13.623
29664W        W30528  20.912   3.520  14.167
29665W        W30529  20.508   1.239  13.943
29666W        W30530  21.041   3.246  12.216
29667W        W30531  19.835   3.028  13.540
29668W        W30532  19.330   3.234  12.952
29669W        W30533  21.342   2.491  13.506
29670W        W30534  20.142   2.550  14.512
29671W        W30535  18.871   2.453  12.829
29672W        W30536  21.339   2.171  12.232
29673W        W30537  20.835   3.198  13.087
29674W        W30538  18.935   2.939  13.112
29675W        W30539  20.125   1.204  14.318
29676W        W30540  20.137   3.067  11.817
29677W        W30541  19.530   2.476  14.458
29678W        W30542  19.663   2.867  11.872
29679W        W30543  19.055   1.345  10.789
29680W        W30544  18.288   3.682  17.962
29681W        W30545  18.722   2.548  17.569
29682W        W30546  21.443   2.201  15.233
29683W        W30547  21.711   3.243  17.203
29684W        W30548  19.292   3.239  14.838
29685W        W30549  19.534   1.486  15.803
29686W        W30550  19.187   1.058  15.991
29687W        W30551  20.056   2.045  15.318
29688W        W30552  19.810   3.269  17.667
29689W        W30553  18.418   0.796  17.630
29690W        W30554  18.985  28.997  17.377
29691W        W30555  20.873   0.489  16.280
29692W        W30556  20.425   1.235  14.974
29693W        W30557  20.989   0.840  17.925
29694W        W30558  18.462   0.502  17.185
29695W        W30559  18.467   3.211  18.087
29696W        W30560  19.787   2.363  14.915
29697W        W30561  18.442   1.180  16.672
29698W        W30562  19.278   1.198  17.934
29699W        W30563  21.654   0.963  16.325
29700W        W30564  21.343   1.981  17.008
29701W        W30565  19.929   1.530  16.203
29702W        W30566  20.494   2.773  16.579
29703W        W30567  18.801   2.122  16.860
29704W        W30568  18.160   1.601  16.565
29705W        W30569  19.436   1.686  17.597
29706W        W30570  21.482   1.559  17.730
29707W        W30571  19.108   2.781  16.203
29708W        W30572  20.272   2.626  17.290
29709W        W30573  19.624   1.201  16.656
29710W        W30574  19.761   2.009  16.251
29711W        W30575  20.590   2.923  18.032
29712W        W30576  19.778   1.966  17.986
29713W        W30577  19.935   1.873  17.482
29714W        W30578  18.263   1.185  18.131
29715W        W30579  21.018   2.767  17.718
29716W        W30580  18.588   0.185  15.808
29717W        W30581  19.242   2.546  16.794
29718W        W30582  21.630   2.407  16.144
29719W        W30583  21.330   0.617  16.499
29720W        W30584  21.493   0.931  14.535
29721W        W30585  21.973   1.555  16.968
29722W        W30586  19.953   3.204  16.777
29723W        W30587  21.752   2.724  15.294
29724W        W30588  18.739   3.695  15.278
29725W        W30589  19.138   3.594  15.610
29726W        W30590  18.862   0.283  16.925
29727W        W30591  21.417   1.488  17.184
29728W        W30592  20.915   1.710  15.815
29729W        W30593  20.847   1.482  14.813
29730W        W30594  20.038   2.660  16.818
29731W        W30595  20.189   1.063  16.262
29732W        W30596  20.417   3.038  17.017
29733W        W30597  21.345   1.778  15.509
29734W        W30598  20.347   0.504  15.572
29735W        W30599  18.968   3.241  15.267
29736W        W30600  18.275   0.597  15.878
29737W        W30601  20.839   1.466  16.290
29738W        W30602  18.582   2.812  16.319
29739W        W30603  19.795   3.252  14.932
29740W        W30604  21.142   1.287  14.393
29741W        W30605  18.381   2.927  16.888
29742W        W30606  19.169   2.779  17.283
29743W        W30607  19.376   1.972  15.896
29744W        W30608  19.552   0.534  16.882
29745W        W30609  21.782   0.265  16.519
29746W        W30610  18.914   2.057  14.633
29747W        W30611  18.592   0.975  15.116
29748W        W30612  18.718   2.845  15.833
29749W        W30613  19.678   2.394  15.879
29750W        W30614  21.243   3.244  17.474
29751W        W30615  20.198   0.971  15.361
29752W        W30616  21.553   3.372  16.098
29753W        W30617  21.034   1.325  17.523
29754W        W30618  21.845   2.793  15.841
29755W        W30619  20.405   2.146  17.406
29756W        W30620  18.010   1.751  15.644
29757W        W30621  19.162   2.265  17.201
29758W        W30622  20.531   1.380  15.468
29759W        W30623  20.424   1.847  15.635
29760W        W30624  18.792   1.274  17.058
29761W        W30625  18.722   1.246  17.897
29762W        W30626  18.680   0.276  16.307
29763W        W30627  20.388   0.633  16.592
29764W        W30628  20.109   0.593  17.848
29765W        W30629  20.599   0.457  15.101
29766W        W30630  21.658   3.118  17.769
29767W        W30631  20.458   0.183  17.834
29768W        W30632  21.477   2.611  17.920
29769W        W30633  21.036   0.786  17.421
29770W        W30634  20.820   0.653  15.794
29771W        W30635  21.141   1.827  18.094
29772W        W30636  18.905   3.247  16.175
29773W        W30637  19.769   0.923  15.115
29774W        W30638  19.285   0.409  17.790
29775W        W30639  21.227   0.913  15.523
29776W        W30640  21.588   1.252  15.320
29777W        W30641  19.344   3.245  17.910
29778W        W30642  19.166   0.165  15.205
29779W        W30643  21.654   0.505  16.086
29780W        W30644  21.779   2.904  14.608
29781W        W30645  18.451   2.011  16.403
29782W        W30646  20.594   0.636  14.601
29783W        W30647  21.751   2.870  16.366
29784W        W30648  21.655   0.280  17.035
29785W        W30649  20.173   1.459  17.643
29786W        W30650  19.926   2.534  15.385
29787W        W30651  20.641   1.914  18.289
29788W        W30652  20.465   0.117  16.384
29789W        W30653  18.863   1.044  16.402
29790W        W30654  18.569   2.136  17.322
29791W        W30655  20.289   3.217  15.991
29792W        W30656  21.589   1.209  16.784
29793W        W30657  20.270   3.336  17.445
29794W        W30658  21.589   2.047  14.754
29795W        W30659  19.919   1.834  15.778
29796W        W30660  21.799   0.307  17.540
29797W        W30661  20.004   2.212  17.103
29798W        W30662  20.131   1.066  16.791
29799W        W30663  21.045   1.345  15.317
29800W        W30664  21.320   1.262  14.885
29801W        W30665  21.440   3.039  15.556
29802W        W30666  21.085   2.458  16.230
29803W        W30667  20.848   1.811  15.314
29804W        W30668  20.292   1.931  16.148
29805W        W30669  21.325   1.614  16.184
29806W        W30670  18.723   0.770  16.823
29807W        W30671  21.145   1.821  17.472
29808W        W30672  21.726   3.286  16.653
29809W        W30673  19.573   2.958  16.064
29810W        W30674  20.776   3.406  17.246
29811W        W30675  20.539   0.795  17.125
29812W        W30676  19.845   3.536  17.213
29813W        W30677  21.548   0.512  15.552
29814W        W30678  21.204   1.607  16.678
29815W        W30679  18.357   1.006  17.150
29816W        W30680  21.228   0.846  16.039
29817W        W30681  21.443   1.053  17.635
29818W        W30682  20.459   2.672  16.059
29819W        W30683  19.798   3.323  15.779
29820W        W30684  18.797   0.493  15.025
29821W        W30685  20.023   0.244  16.627
29822W        W30686  18.842   3.488  14.818
29823W        W30687  19.580   1.855  15.378
29824W        W30688  20.000   2.372  17.648
29825W        W30689  19.973   0.771  15.835
29826W        W30690  21.211   0.318  15.905
29827W        W30691  20.895   3.492  16.286
29828W        W30692  20.383   3.283  16.517
29829W        W30693  19.678   2.251  16.709
29830W        W30694  21.456   2.922  16.905
29831W        W30695  19.166   0.514  15.594
29832W        W30696  19.622   2.722  16.509
29833W        W30697  19.065   0.744  14.639
29834W        W30698  19.923   1.463  17.123
29835W        W30699  20.813   0.273  16.751
29836W        W30700  18.300   1.999  16.916
29837W        W30701  19.870   1.817  14.896
29838W        W30702  19.270   0.297  14.713
29839W        W30703  20.009   1.279  15.759
29840W        W30704  20.780   0.359  17.274
29841W        W30705  19.526   2.198  17.569
29842W        W30706  20.296   1.964  17.868
29843W        W30707  20.789   2.059  17.746
29844W        W30708  20.191   0.331  18.279
29845W        W30709  19.325   0.790  16.460
29846W        W30710  18.806   0.683  16.013
29847W        W30711  18.694   3.366  15.693
29848W        W30712  20.146   2.884  17.720
29849W        W30713  18.936   2.197  15.163
29850W        W30714  20.944   1.958  16.270
29851W        W30715  20.655   1.235  16.710
29852W        W30716  20.155   2.051  16.629
29853W        W30717  20.660   2.440  14.590
29854W        W30718  20.390   0.543  16.086
29855W        W30719  21.915   0.843  15.339
29856W        W30720  18.464   3.350  17.589
29857W        W30721  18.734   2.582  17.057
29858W        W30722  20.056   0.601  16.997
29859W        W30723  19.536   2.814  15.052
29860W        W30724  21.415   3.029  14.975
29861W        W30725  20.415   1.745  15.082
29862W        W30726  19.569   1.013  15.606
29863W        W30727  20.156   0.866  14.742
29864W        W30728  20.510   2.495  17.767
29865W        W30729  21.058   0.458  15.376
29866W        W30730  18.359   0.145  14.885
29867W        W30731  19.624   2.542  17.158
29868W        W30732  19.348   2.321  16.294
29869W        W30733  19.164   2.519  14.826
29870W        W30734  18.575   2.905  15.345
29871W        W30735  19.033   1.655  17.924
29872W        W30736  19.706   0.374  18.111
29873W        W30737  20.262   0.379  17.398
29874W        W30738  19.530   0.174  15.757
29875W        W30739  20.541   0.045  15.431
29876W        W30740  18.395   0.293  16.722
29877W        W30741  18.452   1.068  16.020
29878W        W30742  21.305   0.145  16.669
29879W        W30743  18.660   0.623  15.514
29880W        W30744  21.199   0.531  16.998
29881W        W30745  21.680   1.544  14.661
29882W        W30746  20.129   0.925  17.441
29883W        W30747  18.215   0.643  14.925
29884W        W30748  18.993   2.071  17.629
29885W        W30749  20.249   1.532  16.595
29886W        W30750  20.223   3.579  14.943
29887W        W30751  18.397   1.920  14.713
29888W        W30752  19.201   2.546  17.742
29889W        W30753  18.678   1.670  17.523
29890W        W30754  19.555   1.919  17.124
29891W        W30755  21.284   0.200  17.386
29892W        W30756  21.714   1.877  17.377
29893W        W30757  21.728   1.746  15.160
29894W        W30758  20.541   2.235  15.309
29895W        W30759  21.144   3.524  14.719
29896W        W30760  20.260   1.541  18.159
29897W        W30761  18.842   2.477  18.090
29898W        W30762  21.837   0.656  18.000
29899W        W30763  21.173   1.126  16.475
29900W        W30764  19.762   3.507  18.124
29901W        W30765  19.658   0.199  15.058
29902W        W30766  21.504   2.538  14.851
29903W        W30767  18.943   0.796  17.823
29904W        W30768  19.628   2.788  17.614
29905W        W30769  21.585   0.744  17.254
29906W        W30770  21.160   3.380  15.268
29907W        W30771  20.996   2.228  16.696
29908W        W30772  19.200   0.464  17.271
29909W        W30773  19.737   1.452  18.021
29910W        W30774  19.070   2.731  15.321
29911W        W30775  21.028   2.232  15.525
29912W        W30776  18.839   0.836  17.326
29913W        W30777  20.004   2.798  15.837
29914W        W30778  21.779   1.380  16.088
29915W        W30779  19.944   0.126  17.729
29916W        W30780  21.002   2.744  16.672
29917W        W30781  21.266   3.152  16.476
29918W        W30782  20.055   2.805  14.941
29919W        W30783  18.392   2.716  17.932
29920W        W30784  19.210   0.950  16.962
29921W        W30785  19.125   0.285  16.064
29922W        W30786  20.867   0.777  16.706
29923W        W30787  19.386   2.053  14.886
29924W        W30788  21.427   2.036  16.459
29925W        W30789  18.880   2.978  17.805
29926W        W30790  21.480   3.596  15.617
29927W        W30791  19.496   0.634  15.990
29928W        W30792  18.950   1.953  16.255
29929W        W30793  19.554   3.530  16.762
29930W        W30794  21.379   3.559  17.851
29931W        W30795  20.674   1.816  16.678
29932W        W30796  18.513   1.410  14.716
29933W        W30797  21.885   3.272  15.686
29934W        W30798  21.448   0.771  15.066
29935W        W30799  19.495   0.061  17.454
29936W        W30800  21.353   2.872  16.047
29937W        W30801  21.363   1.345  15.768
29938W        W30802  19.677   1.091  16.143
29939W        W30803  19.711   1.240  17.557
29940W        W30804  20.782   2.501  17.332
29941W        W30805  19.339   0.898  17.486
29942W        W30806  19.368   3.438  16.046
29943W        W30807  18.869   3.489  17.899
29944W        W30808  18.854   2.945  14.872
29945W        W30809  21.444   2.511  15.674
29946W        W30810  19.053   1.324  17.494
29947W        W30811  21.833   1.087  14.872
29948W        W30812  19.431   2.354  15.323
29949W        W30813  20.604   1.675  17.456
29950W        W30814  20.410   1.299  17.161
29951W        W30815  19.035   1.753  17.151
29952W        W30816  21.256   3.400  16.971
29953W        W30817  20.962   0.283  17.785
29954W        W30818  18.716   0.359  17.617
29955W        W30819  19.131   1.416  16.688
29956W        W30820  19.460   1.058  14.730
29957W        W30821  18.321   2.856  17.419
29958W        W30822  19.753   1.713  16.688
29959W        W30823  19.718   0.591  14.729
29960W        W30824  19.014   1.555  15.939
29961W        W30825  18.483   3.519  17.099
29962W        W30826  21.238   1.765  14.998
29963W        W30827  21.397   0.562  17.745
29964W        W30828  20.949   2.685  15.778
29965W        W30829  18.405   1.658  17.973
29966W        W30830  21.493   0.238  15.066
29967W        W30831  21.188   2.665  15.262
29968W        W30832  20.029   1.503  15.303
29969W        W30833  21.056   0.496  14.847
29970W        W30834  21.145   1.077  17.014
29971W        W30835  18.607   1.487  16.278
29972W        W30836  19.145   2.480  15.782
29973W        W30837  20.885   1.192  15.814
29974W        W30838  19.852   0.720  16.484
29975W        W30839  21.750   2.514  17.054
29976W        W30840  21.791   0.711  16.759
29977W        W30841  18.407   3.261  16.098
29978W        W30842  18.647   2.434  15.511
29979W        W30843  18.791   0.406  18.126
29980W        W30844  19.778   2.971  18.082
29981W        W30845  21.763   1.895  16.064
29982W        W30846  20.985   2.250  15.002
29983W        W30847  20.330   3.542  16.974
29984W        W30848  21.058   2.343  18.060
29985W        W30849  19.977   0.108  15.444
29986W        W30850  20.702   0.967  16.248
29987W        W30851  18.408   2.454  16.669
29988W        W30852  19.695   0.542  15.456
29989W        W30853  19.272   2.119  18.051
29990W        W30854  20.431   0.979  15.806
29991W        W30855  20.488   2.344  16.910
29992W        W30856  18.751   3.074  17.235
29993W        W30857  19.292   2.801  18.187
29994W        W30858  19.327   0.649  15.092
29995W        W30859  20.719   0.905  15.361
29996W        W30860  20.609   2.967  17.503
29997W        W30861  19.411   1.609  16.295
29998W        W30862  19.084   3.353  16.939
29999W        W30863  21.638   3.389  14.688
30000W        W30864  18.530   2.133  17.856
30001W        W30865  20.570   2.292  16.402
30002W        W30866  18.900   2.023  15.697
30003W        W30867  19.493   3.005  16.938
30004W        W30868  19.910   0.347  16.107
30005W        W30869  18.360   2.310  15.072
30006W        W30870  19.917   1.317  14.801
30007W        W30871  18.477   1.809  15.913
30008W        W30872  19.736   0.540  17.444
30009W        W30873  21.519   0.421  14.602
30010W        W30874  21.566   2.044  17.867
30011W        W30875  20.245   3.323  17.998
30012W        W30876  21.757   2.396  17.549
30013W        W30877  21.240   3.070  18.066
30014W        W30878  19.075   3.619  16.501
30015W        W30879  21.784   2.124  15.607
30016W        W30880  20.432   1.459  15.990
30017W        W30881  20.238   0.026  15.874
30018W        W30882  19.153   3.083  15.739
30019W        W30883  19.716   0.970  17.116
30020W        W30884  19.521   0.259  16.435
30021W        W30885  18.436   3.304  15.087
30022W        W30886  20.185   2.296  15.781
30023W        W30887  19.380   3.246  17.385
30024W        W30888  18.467   1.919  15.396
30025W        W30889  18.431   0.708  16.394
30026W        W30890  20.051   2.426  16.287
30027W        W30891  18.251   0.361  15.365
30028W        W30892  20.892   1.527  17.068
30029W        W30893  20.894   0.975  14.883
30030W        W30894  21.461   2.511  16.614
30031W        W30895  20.055   2.927  16.343
30032W        W30896  19.471   3.263  15.356
30033W        W30897  20.653   0.133  14.691
30034W        W30898  18.590   3.330  16.592
30035W        W30899  20.594   1.107  18.128
30036W        W30900  18.741   0.899  18.307
30037W        W30901  18.331   1.355  15.592
30038W        W30902  19.543   1.374  15.188
30039W        W30903  20.729   1.558  17.921
30040W        W30904  19.257   1.947  16.686
30041W        W30905  20.726   0.151  15.900
30042W        W30906  19.829   3.386  16.293
30043W        W30907  20.992   2.940  17.151
30044W        W30908  20.847   2.973  16.227
30045W        W30909  20.690   2.215  15.903
30046W        W30910  20.084   0.504  15.113
30047W        W30911  21.779   0.092  15.782
30048W        W30912  19.432   1.570  14.713
30049W        W30913  21.686   0.953  15.794
30050W        W30914  20.268   2.171  14.844
30051W        W30915  21.230   2.315  17.560
30052W        W30916  21.040   2.741  14.752
30053W        W30917  19.645   0.837  17.900
30054W        W30918  19.416   1.400  17.130
30055W        W30919  21.453   2.787  17.414
30056W        W30920  20.592   0.649  17.671
30057W        W30921  18.324   1.307  17.576
30058W        W30922  20.315   1.797  17.047
30059W        W30923  18.652   2.351  16.026
30060W        W30924  18.668   1.657  16.745
30061W        W30925  20.829   2.031  17.138
30062W        W30926  20.856   3.328  17.806
30063W        W30927  20.575   1.147  17.620
30064W        W30928  21.094   3.298  15.846
30065W        W30929  19.920   2.995  17.241
30066W        W30930  19.329   3.162  16.480
30067W        W30931  21.226   2.479  17.074
30068W        W30932  20.133   2.556  18.118
30069W        W30933  18.875   2.421  16.472
30070W        W30934  21.301   2.076  15.927
30071W        W30935  20.827   3.233  16.746
30072W        W30936  18.906   2.926  16.702
30073W        W30937  20.098   1.079  17.984
30074W        W30938  19.951   3.058  15.379
30075W        W30939  19.643   2.464  18.028
30076W        W30940  19.536   2.797  15.577
30077W        W30941  19.003   1.262  14.559
30078W        W30942  18.335   3.557  21.692
30079W        W30943  18.674   2.562  21.209
30080W        W30944  21.360   2.143  19.003
30081W        W30945  21.510   3.356  20.886
30082W        W30946  19.235   3.273  18.423
30083W        W30947  19.461   1.439  19.279
30084W        W30948  19.018   1.238  19.516
30085W        W30949  19.997   2.016  18.863
30086W        W30950  19.652   3.339  21.252
30087W        W30951  18.296   0.823  21.245
30088W        W30952  18.832   0.331  20.817
30089W        W30953  20.904   0.547  19.953
30090W        W30954  20.511   1.210  18.625
30091W        W30955  21.093   0.779  21.604
30092W        W30956  18.369   0.522  20.825
30093W        W30957  18.509   3.081  21.726
30094W        W30958  19.780   2.651  18.509
30095W        W30959  18.442   1.199  20.286
30096W        W30960  19.427   1.351  21.431
30097W        W30961  21.749   0.965  19.939
30098W        W30962  21.329   1.965  20.841
30099W        W30963  19.850   1.500  19.750
30100W        W30964  20.476   2.783  20.272
30101W        W30965  18.826   2.142  20.475
30102W        W30966  18.105   1.606  20.165
30103W        W30967  19.403   1.781  21.087
30104W        W30968  21.515   1.539  21.477
30105W        W30969  19.080   2.911  19.948
30106W        W30970  20.316   2.710  20.912
30107W        W30971  19.724   1.206  20.157
30108W        W30972  19.664   1.990  19.827
30109W        W30973  20.689   3.103  21.586
30110W        W30974  19.847   2.045  21.807
30111W        W30975  19.890   1.981  21.254
30112W        W30976  18.236   1.181  21.642
30113W        W30977  21.003   2.713  21.445
30114W        W30978  18.605   0.244  19.337
30115W        W30979  19.139   2.574  20.412
30116W        W30980  21.611   2.395  19.793
30117W        W30981  21.336   0.776  20.164
30118W        W30982  21.426   0.894  18.175
30119W        W30983  21.861   1.502  20.677
30120W        W30984  19.746   3.198  20.552
30121W        W30985  21.564   2.857  18.799
30122W        W30986  18.567   3.562  18.906
30123W        W30987  18.934   3.459  19.254
30124W        W30988  19.139   0.476  20.445
30125W        W30989  21.416   1.450  20.958
30126W        W30990  20.807   1.681  19.492
30127W        W30991  20.886   1.472  18.407
30128W        W30992  20.010   2.745  20.494
30129W        W30993  20.026   0.988  19.793
30130W        W30994  20.237   3.201  20.772
30131W        W30995  21.162   1.672  19.122
30132W        W30996  20.349   0.458  19.187
30133W        W30997  18.899   3.154  18.826
30134W        W30998  18.311   0.638  19.459
30135W        W30999  20.877   1.309  19.860
30136W        W31000  18.546   2.893  20.007
30137W        W31001  19.708   3.168  18.551
30138W        W31002  21.173   1.305  18.032
30139W        W31003  18.361   3.015  20.546
30140W        W31004  19.083   2.580  20.919
30141W        W31005  19.377   1.944  19.379
30142W        W31006  19.622   0.415  20.571
30143W        W31007  21.830   0.273  20.088
30144W        W31008  18.833   1.952  18.288
30145W        W31009  18.666   1.156  18.770
30146W        W31010  18.671   2.850  19.496
30147W        W31011  19.628   2.378  19.500
30148W        W31012  21.132   3.230  21.201
30149W        W31013  20.144   0.973  18.917
30150W        W31014  21.439   3.523  19.987
30151W        W31015  21.025   1.317  21.277
30152W        W31016  21.875   2.809  19.591
30153W        W31017  20.365   2.219  21.081
30154W        W31018  18.117   1.875  19.248
30155W        W31019  19.312   2.163  20.696
30156W        W31020  20.438   1.377  19.100
30157W        W31021  20.395   1.878  19.201
30158W        W31022  18.780   1.282  20.668
30159W        W31023  18.717   1.226  21.307
30160W        W31024  18.545   0.251  19.835
30161W        W31025  20.442   0.546  20.213
30162W        W31026  20.175   0.706  21.470
30163W        W31027  20.544   0.384  18.685
30164W        W31028  21.660   3.266  21.379
30165W        W31029  20.511   0.192  21.422
30166W        W31030  21.498   2.601  21.573
30167W        W31031  21.128   0.740  21.101
30168W        W31032  20.757   0.666  19.472
30169W        W31033  21.211   1.763  21.854
30170W        W31034  18.781   3.316  19.748
30171W        W31035  19.634   1.068  18.885
30172W        W31036  19.087   0.427  21.445
30173W        W31037  21.152   0.831  19.157
30174W        W31038  21.453   1.241  19.046
30175W        W31039  19.262   3.395  21.628
30176W        W31040  19.193   0.124  18.785
30177W        W31041  21.557   0.530  19.744
30178W        W31042  21.694   2.890  18.287
30179W        W31043  18.576   2.016  20.004
30180W        W31044  20.685   0.510  18.190
30181W        W31045  21.681   3.013  20.052
30182W        W31046  21.663   0.282  20.625
30183W        W31047  20.273   1.454  21.358
30184W        W31048  19.869   2.484  19.024
30185W        W31049  20.725   1.937  22.020
30186W        W31050  20.435   0.062  19.998
30187W        W31051  18.844   1.089  19.981
30188W        W31052  18.499   2.176  20.896
30189W        W31053  20.622   3.171  19.926
30190W        W31054  21.520   1.110  20.541
30191W        W31055  20.370   3.556  21.129
30192W        W31056  21.458   2.167  18.355
30193W        W31057  19.878   1.821  19.343
30194W        W31058  21.830   0.236  21.133
30195W        W31059  19.950   2.315  20.799
30196W        W31060  20.185   0.990  20.296
30197W        W31061  20.960   1.254  18.882
30198W        W31062  21.352   1.255  18.530
30199W        W31063  21.332   3.067  19.218
30200W        W31064  21.057   2.251  19.940
30201W        W31065  20.770   1.739  18.821
30202W        W31066  20.199   1.889  19.779
30203W        W31067  21.159   1.743  19.943
30204W        W31068  18.726   0.801  20.458
30205W        W31069  21.130   1.840  21.318
30206W        W31070  21.673   3.395  20.404
30207W        W31071  19.538   2.843  19.734
30208W        W31072  20.805   3.522  20.865
30209W        W31073  20.580   0.764  20.697
30210W        W31074  19.894   3.611  20.878
30211W        W31075  21.539   0.495  19.194
30212W        W31076  21.392   1.629  20.465
30213W        W31077  18.361   1.027  20.774
30214W        W31078  21.173   0.908  19.688
30215W        W31079  21.471   1.050  21.315
30216W        W31080  20.423   2.632  19.751
30217W        W31081  19.693   3.237  19.448
30218W        W31082  18.865   0.490  18.624
30219W        W31083  20.008   0.227  20.227
30220W        W31084  18.774   3.489  18.419
30221W        W31085  19.532   1.808  18.895
30222W        W31086  19.983   2.509  21.277
30223W        W31087  19.863   0.648  19.321
30224W        W31088  21.153   0.329  19.526
30225W        W31089  20.937   3.562  20.067
30226W        W31090  20.191   3.237  20.266
30227W        W31091  19.680   2.257  20.345
30228W        W31092  21.543   2.933  20.566
30229W        W31093  19.058   0.450  19.144
30230W        W31094  19.552   2.827  20.242
30231W        W31095  19.247   0.766  18.246
30232W        W31096  19.996   1.397  20.583
30233W        W31097  20.844   0.290  20.409
30234W        W31098  18.302   2.011  20.440
30235W        W31099  19.828   1.694  18.466
30236W        W31100  19.252   0.255  18.292
30237W        W31101  19.894   1.178  19.338
30238W        W31102  20.820   0.364  20.926
30239W        W31103  19.516   2.335  21.137
30240W        W31104  20.332   2.076  21.570
30241W        W31105  20.785   2.244  21.358
30242W        W31106  20.199   0.321  21.826
30243W        W31107  19.309   0.891  20.154
30244W        W31108  18.832   0.738  19.533
30245W        W31109  18.433   3.284  19.333
30246W        W31110  20.205   3.098  21.296
30247W        W31111  19.054   1.941  18.770
30248W        W31112  20.651   1.764  19.996
30249W        W31113  20.930   1.461  20.338
30250W        W31114  20.115   1.977  20.317
30251W        W31115  20.602   2.430  18.288
30252W        W31116  20.292   0.503  19.708
30253W        W31117  21.862   0.851  18.959
30254W        W31118  18.418   3.236  21.231
30255W        W31119  18.641   2.594  20.629
30256W        W31120  18.059   3.316  18.970
30257W        W31121  20.095   0.584  20.595
30258W        W31122  19.334   2.827  18.708
30259W        W31123  21.170   3.140  18.581
30260W        W31124  20.310   1.677  18.645
30261W        W31125  19.333   0.882  19.267
30262W        W31126  20.297   0.799  18.422
30263W        W31127  20.472   2.658  21.398
30264W        W31128  20.900   0.371  19.076
30265W        W31129  18.412   0.258  18.504
30266W        W31130  19.554   2.620  20.710
30267W        W31131  19.366   2.405  19.971
30268W        W31132  19.155   2.382  18.494
30269W        W31133  18.206   2.853  19.161
30270W        W31134  19.009   1.659  21.420
30271W        W31135  19.574   0.410  21.617
30272W        W31136  20.308   0.443  21.028
30273W        W31137  19.465   0.211  19.343
30274W        W31138  20.523  28.995  19.061
30275W        W31139  18.594   0.317  20.364
30276W        W31140  18.465   1.116  19.548
30277W        W31141  21.326   0.261  20.228
30278W        W31142  18.647   0.714  19.043
30279W        W31143  21.197   0.601  20.618
30280W        W31144  21.602   1.601  18.232
30281W        W31145  18.917   0.578  20.012
30282W        W31146  20.105   1.003  20.924
30283W        W31147  18.339   0.762  18.607
30284W        W31148  18.984   2.102  21.114
30285W        W31149  20.221   1.486  20.129
30286W        W31150  20.114   3.478  18.527
30287W        W31151  18.324   2.019  18.351
30288W        W31152  19.135   2.499  21.441
30289W        W31153  18.673   1.676  21.007
30290W        W31154  19.745   1.860  20.716
30291W        W31155  21.327   0.254  21.007
30292W        W31156  21.765   1.847  21.103
30293W        W31157  21.785   1.465  18.725
30294W        W31158  20.486   2.165  18.744
30295W        W31159  21.078   3.530  18.251
30296W        W31160  20.280   1.657  21.853
30297W        W31161  18.732   2.615  21.738
30298W        W31162  21.957   0.654  21.724
30299W        W31163  21.370   1.290  20.057
30300W        W31164  19.799   3.371  21.766
30301W        W31165  19.682   0.148  18.608
30302W        W31166  21.247   2.650  18.421
30303W        W31167  19.163   0.922  21.337
30304W        W31168  19.376   2.888  21.209
30305W        W31169  21.612   0.702  20.918
30306W        W31170  21.076   3.652  18.750
30307W        W31171  21.010   1.983  20.387
30308W        W31172  19.277   0.569  20.958
30309W        W31173  19.832   1.582  21.609
30310W        W31174  19.000   2.703  19.081
30311W        W31175  20.858   2.138  19.130
30312W        W31176  18.790   0.818  20.992
30313W        W31177  19.975   2.777  19.467
30314W        W31178  21.780   1.409  19.690
30315W        W31179  19.988   0.217  21.373
30316W        W31180  20.895   2.496  20.429
30317W        W31181  21.180   3.110  20.193
30318W        W31182  20.191   2.984  18.396
30319W        W31183  18.255   2.678  21.485
30320W        W31184  19.188   0.973  20.647
30321W        W31185  19.030   0.267  19.630
30322W        W31186  20.849   0.944  20.285
30323W        W31187  19.620   2.159  18.486
30324W        W31188  21.478   2.099  20.213
30325W        W31189  18.906   3.000  21.409
30326W        W31190  21.330   3.598  19.286
30327W        W31191  19.402   0.603  19.719
30328W        W31192  19.024   2.056  19.742
30329W        W31193  19.399   3.552  20.695
30330W        W31194  21.327   3.623  21.510
30331W        W31195  20.553   1.800  20.512
30332W        W31196  18.502   1.540  18.465
30333W        W31197  21.636   3.272  19.584
30334W        W31198  21.431   0.769  18.697
30335W        W31199  19.505   0.157  21.171
30336W        W31200  21.351   2.833  19.712
30337W        W31201  21.285   1.404  19.541
30338W        W31202  19.506   1.110  19.701
30339W        W31203  19.822   1.469  21.084
30340W        W31204  20.847   2.609  20.959
30341W        W31205  19.546   1.041  21.020
30342W        W31206  19.300   3.410  19.788
30343W        W31207  18.787   3.522  21.456
30344W        W31208  18.825   2.950  18.346
30345W        W31209  21.507   2.579  19.285
30346W        W31210  19.126   1.340  21.024
30347W        W31211  21.838   1.045  18.439
30348W        W31212  19.378   2.317  18.978
30349W        W31213  20.629   1.779  21.203
30350W        W31214  20.512   1.281  20.582
30351W        W31215  19.075   1.719  20.678
30352W        W31216  21.178   3.520  20.519
30353W        W31217  21.027   0.287  21.417
30354W        W31218  18.588   0.372  21.278
30355W        W31219  19.165   1.396  20.263
30356W        W31220  19.483   1.220  18.413
30357W        W31221  18.274   2.792  20.984
30358W        W31222  19.683   1.695  20.239
30359W        W31223  19.745   0.768  18.441
30360W        W31224  18.967   1.657  19.210
30361W        W31225  18.406   3.496  20.774
30362W        W31226  21.279   1.753  18.626
30363W        W31227  21.530   0.553  21.419
30364W        W31228  21.013   2.513  19.478
30365W        W31229  18.479   1.662  21.487
30366W        W31230  21.532   0.233  18.727
30367W        W31231  21.113   2.599  18.939
30368W        W31232  19.940   1.487  18.939
30369W        W31233  21.053   0.448  18.574
30370W        W31234  21.024   1.108  20.750
30371W        W31235  18.533   1.508  19.871
30372W        W31236  19.108   2.549  19.560
30373W        W31237  20.822   1.170  19.374
30374W        W31238  19.779   0.668  20.114
30375W        W31239  21.858   2.547  20.695
30376W        W31240  21.830   0.705  20.395
30377W        W31241  18.268   3.287  19.816
30378W        W31242  18.545   2.469  19.120
30379W        W31243  18.787   0.046  21.656
30380W        W31244  19.785   2.920  21.511
30381W        W31245  21.613   1.884  19.767
30382W        W31246  20.990   2.186  18.590
30383W        W31247  20.343   3.686  20.623
30384W        W31248  21.136   2.248  21.720
30385W        W31249  19.908   0.144  19.103
30386W        W31250  20.535   0.936  19.871
30387W        W31251  18.248   2.437  20.074
30388W        W31252  19.528   0.540  18.910
30389W        W31253  19.379   2.034  21.535
30390W        W31254  20.342   0.938  19.386
30391W        W31255  20.423   2.326  20.584
30392W        W31256  18.765   3.021  20.908
30393W        W31257  19.288   2.895  21.748
30394W        W31258  19.148   0.900  18.750
30395W        W31259  20.655   0.832  18.963
30396W        W31260  20.658   3.076  21.068
30397W        W31261  19.322   1.597  19.793
30398W        W31262  18.899   3.458  20.628
30399W        W31263  21.590   3.386  18.308
30400W        W31264  18.396   2.173  21.413
30401W        W31265  20.542   2.259  20.100
30402W        W31266  18.941   2.179  19.241
30403W        W31267  19.262   3.036  20.725
30404W        W31268  19.817   0.285  19.720
30405W        W31269  18.188   2.253  18.825
30406W        W31270  20.003   1.221  18.485
30407W        W31271  18.576   1.863  19.491
30408W        W31272  19.799   0.591  21.055
30409W        W31273  21.466   0.394  18.245
30410W        W31274  21.581   2.052  21.546
30411W        W31275  20.310   3.467  21.641
30412W        W31276  21.786   2.382  21.174
30413W        W31277  21.248   3.103  21.681
30414W        W31278  18.945   3.628  20.140
30415W        W31279  21.823   2.184  19.362
30416W        W31280  20.377   1.402  19.632
30417W        W31281  20.194   0.005  19.512
30418W        W31282  19.151   3.057  19.452
30419W        W31283  19.711   0.922  20.567
30420W        W31284  19.469   0.226  20.104
30421W        W31285  18.393   3.179  18.600
30422W        W31286  20.140   2.276  19.436
30423W        W31287  19.143   3.364  21.110
30424W        W31288  18.571   1.929  18.965
30425W        W31289  18.442   0.756  19.945
30426W        W31290  20.016   2.351  19.948
30427W        W31291  18.224   0.426  18.990
30428W        W31292  20.939   1.611  20.829
30429W        W31293  20.948   0.936  18.458
30430W        W31294  21.364   2.612  20.196
30431W        W31295  20.009   2.857  19.982
30432W        W31296  19.392   3.244  19.004
30433W        W31297  20.569  28.992  18.314
30434W        W31298  18.506   3.389  20.246
30435W        W31299  20.600   1.088  21.611
30436W        W31300  18.716   0.783  21.563
30437W        W31301  18.416   1.458  19.145
30438W        W31302  19.206   1.414  18.814
30439W        W31303  20.765   1.572  21.657
30440W        W31304  19.233   1.947  20.212
30441W        W31305  20.673   0.160  19.528
30442W        W31306  19.730   3.291  20.028
30443W        W31307  21.060   3.037  20.718
30444W        W31308  20.898   2.735  19.958
30445W        W31309  20.640   2.153  19.608
30446W        W31310  20.040   0.497  18.764
30447W        W31311  21.824   0.134  19.439
30448W        W31312  19.327   1.724  18.374
30449W        W31313  21.621   0.960  19.437
30450W        W31314  20.143   2.089  18.351
30451W        W31315  21.263   2.333  21.198
30452W        W31316  20.641   3.276  18.414
30453W        W31317  19.688   0.903  21.482
30454W        W31318  19.493   1.408  20.658
30455W        W31319  21.458   2.828  21.091
30456W        W31320  20.668   0.678  21.311
30457W        W31321  18.257   1.342  21.152
30458W        W31322  20.217   1.756  20.896
30459W        W31323  18.534   2.366  19.624
30460W        W31324  18.693   1.656  20.339
30461W        W31325  20.832   2.115  20.852
30462W        W31326  20.810   3.571  21.404
30463W        W31327  20.590   1.143  21.075
30464W        W31328  21.113   3.281  19.670
30465W        W31329  19.843   2.927  20.982
30466W        W31330  19.283   3.270  20.279
30467W        W31331  21.333   2.469  20.704
30468W        W31332  20.113   2.506  21.771
30469W        W31333  18.831   2.460  20.030
30470W        W31334  21.217   2.033  19.494
30471W        W31335  20.681   3.286  20.431
30472W        W31336  18.855   3.007  20.396
30473W        W31337  20.093   1.153  21.737
30474W        W31338  19.887   3.008  18.995
30475W        W31339  19.606   2.477  21.666
30476W        W31340  19.492   2.776  19.215
30477W        W31341  18.975   1.349  18.351
30478W        W31342  18.279   3.638  25.301
30479W        W31343  18.722   2.467  24.856
30480W        W31344  21.520   2.086  22.589
30481W        W31345  21.662   3.354  24.690
30482W        W31346  19.335   3.250  22.151
30483W        W31347  19.470   1.467  23.080
30484W        W31348  19.124   1.144  23.322
30485W        W31349  20.023   1.988  22.591
30486W        W31350  19.832   3.272  24.988
30487W        W31351  18.393   0.779  24.891
30488W        W31352  18.888   0.150  24.611
30489W        W31353  21.002   0.477  23.730
30490W        W31354  20.457   1.258  22.118
30491W        W31355  21.070   0.825  25.253
30492W        W31356  18.530   0.510  24.433
30493W        W31357  18.535   3.201  25.419
30494W        W31358  19.799   2.425  22.185
30495W        W31359  18.409   1.237  23.967
30496W        W31360  19.446   1.356  25.115
30497W        W31361  21.748   0.851  23.608
30498W        W31362  21.444   2.037  24.365
30499W        W31363  19.936   1.479  23.600
30500W        W31364  20.499   2.733  23.940
30501W        W31365  18.938   2.135  24.154
30502W        W31366  17.985   1.551  23.897
30503W        W31367  19.491   1.762  24.806
30504W        W31368  21.571   1.549  25.066
30505W        W31369  19.162   2.895  23.660
30506W        W31370  20.370   2.654  24.601
30507W        W31371  19.594   1.197  23.949
30508W        W31372  19.811   1.982  23.566
30509W        W31373  20.587   2.961  25.390
30510W        W31374  19.934   2.127  25.425
30511W        W31375  20.006   1.925  24.917
30512W        W31376  18.275   1.052  25.307
30513W        W31377  21.061   2.750  25.178
30514W        W31378  18.692   0.217  22.800
30515W        W31379  19.274   2.526  24.003
30516W        W31380  21.710   2.414  23.551
30517W        W31381  21.437   0.671  23.964
30518W        W31382  21.507   0.852  21.897
30519W        W31383  22.165   1.637  24.363
30520W        W31384  19.750   3.357  24.157
30521W        W31385  21.800   2.498  22.712
30522W        W31386  18.904   3.319  22.479
30523W        W31387  19.235   3.504  23.075
30524W        W31388  19.044   0.434  24.191
30525W        W31389  21.527   1.368  24.571
30526W        W31390  20.899   1.638  23.101
30527W        W31391  20.907   1.463  22.167
30528W        W31392  20.050   2.664  24.157
30529W        W31393  20.160   1.023  23.525
30530W        W31394  20.580   3.054  24.365
30531W        W31395  21.430   1.717  22.937
30532W        W31396  20.227   0.485  22.823
30533W        W31397  18.953   2.850  22.689
30534W        W31398  18.191   0.551  23.068
30535W        W31399  20.849   1.259  23.505
30536W        W31400  18.653   2.947  23.595
30537W        W31401  19.731   2.906  22.013
30538W        W31402  21.187   1.255  21.765
30539W        W31403  18.374   2.896  24.029
30540W        W31404  19.098   2.521  24.484
30541W        W31405  19.381   1.971  23.274
30542W        W31406  19.594   0.506  24.250
30543W        W31407  21.831   0.264  23.794
30544W        W31408  18.859   2.107  21.635
30545W        W31409  18.561   0.950  22.026
30546W        W31410  18.764   2.701  23.158
30547W        W31411  19.699   2.354  23.156
30548W        W31412  21.189   3.256  24.956
30549W        W31413  20.390   0.886  22.496
30550W        W31414  21.402   3.305  23.764
30551W        W31415  21.105   1.376  24.923
30552W        W31416  21.905   2.861  23.324
30553W        W31417  20.475   2.160  24.737
30554W        W31418  18.108   1.558  23.025
30555W        W31419  19.406   2.074  24.362
30556W        W31420  20.584   1.339  22.654
30557W        W31421  20.419   1.777  22.901
30558W        W31422  18.864   1.269  24.285
30559W        W31423  18.707   1.161  25.037
30560W        W31424  18.492   0.181  23.305
30561W        W31425  20.517   0.488  23.950
30562W        W31426  20.184   0.671  25.202
30563W        W31427  20.670   0.497  22.305
30564W        W31428  21.817   3.118  25.165
30565W        W31429  20.537   0.223  25.131
30566W        W31430  21.581   2.678  25.331
30567W        W31431  21.081   0.876  24.730
30568W        W31432  20.742   0.593  22.983
30569W        W31433  21.214   1.802  25.382
30570W        W31434  18.952   3.367  23.541
30571W        W31435  19.938   0.932  22.709
30572W        W31436  19.255   0.376  25.164
30573W        W31437  21.271   0.897  22.855
30574W        W31438  21.618   1.213  22.655
30575W        W31439  19.274   3.532  25.294
30576W        W31440  19.397   0.071  22.594
30577W        W31441  21.486   0.436  23.469
30578W        W31442  21.688   2.910  21.945
30579W        W31443  18.372   1.901  23.775
30580W        W31444  20.727   0.477  21.793
30581W        W31445  21.767   2.897  23.831
30582W        W31446  21.661   0.334  24.348
30583W        W31447  20.305   1.523  25.064
30584W        W31448  20.049   2.497  22.661
30585W        W31449  20.712   1.940  25.681
30586W        W31450  20.430  28.963  23.867
30587W        W31451  19.092   1.151  23.838
30588W        W31452  18.653   2.032  24.607
30589W        W31453  20.517   3.180  23.625
30590W        W31454  21.666   1.144  24.035
30591W        W31455  20.330   3.404  24.847
30592W        W31456  21.629   1.971  22.076
30593W        W31457  19.912   1.772  23.092
30594W        W31458  21.881   0.315  24.840
30595W        W31459  20.025   2.278  24.517
30596W        W31460  20.310   0.965  24.018
30597W        W31461  21.110   1.364  22.705
30598W        W31462  21.292   1.139  22.267
30599W        W31463  21.507   2.826  22.990
30600W        W31464  21.213   2.401  23.736
30601W        W31465  20.853   1.790  22.558
30602W        W31466  20.298   1.861  23.456
30603W        W31467  21.286   1.599  23.614
30604W        W31468  18.734   0.825  24.056
30605W        W31469  21.262   1.875  24.831
30606W        W31470  21.807   3.368  24.078
30607W        W31471  19.604   2.838  23.367
30608W        W31472  20.832   3.437  24.615
30609W        W31473  20.599   0.766  24.435
30610W        W31474  19.882   3.597  24.587
30611W        W31475  21.546   0.486  22.939
30612W        W31476  21.422   1.584  24.112
30613W        W31477  18.418   1.023  24.429
30614W        W31478  21.127   0.785  23.329
30615W        W31479  21.501   1.056  24.999
30616W        W31480  20.493   2.590  23.412
30617W        W31481  19.701   3.246  23.072
30618W        W31482  18.622   0.432  21.944
30619W        W31483  19.962   0.229  23.939
30620W        W31484  18.834   3.399  21.967
30621W        W31485  19.572   1.780  22.679
30622W        W31486  20.077   2.427  25.001
30623W        W31487  19.893   0.709  23.171
30624W        W31488  21.096   0.248  23.204
30625W        W31489  20.834   3.623  23.649
30626W        W31490  20.205   3.162  24.034
30627W        W31491  19.804   2.193  24.070
30628W        W31492  21.639   2.957  24.350
30629W        W31493  19.161   0.500  22.814
30630W        W31494  19.628   2.908  23.932
30631W        W31495  19.287   0.780  21.826
30632W        W31496  20.056   1.398  24.170
30633W        W31497  20.860   0.151  24.144
30634W        W31498  18.283   2.063  24.267
30635W        W31499  19.869   1.634  22.184
30636W        W31500  19.154   0.286  21.968
30637W        W31501  19.929   1.245  23.121
30638W        W31502  20.794   0.328  24.666
30639W        W31503  19.611   2.281  24.825
30640W        W31504  20.417   2.068  25.249
30641W        W31505  20.904   2.159  25.094
30642W        W31506  20.196   0.328  25.607
30643W        W31507  19.347   0.707  23.831
30644W        W31508  18.707   0.658  23.147
30645W        W31509  18.731   3.242  23.083
30646W        W31510  20.208   2.926  25.028
30647W        W31511  19.058   2.375  22.498
30648W        W31512  20.783   1.766  23.601
30649W        W31513  20.948   1.439  23.963
30650W        W31514  20.165   1.854  23.958
30651W        W31515  20.647   2.423  21.831
30652W        W31516  20.185   0.505  23.551
30653W        W31517  21.939   0.769  22.705
30654W        W31518  18.476   3.336  24.903
30655W        W31519  18.601   2.509  24.333
30656W        W31520  18.481   3.511  22.711
30657W        W31521  20.122   0.573  24.292
30658W        W31522  19.392   2.757  22.374
30659W        W31523  21.599   2.929  22.480
30660W        W31524  20.388   1.708  22.356
30661W        W31525  19.486   0.953  22.948
30662W        W31526  20.362   0.781  21.981
30663W        W31527  20.566   2.548  25.079
30664W        W31528  21.114   0.443  22.646
30665W        W31529  18.429   0.019  22.216
30666W        W31530  19.610   2.558  24.386
30667W        W31531  19.676   2.461  23.674
30668W        W31532  19.195   2.434  21.979
30669W        W31533  18.448   2.945  22.738
30670W        W31534  18.981   1.682  25.048
30671W        W31535  19.644   0.332  25.484
30672W        W31536  20.285   0.424  24.746
30673W        W31537  19.484   0.201  23.104
30674W        W31538  20.441   0.097  22.521
30675W        W31539  18.565   0.315  23.956
30676W        W31540  18.663   1.037  23.560
30677W        W31541  21.338   0.170  23.968
30678W        W31542  18.475   0.660  22.645
30679W        W31543  21.088   0.576  24.311
30680W        W31544  21.619   1.455  21.995
30681W        W31545  18.884   0.566  23.633
30682W        W31546  20.180   0.949  24.750
30683W        W31547  18.184   0.503  22.239
30684W        W31548  19.125   2.132  24.810
30685W        W31549  20.435   1.424  23.794
30686W        W31550  20.156   3.448  22.144
30687W        W31551  18.242   1.923  21.862
30688W        W31552  19.212   2.636  24.992
30689W        W31553  18.623   1.522  24.677
30690W        W31554  19.850   1.807  24.438
30691W        W31555  21.306   0.254  24.714
30692W        W31556  21.839   1.868  24.721
30693W        W31557  21.812   1.666  22.533
30694W        W31558  20.506   2.182  22.592
30695W        W31559  21.060   3.577  21.937
30696W        W31560  20.287   1.671  25.554
30697W        W31561  18.771   2.725  25.305
30698W        W31562  21.955   0.649  25.303
30699W        W31563  21.279   1.092  23.715
30700W        W31564  19.757   3.455  25.453
30701W        W31565  19.651   0.281  22.180
30702W        W31566  21.602   2.462  22.223
30703W        W31567  19.140   0.874  25.072
30704W        W31568  19.704   2.800  24.836
30705W        W31569  21.564   0.829  24.478
30706W        W31570  21.426   3.416  22.388
30707W        W31571  21.079   1.963  23.987
30708W        W31572  19.273   0.526  24.666
30709W        W31573  19.834   1.634  25.305
30710W        W31574  19.233   2.519  22.974
30711W        W31575  21.078   2.109  22.878
30712W        W31576  18.866   0.846  24.617
30713W        W31577  20.061   2.727  23.144
30714W        W31578  21.715   1.341  23.511
30715W        W31579  20.010   0.200  25.128
30716W        W31580  20.916   2.517  24.167
30717W        W31581  21.273   2.860  24.013
30718W        W31582  20.207   3.004  21.813
30719W        W31583  18.367   2.817  24.993
30720W        W31584  19.275   0.933  24.299
30721W        W31585  18.990   0.227  23.223
30722W        W31586  20.825   0.924  23.945
30723W        W31587  19.488   2.021  22.198
30724W        W31588  21.562   1.999  23.826
30725W        W31589  18.951   3.156  25.089
30726W        W31590  21.326   3.624  22.885
30727W        W31591  19.276   0.649  23.306
30728W        W31592  18.866   2.024  23.629
30729W        W31593  19.383   3.656  24.389
30730W        W31594  21.567   3.558  25.168
30731W        W31595  20.628   1.792  24.157
30732W        W31596  18.505   1.469  21.971
30733W        W31597  21.583   3.271  23.256
30734W        W31598  21.509   0.706  22.432
30735W        W31599  19.577   0.125  24.858
30736W        W31600  21.395   2.835  23.493
30737W        W31601  21.288   1.286  23.203
30738W        W31602  19.612   1.026  23.471
30739W        W31603  19.880   1.399  24.775
30740W        W31604  20.893   2.545  24.700
30741W        W31605  19.527   1.000  24.755
30742W        W31606  19.456   3.310  23.521
30743W        W31607  18.780   3.625  25.225
30744W        W31608  18.932   2.904  22.144
30745W        W31609  21.513   2.299  23.087
30746W        W31610  19.106   1.282  24.738
30747W        W31611  21.875   1.056  22.206
30748W        W31612  19.568   2.303  22.640
30749W        W31613  20.741   1.736  24.847
30750W        W31614  20.598   1.284  24.301
30751W        W31615  19.059   1.728  24.507
30752W        W31616  21.296   3.406  24.284
30753W        W31617  21.040   0.307  25.182
30754W        W31618  18.791   0.479  24.988
30755W        W31619  19.152   1.637  24.024
30756W        W31620  19.602   1.187  21.918
30757W        W31621  18.313   3.016  24.519
30758W        W31622  19.664   1.701  23.987
30759W        W31623  19.859   0.709  21.920
30760W        W31624  18.984   1.650  23.264
30761W        W31625  18.425   3.533  24.417
30762W        W31626  21.328   1.667  22.367
30763W        W31627  21.492   0.563  25.080
30764W        W31628  21.055   2.513  23.241
30765W        W31629  18.408   1.562  25.180
30766W        W31630  21.498   0.176  22.356
30767W        W31631  21.273   2.530  22.630
30768W        W31632  20.064   1.455  22.666
30769W        W31633  21.150   0.517  22.110
30770W        W31634  21.188   1.103  24.262
30771W        W31635  18.756   1.526  23.707
30772W        W31636  19.189   2.423  23.472
30773W        W31637  20.826   1.098  23.034
30774W        W31638  19.863   0.760  23.874
30775W        W31639  21.955   2.535  24.428
30776W        W31640  21.928   0.695  24.097
30777W        W31641  18.434   3.403  23.521
30778W        W31642  18.525   2.416  22.795
30779W        W31643  18.875   0.295  25.507
30780W        W31644  19.923   2.970  25.461
30781W        W31645  21.713   1.850  23.366
30782W        W31646  21.148   2.153  22.240
30783W        W31647  20.357   3.543  24.362
30784W        W31648  21.252   2.307  25.450
30785W        W31649  19.924   0.046  22.642
30786W        W31650  20.624   0.788  23.474
30787W        W31651  18.293   2.409  23.883
30788W        W31652  19.692   0.489  22.733
30789W        W31653  19.448   2.034  25.248
30790W        W31654  20.344   0.942  23.031
30791W        W31655  20.441   2.279  24.211
30792W        W31656  18.812   2.928  24.648
30793W        W31657  19.441   3.032  25.268
30794W        W31658  19.575   0.796  22.332
30795W        W31659  20.891   0.916  22.536
30796W        W31660  20.703   3.001  24.868
30797W        W31661  19.396   1.530  23.582
30798W        W31662  18.947   3.371  24.412
30799W        W31663  21.585   3.410  21.906
30800W        W31664  18.480   2.067  25.106
30801W        W31665  20.708   2.259  23.752
30802W        W31666  18.881   2.167  23.120
30803W        W31667  19.335   2.985  24.414
30804W        W31668  19.673   0.427  23.536
30805W        W31669  18.205   2.164  22.338
30806W        W31670  19.993   1.110  22.240
30807W        W31671  18.493   1.846  23.271
30808W        W31672  19.802   0.572  24.729
30809W        W31673  21.586   0.341  21.888
30810W        W31674  21.662   2.048  25.201
30811W        W31675  20.260   3.389  25.361
30812W        W31676  21.859   2.519  24.928
30813W        W31677  21.375   3.141  25.438
30814W        W31678  19.051   3.715  23.977
30815W        W31679  21.909   2.013  22.919
30816W        W31680  20.421   1.401  23.255
30817W        W31681  19.989   0.179  23.173
30818W        W31682  19.183   3.006  23.151
30819W        W31683  19.824   0.980  24.354
30820W        W31684  19.396   0.180  23.894
30821W        W31685  18.461   3.157  22.250
30822W        W31686  20.197   2.218  23.084
30823W        W31687  19.346   3.315  24.804
30824W        W31688  18.427   1.880  22.734
30825W        W31689  18.356   0.629  23.554
30826W        W31690  20.184   2.329  23.737
30827W        W31691  18.181   0.198  22.676
30828W        W31692  21.032   1.578  24.449
30829W        W31693  20.860   0.941  22.033
30830W        W31694  21.607   2.458  24.054
30831W        W31695  20.065   2.841  23.651
30832W        W31696  19.347   3.182  22.688
30833W        W31697  20.597   0.020  21.990
30834W        W31698  18.664   3.356  23.977
30835W        W31699  20.517   1.085  25.327
30836W        W31700  18.734   0.810  25.428
30837W        W31701  18.302   1.036  23.183
30838W        W31702  19.594   1.283  22.532
30839W        W31703  20.761   1.544  25.326
30840W        W31704  19.352   2.059  23.806
30841W        W31705  20.623   0.256  23.450
30842W        W31706  19.956   3.395  23.639
30843W        W31707  21.089   2.986  24.497
30844W        W31708  20.905   2.807  23.655
30845W        W31709  20.691   2.120  23.227
30846W        W31710  20.100   0.482  22.329
30847W        W31711  21.784   0.092  23.173
30848W        W31712  19.366   1.640  21.858
30849W        W31713  21.703   0.988  23.116
30850W        W31714  20.247   2.138  22.117
30851W        W31715  21.350   2.376  24.946
30852W        W31716  21.187   2.681  21.994
30853W        W31717  19.642   0.752  25.196
30854W        W31718  19.487   1.419  24.405
30855W        W31719  21.491   2.869  24.842
30856W        W31720  20.646   0.718  24.971
30857W        W31721  18.214   1.261  24.821
30858W        W31722  20.322   1.656  24.559
30859W        W31723  18.483   2.344  23.411
30860W        W31724  18.649   1.713  24.175
30861W        W31725  20.926   2.087  24.479
30862W        W31726  20.750   3.426  25.157
30863W        W31727  20.634   1.211  24.810
30864W        W31728  21.054   3.229  23.385
30865W        W31729  20.052   3.081  24.530
30866W        W31730  19.259   3.269  23.996
30867W        W31731  21.347   2.539  24.466
30868W        W31732  20.240   2.556  25.471
30869W        W31733  18.794   2.506  23.813
30870W        W31734  21.189   2.027  23.381
30871W        W31735  20.899   3.223  23.989
30872W        W31736  18.900   2.904  24.127
30873W        W31737  19.987   1.146  25.247
30874W        W31738  19.789   3.183  22.444
30875W        W31739  19.669   2.547  25.292
30876W        W31740  19.644   2.788  22.833
30877W        W31741  19.006   1.227  21.739
30878W        W31742  18.360   3.705  28.862
30879W        W31743  18.736   2.568  28.441
30880W        W31744  21.578   2.140  26.245
30881W        W31745  21.639   3.312  28.183
30882W        W31746  19.366   3.415  25.793
30883W        W31747  19.458   1.454  26.565
30884W        W31748  19.153   1.259  26.959
30885W        W31749  20.004   2.022  26.292
30886W        W31750  19.805   3.302  28.416
30887W        W31751  18.532   0.892  28.500
30888W        W31752  19.083   0.055  28.271
30889W        W31753  20.918   0.501  27.196
30890W        W31754  20.502   1.274  25.834
30891W        W31755  21.051   0.785  28.901
30892W        W31756  18.406   0.627  28.065
30893W        W31757  18.497   3.201  28.983
30894W        W31758  19.844   2.525  25.801
30895W        W31759  18.471   1.245  27.569
30896W        W31760  19.226   1.342  28.797
30897W        W31761  21.579   1.173  27.200
30898W        W31762  21.593   2.054  27.968
30899W        W31763  19.974   1.428  27.168
30900W        W31764  20.536   2.779  27.442
30901W        W31765  18.812   2.197  27.752
30902W        W31766  18.235   1.669  27.363
30903W        W31767  19.263   1.690  28.394
30904W        W31768  21.483   1.570  28.732
30905W        W31769  19.137   2.926  27.090
30906W        W31770  20.337   2.609  28.229
30907W        W31771  19.520   1.216  27.389
30908W        W31772  19.738   2.079  27.123
30909W        W31773  20.557   2.913  28.892
30910W        W31774  19.649   2.035  28.829
30911W        W31775  19.915   1.899  28.409
30912W        W31776  18.264   1.254   0.035
30913W        W31777  21.025   2.769  28.706
30914W        W31778  18.669   0.186  26.612
30915W        W31779  19.240   2.785  27.709
30916W        W31780  21.808   2.420  27.161
30917W        W31781  21.339   0.778  27.423
30918W        W31782  21.537   0.888  25.511
30919W        W31783  21.822   1.602  27.881
30920W        W31784  19.806   3.353  27.699
30921W        W31785  21.794   2.615  26.321
30922W        W31786  18.743   3.621  26.225
30923W        W31787  19.118   3.488  26.604
30924W        W31788  18.866   0.367  27.902
30925W        W31789  21.547   1.347  28.237
30926W        W31790  20.901   1.664  26.737
30927W        W31791  20.967   1.507  25.802
30928W        W31792  20.140   2.617  27.720
30929W        W31793  20.129   0.937  27.064
30930W        W31794  20.552   2.962  27.932
30931W        W31795  21.389   1.767  26.563
30932W        W31796  20.423   0.392  26.490
30933W        W31797  19.041   3.214  26.140
30934W        W31798  18.331   0.558  26.780
30935W        W31799  21.044   1.212  27.215
30936W        W31800  18.588   3.022  27.022
30937W        W31801  19.868   3.274  25.911
30938W        W31802  21.231   1.288  25.412
30939W        W31803  18.415   3.062  27.839
30940W        W31804  19.189   2.729  28.231
30941W        W31805  19.397   2.031  26.716
30942W        W31806  19.636   0.470  27.789
30943W        W31807  21.897   0.156  27.246
30944W        W31808  18.953   2.223  25.275
30945W        W31809  18.698   0.992  26.041
30946W        W31810  18.911   3.013  26.623
30947W        W31811  19.682   2.485  26.759
30948W        W31812  21.199   3.243  28.503
30949W        W31813  20.182   1.057  26.191
30950W        W31814  21.521   3.521  27.191
30951W        W31815  21.103   1.317  28.484
30952W        W31816  21.849   2.820  26.824
30953W        W31817  20.450   2.090  28.228
30954W        W31818  18.032   1.855  26.515
30955W        W31819  19.284   2.312  27.899
30956W        W31820  20.560   1.357  26.373
30957W        W31821  20.369   1.766  26.599
30958W        W31822  18.923   1.292  27.869
30959W        W31823  18.743   1.147  28.892
30960W        W31824  18.610   0.284  27.128
30961W        W31825  20.479   0.544  27.496
30962W        W31826  20.159   0.694  28.714
30963W        W31827  20.616   0.434  25.993
30964W        W31828  21.687   3.066  28.668
30965W        W31829  20.591   0.153  28.599
30966W        W31830  21.498   2.591  28.819
30967W        W31831  21.159   0.786  28.392
30968W        W31832  20.850   0.604  26.681
30969W        W31833  21.181   1.806   0.094
30970W        W31834  18.924   3.403  27.099
30971W        W31835  19.699   1.011  26.377
30972W        W31836  19.141   0.368  28.741
30973W        W31837  21.281   0.934  26.409
30974W        W31838  21.616   1.341  26.347
30975W        W31839  19.322   3.557  28.891
30976W        W31840  19.487  28.997  26.302
30977W        W31841  21.650   0.554  27.051
30978W        W31842  21.914   2.943  25.650
30979W        W31843  18.675   2.094  27.268
30980W        W31844  20.642   0.593  25.484
30981W        W31845  21.740   2.940  27.347
30982W        W31846  21.677   0.284  27.954
30983W        W31847  20.167   1.233  28.715
30984W        W31848  20.122   2.526  26.270
30985W        W31849  20.663   1.975   0.114
30986W        W31850  20.510   0.057  27.322
30987W        W31851  18.958   1.062  27.379
30988W        W31852  18.475   2.185  28.133
30989W        W31853  20.438   3.348  27.074
30990W        W31854  21.597   0.982  27.840
30991W        W31855  20.312   3.378  28.325
30992W        W31856  21.593   2.029  25.716
30993W        W31857  19.866   1.765  26.725
30994W        W31858  21.809   0.219  28.468
30995W        W31859  20.005   2.240  28.036
30996W        W31860  20.361   1.042  27.539
30997W        W31861  21.080   1.383  26.315
30998W        W31862  21.354   1.182  25.918
30999W        W31863  21.432   2.933  26.525
31000W        W31864  20.948   2.562  27.195
31001W        W31865  20.824   1.800  26.206
31002W        W31866  20.251   1.885  27.090
31003W        W31867  21.303   1.651  27.157
31004W        W31868  18.662   0.795  27.680
31005W        W31869  21.282   1.817  28.325
31006W        W31870  21.728   3.379  27.642
31007W        W31871  19.655   2.981  27.076
31008W        W31872  20.836   3.522  28.218
31009W        W31873  20.601   0.836  28.019
31010W        W31874  19.950   3.696  28.066
31011W        W31875  21.558   0.521  26.498
31012W        W31876  21.163   1.788  27.798
31013W        W31877  18.431   1.172  28.075
31014W        W31878  21.238   0.824  26.921
31015W        W31879  21.532   1.044  28.685
31016W        W31880  20.484   2.624  26.942
31017W        W31881  19.835   3.322  26.703
31018W        W31882  18.815   0.487  25.990
31019W        W31883  20.055   0.221  27.553
31020W        W31884  18.863   3.543  25.729
31021W        W31885  19.515   1.852  26.222
31022W        W31886  19.964   2.407  28.525
31023W        W31887  19.969   0.638  26.646
31024W        W31888  21.252   0.276  26.878
31025W        W31889  21.030   3.586  27.296
31026W        W31890  20.289   3.243  27.575
31027W        W31891  19.710   2.304  27.615
31028W        W31892  21.534   2.932  27.844
31029W        W31893  19.125   0.342  26.401
31030W        W31894  19.729   2.861  27.566
31031W        W31895  19.231   0.713  25.568
31032W        W31896  19.948   1.308  27.700
31033W        W31897  20.916   0.304  27.664
31034W        W31898  18.310   2.121  27.640
31035W        W31899  19.863   1.809  25.830
31036W        W31900  19.306   0.327  25.899
31037W        W31901  20.100   1.292  26.675
31038W        W31902  20.847   0.409  28.173
31039W        W31903  19.485   2.262  28.380
31040W        W31904  20.312   2.038  28.728
31041W        W31905  20.839   1.978  28.572
31042W        W31906  20.150   0.317   0.090
31043W        W31907  19.395   0.753  27.193
31044W        W31908  18.908   0.764  26.956
31045W        W31909  18.593   3.432  26.691
31046W        W31910  20.140   2.933  28.584
31047W        W31911  19.136   2.226  26.290
31048W        W31912  20.790   1.793  27.254
31049W        W31913  20.820   1.411  27.645
31050W        W31914  20.157   2.072  27.565
31051W        W31915  20.758   2.441  25.540
31052W        W31916  20.389   0.482  26.992
31053W        W31917  21.897   0.891  26.286
31054W        W31918  18.385   3.349  28.494
31055W        W31919  18.752   2.676  27.929
31056W        W31920  18.235   3.526  26.304
31057W        W31921  20.129   0.642  27.860
31058W        W31922  19.506   2.922  25.795
31059W        W31923  21.561   3.032  26.018
31060W        W31924  20.341   1.712  26.062
31061W        W31925  19.019   1.111  26.481
31062W        W31926  20.214   0.849  25.694
31063W        W31927  20.629   2.448  28.633
31064W        W31928  21.097   0.484  26.236
31065W        W31929  18.455   0.158  25.805
31066W        W31930  19.678   2.625  28.031
31067W        W31931  19.471   2.527  27.226
31068W        W31932  19.225   2.584  25.530
31069W        W31933  18.416   3.010  26.450
31070W        W31934  18.813   1.654  28.758
31071W        W31935  19.667   0.544  28.872
31072W        W31936  20.327   0.455  28.282
31073W        W31937  19.579   0.250  26.762
31074W        W31938  20.610  28.938  26.372
31075W        W31939  18.400   0.340  27.600
31076W        W31940  18.545   1.069  26.768
31077W        W31941  21.420   0.265  27.465
31078W        W31942  18.742   0.678  26.468
31079W        W31943  21.261   0.593  27.910
31080W        W31944  21.654   1.542  25.569
31081W        W31945  18.994   0.516  27.413
31082W        W31946  20.162   0.965  28.268
31083W        W31947  18.362   0.672  25.779
31084W        W31948  18.974   2.141  28.271
31085W        W31949  20.346   1.569  27.491
31086W        W31950  20.288   3.577  25.943
31087W        W31951  18.337   1.838  25.615
31088W        W31952  19.233   2.567  28.728
31089W        W31953  18.671   1.708  28.191
31090W        W31954  19.606   1.908  27.999
31091W        W31955  21.300   0.227  28.350
31092W        W31956  21.810   1.827  28.390
31093W        W31957  21.906   1.710  25.983
31094W        W31958  20.510   2.184  26.325
31095W        W31959  21.141   3.612  25.442
31096W        W31960  20.319   1.567   0.099
31097W        W31961  18.794   2.440  28.961
31098W        W31962  21.961   0.653  28.991
31099W        W31963  21.375   1.376  27.612
31100W        W31964  19.817   3.461  28.915
31101W        W31965  19.801   0.192  25.941
31102W        W31966  21.639   2.522  25.835
31103W        W31967  19.063   0.851  28.605
31104W        W31968  19.631   2.821  28.506
31105W        W31969  21.651   0.697  28.267
31106W        W31970  21.289   3.643  25.938
31107W        W31971  21.010   2.225  27.572
31108W        W31972  19.299   0.542  28.213
31109W        W31973  19.695   1.523  28.688
31110W        W31974  19.238   2.740  26.239
31111W        W31975  21.071   2.154  26.481
31112W        W31976  18.883   0.840  28.128
31113W        W31977  20.044   2.836  26.699
31114W        W31978  21.820   1.467  26.846
31115W        W31979  20.044   0.161  28.595
31116W        W31980  20.982   2.760  27.677
31117W        W31981  21.275   3.142  27.460
31118W        W31982  20.207   2.885  25.890
31119W        W31983  18.397   2.706  28.807
31120W        W31984  19.259   0.861  27.750
31121W        W31985  19.087   0.283  26.925
31122W        W31986  20.871   0.872  27.588
31123W        W31987  19.484   2.160  25.761
31124W        W31988  21.478   2.051  27.442
31125W        W31989  18.895   2.948  28.772
31126W        W31990  21.372   3.751  26.457
31127W        W31991  19.343   0.737  26.671
31128W        W31992  19.032   1.802  27.041
31129W        W31993  19.409   3.608  27.911
31130W        W31994  21.541   3.549  28.718
31131W        W31995  20.623   1.901  27.755
31132W        W31996  18.561   1.325  25.629
31133W        W31997  21.664   3.367  26.655
31134W        W31998  21.524   0.699  25.991
31135W        W31999  19.539   0.141  28.515
31136W        W32000  21.347   2.854  27.024
31137W        W32001  21.324   1.315  26.775
31138W        W32002  19.660   1.099  26.897
31139W        W32003  19.865   1.395  28.219
31140W        W32004  20.883   2.639  28.200
31141W        W32005  19.315   1.125  28.242
31142W        W32006  19.434   3.436  27.007
31143W        W32007  18.846   3.458  28.683
31144W        W32008  19.029   3.074  25.602
31145W        W32009  21.483   2.424  26.711
31146W        W32010  18.867   1.287  28.397
31147W        W32011  21.862   1.168  25.852
31148W        W32012  19.624   2.372  26.252
31149W        W32013  20.345   1.618  28.415
31150W        W32014  20.410   1.327  27.969
31151W        W32015  19.110   1.800  27.903
31152W        W32016  21.255   3.533  27.801
31153W        W32017  21.036   0.275  28.828
31154W        W32018  18.722   0.402  28.423
31155W        W32019  19.136   1.539  27.456
31156W        W32020  19.552   1.123  25.552
31157W        W32021  18.321   2.870  28.312
31158W        W32022  19.734   1.747  27.525
31159W        W32023  19.703   0.721  25.839
31160W        W32024  18.803   1.549  26.657
31161W        W32025  18.516   3.567  28.038
31162W        W32026  21.385   1.694  26.040
31163W        W32027  21.492   0.535  28.741
31164W        W32028  20.997   2.620  26.692
31165W        W32029  18.333   1.766  28.936
31166W        W32030  21.473   0.192  25.990
31167W        W32031  21.276   2.560  26.214
31168W        W32032  19.908   1.506  26.260
31169W        W32033  21.112   0.496  25.704
31170W        W32034  21.091   1.127  27.996
31171W        W32035  18.664   1.441  27.141
31172W        W32036  19.166   2.536  26.745
31173W        W32037  20.865   1.128  26.712
31174W        W32038  19.846   0.837  27.482
31175W        W32039  21.820   2.512  27.798
31176W        W32040  21.816   0.608  27.545
31177W        W32041  18.341   3.450  27.148
31178W        W32042  18.743   2.571  26.428
31179W        W32043  18.852   0.158   0.180
31180W        W32044  19.921   2.980   0.073
31181W        W32045  21.668   1.965  26.948
31182W        W32046  21.130   2.141  25.934
31183W        W32047  20.448   3.605  27.890
31184W        W32048  21.063   2.284  28.930
31185W        W32049  19.979   0.137  26.413
31186W        W32050  20.639   0.914  27.116
31187W        W32051  18.479   2.574  27.464
31188W        W32052  19.613   0.501  26.300
31189W        W32053  19.116   2.072  28.757
31190W        W32054  20.420   0.893  26.630
31191W        W32055  20.596   2.418  27.822
31192W        W32056  18.788   3.092  28.282
31193W        W32057  19.396   3.025  28.931
31194W        W32058  19.233   0.805  26.115
31195W        W32059  20.768   0.902  26.228
31196W        W32060  20.694   3.056  28.421
31197W        W32061  19.506   1.621  27.068
31198W        W32062  19.014   3.263  27.863
31199W        W32063  21.758   3.438  25.643
31200W        W32064  18.579   2.108  28.636
31201W        W32065  20.552   2.262  27.322
31202W        W32066  18.845   2.116  26.696
31203W        W32067  19.501   3.106  28.023
31204W        W32068  19.882   0.462  27.126
31205W        W32069  18.165   2.150  26.069
31206W        W32070  19.976   1.310  25.772
31207W        W32071  18.441   1.857  26.889
31208W        W32072  19.814   0.557  28.326
31209W        W32073  21.610   0.374  25.551
31210W        W32074  21.534   2.078  28.765
31211W        W32075  20.311   3.367  28.855
31212W        W32076  21.739   2.377  28.377
31213W        W32077  21.301   3.089  28.987
31214W        W32078  19.068   3.679  27.511
31215W        W32079  21.972   2.272  26.657
31216W        W32080  20.500   1.408  26.996
31217W        W32081  20.223   0.004  26.844
31218W        W32082  19.418   3.006  26.640
31219W        W32083  19.719   0.946  27.988
31220W        W32084  19.447   0.248  27.325
31221W        W32085  18.499   3.227  25.952
31222W        W32086  20.151   2.252  26.738
31223W        W32087  19.269   3.234  28.466
31224W        W32088  18.522   1.869  26.348
31225W        W32089  18.452   0.798  27.222
31226W        W32090  20.057   2.457  27.222
31227W        W32091  18.322   0.379  26.251
31228W        W32092  20.809   1.621  28.164
31229W        W32093  20.912   0.981  25.722
31230W        W32094  21.405   2.566  27.456
31231W        W32095  20.135   2.952  27.194
31232W        W32096  19.530   3.361  26.287
31233W        W32097  20.669   0.075  25.618
31234W        W32098  18.629   3.437  27.551
31235W        W32099  20.604   1.063  28.962
31236W        W32100  18.836   0.661   0.046
31237W        W32101  18.445   1.359  26.332
31238W        W32102  19.482   1.327  26.028
31239W        W32103  20.738   1.537  28.796
31240W        W32104  19.281   2.045  27.441
31241W        W32105  20.736   0.123  26.845
31242W        W32106  19.930   3.434  27.196
31243W        W32107  21.081   3.100  28.035
31244W        W32108  20.864   3.071  27.168
31245W        W32109  20.669   2.134  26.834
31246W        W32110  20.114   0.553  26.116
31247W        W32111  21.749   0.121  26.733
31248W        W32112  19.411   1.632  25.595
31249W        W32113  21.701   0.971  26.740
31250W        W32114  20.255   2.176  25.838
31251W        W32115  21.222   2.336  28.451
31252W        W32116  21.184   2.741  25.712
31253W        W32117  19.707   1.002  28.548
31254W        W32118  19.463   1.420  27.858
31255W        W32119  21.405   2.803  28.332
31256W        W32120  20.672   0.707  28.549
31257W        W32121  18.396   1.396  28.556
31258W        W32122  20.123   1.747  27.948
31259W        W32123  18.669   2.524  26.960
31260W        W32124  18.678   1.713  27.631
31261W        W32125  20.938   2.136  28.086
31262W        W32126  20.829   3.344  28.833
31263W        W32127  20.615   1.187  28.423
31264W        W32128  21.180   3.348  26.847
31265W        W32129  20.035   3.020  28.039
31266W        W32130  19.352   3.234  27.471
31267W        W32131  21.309   2.471  27.952
31268W        W32132  20.218   2.535  28.953
31269W        W32133  18.987   2.492  27.369
31270W        W32134  21.161   2.126  27.010
31271W        W32135  20.803   3.301  27.647
31272W        W32136  18.811   2.970  27.486
31273W        W32137  19.773   1.137   0.032
31274W        W32138  20.165   3.201  26.325
31275W        W32139  19.693   2.527  28.953
31276W        W32140  19.752   2.885  26.253
31277W        W32141  19.049   1.241  25.432
31278W        W32142  18.342   7.346   3.290
31279W        W32143  18.705   6.227   2.872
31280W        W32144  21.390   5.858   0.733
31281W        W32145  21.558   6.986   2.734
31282W        W32146  19.606   6.933   0.334
31283W        W32147  19.414   4.970   1.112
31284W        W32148  18.984   4.749   1.330
31285W        W32149  19.863   5.590   0.632
31286W        W32150  19.726   6.914   3.031
31287W        W32151  18.323   4.429   2.879
31288W        W32152  18.894   3.589   2.809
31289W        W32153  20.777   4.034   1.733
31290W        W32154  20.536   4.837   0.466
31291W        W32155  20.994   4.413   3.276
31292W        W32156  18.382   4.042   2.535
31293W        W32157  18.464   6.882   3.485
31294W        W32158  19.805   6.028   0.347
31295W        W32159  18.307   4.822   1.934
31296W        W32160  19.440   4.925   3.036
31297W        W32161  21.594   4.605   1.782
31298W        W32162  21.434   5.529   2.366
31299W        W32163  19.782   5.154   1.432
31300W        W32164  20.495   6.481   1.970
31301W        W32165  18.833   5.703   2.198
31302W        W32166  18.180   5.326   1.844
31303W        W32167  19.456   5.430   2.953
31304W        W32168  21.505   5.104   3.148
31305W        W32169  19.121   6.527   1.693
31306W        W32170  20.338   6.280   2.679
31307W        W32171  19.668   4.916   1.875
31308W        W32172  19.599   5.588   1.626
31309W        W32173  20.568   6.575   3.419
31310W        W32174  19.851   5.705   3.391
31311W        W32175  19.952   5.564   2.911
31312W        W32176  18.264   4.770   3.276
31313W        W32177  21.008   6.366   3.207
31314W        W32178  18.667   3.785   1.060
31315W        W32179  19.208   6.311   2.151
31316W        W32180  21.640   6.090   1.535
31317W        W32181  21.223   4.263   1.846
31318W        W32182  21.425   4.365   0.083
31319W        W32183  21.954   5.182   2.401
31320W        W32184  19.902   6.874   2.152
31321W        W32185  21.499   6.356   0.880
31322W        W32186  18.893   7.250   0.568
31323W        W32187  19.062   7.142   1.059
31324W        W32188  18.922   3.954   2.340
31325W        W32189  21.489   5.035   2.613
31326W        W32190  21.012   5.242   1.317
31327W        W32191  20.974   5.031   0.274
31328W        W32192  20.111   6.280   2.214
31329W        W32193  20.119   4.786   1.599
31330W        W32194  20.452   6.725   2.435
31331W        W32195  21.461   5.483   1.103
31332W        W32196  20.394   4.096   1.029
31333W        W32197  18.918   6.752   0.725
31334W        W32198  18.391   4.198   1.218
31335W        W32199  21.160   4.868   1.684
31336W        W32200  18.595   6.540   1.680
31337W        W32201  19.912   6.582   0.694
31338W        W32202  21.174   4.793  28.864
31339W        W32203  18.382   6.630   2.228
31340W        W32204  19.180   6.403   2.654
31341W        W32205  19.523   5.491   1.089
31342W        W32206  19.352   4.102   2.010
31343W        W32207  21.756   3.610   1.689
31344W        W32208  18.837   5.475   0.196
31345W        W32209  19.027   4.595   0.223
31346W        W32210  18.694   6.476   1.127
31347W        W32211  19.699   5.964   1.293
31348W        W32212  21.131   6.855   2.982
31349W        W32213  20.234   4.509   0.748
31350W        W32214  21.450   7.040   1.495
31351W        W32215  21.060   4.941   2.929
31352W        W32216  21.884   6.425   1.224
31353W        W32217  20.446   5.764   2.754
31354W        W32218  18.323   5.223   1.059
31355W        W32219  19.254   5.894   2.446
31356W        W32220  20.549   5.002   0.970
31357W        W32221  20.547   5.465   1.213
31358W        W32222  18.638   4.827   2.392
31359W        W32223  18.704   4.797   2.922
31360W        W32224  18.599   3.800   1.571
31361W        W32225  20.389   4.072   2.110
31362W        W32226  20.134   4.238   3.210
31363W        W32227  20.651   4.067   0.563
31364W        W32228  21.625   6.777   3.200
31365W        W32229  20.504   3.782   3.130
31366W        W32230  21.498   6.240   3.315
31367W        W32231  21.075   4.322   2.775
31368W        W32232  20.827   4.239   1.264
31369W        W32233  21.166   5.382   3.445
31370W        W32234  18.865   6.954   1.510
31371W        W32235  19.726   4.584   0.727
31372W        W32236  19.068   3.979   3.114
31373W        W32237  21.474   4.571   0.858
31374W        W32238  21.571   5.083   0.728
31375W        W32239  19.361   7.199   3.271
31376W        W32240  19.383   3.551   0.796
31377W        W32241  21.683   4.116   1.592
31378W        W32242  21.824   6.494   0.196
31379W        W32243  18.556   5.666   1.744
31380W        W32244  20.682   4.042   0.032
31381W        W32245  21.772   6.611   1.718
31382W        W32246  21.604   3.777   2.406
31383W        W32247  20.277   5.197   3.035
31384W        W32248  19.963   6.044   0.846
31385W        W32249  20.725   5.600   3.615
31386W        W32250  20.368   3.727   1.700
31387W        W32251  18.786   4.719   1.838
31388W        W32252  18.537   5.828   2.610
31389W        W32253  20.447   6.912   1.445
31390W        W32254  21.321   4.573   2.281
31391W        W32255  20.296   7.027   2.889
31392W        W32256  21.517   5.808   0.251
31393W        W32257  20.049   5.431   1.082
31394W        W32258  21.742   3.791   2.898
31395W        W32259  20.005   5.901   2.530
31396W        W32260  20.355   4.597   2.021
31397W        W32261  21.059   4.980   0.790
31398W        W32262  21.491   4.857   0.267
31399W        W32263  21.098   6.736   0.815
31400W        W32264  21.090   6.180   1.651
31401W        W32265  20.699   5.345   0.604
31402W        W32266  20.137   5.504   1.606
31403W        W32267  21.466   5.284   1.597
31404W        W32268  18.535   4.376   2.178
31405W        W32269  21.224   5.428   2.873
31406W        W32270  21.695   7.012   2.058
31407W        W32271  19.587   6.460   1.489
31408W        W32272  20.790   7.075   2.652
31409W        W32273  20.458   4.426   2.499
31410W        W32274  19.889   7.184   2.600
31411W        W32275  21.614   4.112   1.065
31412W        W32276  21.094   5.336   1.938
31413W        W32277  18.139   4.622   2.384
31414W        W32278  21.303   4.427   1.360
31415W        W32279  21.475   4.630   2.933
31416W        W32280  20.466   6.363   1.463
31417W        W32281  19.784   6.836   1.199
31418W        W32282  18.867   4.121   0.436
31419W        W32283  19.937   3.799   2.082
31420W        W32284  18.975   6.926   0.161
31421W        W32285  19.194   5.364   0.691
31422W        W32286  20.029   6.058   3.031
31423W        W32287  19.946   4.318   1.166
31424W        W32288  21.203   3.910   1.454
31425W        W32289  20.840   7.159   1.704
31426W        W32290  20.369   6.996   1.950
31427W        W32291  19.704   5.886   2.096
31428W        W32292  21.519   6.616   2.365
31429W        W32293  19.119   3.981   0.887
31430W        W32294  19.685   6.398   1.975
31431W        W32295  19.272   4.182   0.062
31432W        W32296  19.975   4.803   2.307
31433W        W32297  20.823   3.744   2.151
31434W        W32298  18.292   5.679   2.196
31435W        W32299  19.840   5.246   0.228
31436W        W32300  19.245   3.774   0.367
31437W        W32301  20.013   4.878   1.057
31438W        W32302  20.734   3.982   2.588
31439W        W32303  19.552   5.927   2.874
31440W        W32304  20.343   5.671   3.266
31441W        W32305  20.833   5.691   3.097
31442W        W32306  20.161   3.888   3.573
31443W        W32307  19.263   4.568   1.753
31444W        W32308  18.904   4.229   1.306
31445W        W32309  18.561   6.971   1.065
31446W        W32310  20.166   6.555   3.094
31447W        W32311  18.998   5.850   0.509
31448W        W32312  20.656   5.496   1.720
31449W        W32313  20.771   4.932   2.037
31450W        W32314  20.218   5.739   2.068
31451W        W32315  20.660   6.078   0.159
31452W        W32316  20.320   4.252   1.604
31453W        W32317  21.962   4.757   0.827
31454W        W32318  18.521   6.987   2.953
31455W        W32319  18.714   6.230   2.323
31456W        W32320  18.223   7.211   0.770
31457W        W32321  19.958   4.280   2.360
31458W        W32322  19.468   6.412   0.499
31459W        W32323  21.508   6.739   0.531
31460W        W32324  20.193   5.192   0.629
31461W        W32325  19.351   4.434   1.058
31462W        W32326  20.330   4.355   0.259
31463W        W32327  20.534   6.139   3.131
31464W        W32328  21.133   4.134   0.855
31465W        W32329  18.455   3.765   0.352
31466W        W32330  19.643   6.266   2.465
31467W        W32331  19.375   6.045   1.728
31468W        W32332  19.311   6.066   0.160
31469W        W32333  18.250   6.576   0.784
31470W        W32334  18.992   5.212   2.985
31471W        W32335  19.552   3.947   3.268
31472W        W32336  20.238   4.006   2.722
31473W        W32337  19.610   3.696   1.230
31474W        W32338  20.431   3.624   0.766
31475W        W32339  18.503   3.872   2.073
31476W        W32340  18.469   4.656   1.446
31477W        W32341  21.322   3.746   1.945
31478W        W32342  18.890   4.459   0.823
31479W        W32343  21.187   4.062   2.332
31480W        W32344  21.654   5.333   0.197
31481W        W32345  18.873   4.189   1.824
31482W        W32346  20.091   4.566   2.809
31483W        W32347  18.187   4.204   0.273
31484W        W32348  19.001   5.756   2.898
31485W        W32349  20.291   5.140   1.970
31486W        W32350  20.134   6.956   0.335
31487W        W32351  18.354   5.693   0.236
31488W        W32352  19.189   6.225   3.125
31489W        W32353  18.632   5.311   2.587
31490W        W32354  19.640   5.549   2.490
31491W        W32355  21.212   3.791   2.785
31492W        W32356  21.752   5.459   2.796
31493W        W32357  21.810   5.549   0.666
31494W        W32358  20.472   5.792   0.796
31495W        W32359  21.193   7.136   0.281
31496W        W32360  20.316   5.228   3.557
31497W        W32361  18.768   6.120   3.392
31498W        W32362  21.900   4.160   3.337
31499W        W32363  21.499   5.035   2.089
31500W        W32364  19.779   7.146   3.546
31501W        W32365  19.748   3.777   0.335
31502W        W32366  21.349   6.266   0.374
31503W        W32367  19.199   4.464   2.963
31504W        W32368  19.637   6.433   2.948
31505W        W32369  21.561   4.222   2.646
31506W        W32370  20.874   7.235   0.704
31507W        W32371  21.034   5.832   2.055
31508W        W32372  19.331   4.180   2.540
31509W        W32373  19.818   5.197   3.286
31510W        W32374  19.080   6.267   0.821
31511W        W32375  20.981   5.622   0.957
31512W        W32376  18.792   4.339   2.673
31513W        W32377  20.026   6.388   1.217
31514W        W32378  21.865   4.969   1.547
31515W        W32379  19.990   3.750   3.100
31516W        W32380  20.972   6.343   2.118
31517W        W32381  21.292   6.733   1.904
31518W        W32382  20.276   6.232   0.485
31519W        W32383  18.346   6.410   3.225
31520W        W32384  19.029   4.482   2.234
31521W        W32385  19.096   3.745   1.368
31522W        W32386  20.819   4.362   2.146
31523W        W32387  19.469   5.615   0.312
31524W        W32388  21.528   5.722   1.886
31525W        W32389  18.822   6.621   3.183
31526W        W32390  21.313   7.255   0.976
31527W        W32391  19.424   4.142   1.486
31528W        W32392  19.056   5.646   1.549
31529W        W32393  19.530   7.264   2.241
31530W        W32394  21.386   7.238   3.224
31531W        W32395  20.633   5.451   2.238
31532W        W32396  18.340   5.045   0.542
31533W        W32397  21.607   6.836   1.039
31534W        W32398  21.564   4.146   0.550
31535W        W32399  19.414   3.696   2.819
31536W        W32400  21.376   6.529   1.390
31537W        W32401  21.433   4.940   1.217
31538W        W32402  19.651   4.643   1.428
31539W        W32403  19.865   5.062   2.768
31540W        W32404  20.848   6.182   2.729
31541W        W32405  19.607   4.610   2.677
31542W        W32406  19.402   6.961   1.553
31543W        W32407  18.854   7.175   3.311
31544W        W32408  18.962   6.420   0.301
31545W        W32409  21.261   6.025   1.191
31546W        W32410  19.125   4.843   2.609
31547W        W32411  22.011   5.078   0.426
31548W        W32412  19.467   5.916   0.739
31549W        W32413  20.690   5.303   2.754
31550W        W32414  20.440   4.962   2.446
31551W        W32415  19.140   5.377   2.517
31552W        W32416  21.229   7.063   2.343
31553W        W32417  20.994   3.882   3.281
31554W        W32418  18.566   3.950   3.011
31555W        W32419  19.129   4.991   2.096
31556W        W32420  19.532   4.699   0.201
31557W        W32421  18.264   6.560   2.736
31558W        W32422  19.834   5.374   2.042
31559W        W32423  19.804   4.280   0.285
31560W        W32424  18.976   5.255   1.161
31561W        W32425  18.539   7.119   2.442
31562W        W32426  21.243   5.405   0.509
31563W        W32427  21.423   4.142   3.144
31564W        W32428  20.910   6.432   1.204
31565W        W32429  18.474   5.259   3.078
31566W        W32430  21.466   3.630   0.559
31567W        W32431  21.005   6.212   0.764
31568W        W32432  19.674   5.111   0.693
31569W        W32433  21.110   4.022   0.323
31570W        W32434  20.883   4.715   2.510
31571W        W32435  18.599   5.165   1.533
31572W        W32436  19.050   6.153   1.336
31573W        W32437  20.929   4.748   1.231
31574W        W32438  19.866   4.393   1.847
31575W        W32439  21.831   6.185   2.426
31576W        W32440  21.672   4.214   2.126
31577W        W32441  18.313   6.967   1.515
31578W        W32442  18.630   6.008   0.871
31579W        W32443  18.661   4.009   3.577
31580W        W32444  19.839   6.643   3.468
31581W        W32445  21.848   5.597   1.461
31582W        W32446  20.943   5.809   0.477
31583W        W32447  20.359   7.240   2.404
31584W        W32448  21.140   5.900   3.461
31585W        W32449  19.895   3.559   0.783
31586W        W32450  20.747   4.550   1.672
31587W        W32451  18.342   6.137   1.916
31588W        W32452  19.655   4.029   0.820
31589W        W32453  19.322   5.773   3.335
31590W        W32454  20.426   4.583   1.233
31591W        W32455  20.589   6.016   2.309
31592W        W32456  18.756   6.679   2.613
31593W        W32457  19.337   6.670   3.355
31594W        W32458  19.333   4.311   0.544
31595W        W32459  20.747   4.511   0.817
31596W        W32460  20.654   6.637   2.915
31597W        W32461  19.269   5.137   1.601
31598W        W32462  19.074   7.054   2.426
31599W        W32463  21.693   7.016   0.154
31600W        W32464  18.471   5.785   3.112
31601W        W32465  20.600   6.000   1.796
31602W        W32466  19.065   5.751   1.019
31603W        W32467  19.512   6.808   2.554
31604W        W32468  19.906   3.950   1.572
31605W        W32469  18.175   6.067   0.564
31606W        W32470  20.033   4.776   0.336
31607W        W32471  18.608   5.620   1.226
31608W        W32472  19.753   4.114   2.815
31609W        W32473  21.563   3.870   0.105
31610W        W32474  21.552   5.656   3.228
31611W        W32475  20.249   6.995   3.420
31612W        W32476  21.779   6.030   2.914
31613W        W32477  21.181   6.793   3.487
31614W        W32478  19.102   7.195   1.924
31615W        W32479  21.780   5.924   1.059
31616W        W32480  20.578   5.021   1.522
31617W        W32481  20.156   3.661   1.222
31618W        W32482  19.172   6.649   1.200
31619W        W32483  19.525   4.553   2.195
31620W        W32484  19.513   3.670   1.757
31621W        W32485  18.502   6.907   0.439
31622W        W32486  20.236   5.899   1.272
31623W        W32487  19.150   6.894   2.912
31624W        W32488  18.667   5.475   0.714
31625W        W32489  18.355   4.242   1.722
31626W        W32490  20.027   6.090   1.710
31627W        W32491  18.449   4.141   0.720
31628W        W32492  21.048   5.188   2.420
31629W        W32493  21.143   4.530   0.485
31630W        W32494  21.489   6.250   1.997
31631W        W32495  20.067   6.616   1.697
31632W        W32496  19.430   6.832   0.806
31633W        W32497  20.623   3.584   0.263
31634W        W32498  18.586   7.121   1.927
31635W        W32499  20.587   4.723   3.444
31636W        W32500  18.747   4.382   3.217
31637W        W32501  18.469   4.730   0.940
31638W        W32502  19.251   4.810   0.650
31639W        W32503  20.739   5.190   3.252
31640W        W32504  19.312   5.505   2.046
31641W        W32505  20.691   3.736   1.252
31642W        W32506  19.945   7.105   1.619
31643W        W32507  21.029   6.620   2.542
31644W        W32508  20.860   6.644   1.656
31645W        W32509  20.753   5.942   1.299
31646W        W32510  20.128   4.006   0.592
31647W        W32511  21.879   3.705   1.214
31648W        W32512  19.297   5.151   0.237
31649W        W32513  21.787   4.556   1.269
31650W        W32514  20.268   5.686   0.312
31651W        W32515  21.251   5.953   2.944
31652W        W32516  20.904   6.527   0.345
31653W        W32517  19.677   4.468   3.173
31654W        W32518  19.540   5.062   2.374
31655W        W32519  21.419   6.440   2.844
31656W        W32520  20.592   4.283   2.984
31657W        W32521  18.240   4.933   2.768
31658W        W32522  20.158   5.393   2.466
31659W        W32523  18.519   6.084   1.425
31660W        W32524  18.655   5.229   2.054
31661W        W32525  20.951   5.712   2.555
31662W        W32526  20.749   7.053   3.265
31663W        W32527  20.562   4.789   2.924
31664W        W32528  20.993   6.957   1.262
31665W        W32529  19.985   6.653   2.623
31666W        W32530  19.386   6.797   2.055
31667W        W32531  21.300   6.102   2.452
31668W        W32532  20.169   6.193   3.516
31669W        W32533  18.859   6.088   1.828
31670W        W32534  21.132   5.679   1.546
31671W        W32535  20.832   6.842   2.123
31672W        W32536  18.870   6.714   2.098
31673W        W32537  20.100   4.762   3.284
31674W        W32538  20.279   6.823   0.961
31675W        W32539  19.652   6.174   3.382
31676W        W32540  19.556   6.361   0.997
31677W        W32541  18.835   5.024   0.438
31678W        W32542  18.176   7.281   7.047
31679W        W32543  18.667   6.220   6.641
31680W        W32544  21.382   5.857   4.472
31681W        W32545  21.635   6.929   6.364
31682W        W32546  19.296   7.003   3.772
31683W        W32547  19.731   5.068   4.883
31684W        W32548  19.214   4.782   5.205
31685W        W32549  20.312   5.703   4.359
31686W        W32550  19.809   6.941   6.650
31687W        W32551  18.345   4.392   6.660
31688W        W32552  18.873   3.489   6.470
31689W        W32553  20.861   4.118   5.393
31690W        W32554  20.480   4.790   3.969
31691W        W32555  20.838   4.654   7.059
31692W        W32556  18.441   4.052   6.269
31693W        W32557  18.556   6.962   7.176
31694W        W32558  19.778   6.320   3.873
31695W        W32559  18.375   4.758   5.676
31696W        W32560  19.367   4.999   6.871
31697W        W32561  21.694   4.604   5.438
31698W        W32562  21.435   5.647   6.262
31699W        W32563  19.990   5.179   5.344
31700W        W32564  20.526   6.505   5.638
31701W        W32565  18.742   5.715   5.955
31702W        W32566  18.107   5.214   5.591
31703W        W32567  19.285   5.387   6.517
31704W        W32568  21.597   5.161   6.936
31705W        W32569  19.109   6.461   5.380
31706W        W32570  20.313   6.315   6.447
31707W        W32571  19.691   4.918   5.712
31708W        W32572  19.766   5.641   5.469
31709W        W32573  20.787   6.799   7.164
31710W        W32574  19.957   5.698   7.232
31711W        W32575  19.941   5.658   6.705
31712W        W32576  18.163   4.704   7.049
31713W        W32577  21.055   6.380   6.892
31714W        W32578  18.580   3.802   4.800
31715W        W32579  19.238   6.221   5.848
31716W        W32580  21.580   6.084   5.240
31717W        W32581  21.232   4.415   5.639
31718W        W32582  21.341   4.390   3.657
31719W        W32583  21.944   5.024   6.102
31720W        W32584  19.763   6.954   5.856
31721W        W32585  21.555   6.487   4.186
31722W        W32586  18.565   7.125   4.353
31723W        W32587  19.007   7.139   4.652
31724W        W32588  18.940   3.909   6.161
31725W        W32589  21.498   5.135   6.349
31726W        W32590  20.916   5.403   4.990
31727W        W32591  20.800   5.111   3.757
31728W        W32592  20.161   6.319   5.945
31729W        W32593  20.057   4.378   5.095
31730W        W32594  20.599   6.592   6.149
31731W        W32595  21.133   5.385   4.519
31732W        W32596  20.470   4.040   4.504
31733W        W32597  18.961   6.845   4.206
31734W        W32598  18.264   4.168   5.038
31735W        W32599  20.808   5.001   5.300
31736W        W32600  18.602   6.560   5.408
31737W        W32601  19.744   6.835   3.949
31738W        W32602  21.139   4.863   3.439
31739W        W32603  18.408   6.576   5.896
31740W        W32604  19.091   6.248   6.341
31741W        W32605  19.672   5.934   4.698
31742W        W32606  19.399   4.072   5.928
31743W        W32607  21.831   3.803   5.470
31744W        W32608  18.846   5.532   3.362
31745W        W32609  18.542   4.540   3.665
31746W        W32610  18.820   6.495   4.937
31747W        W32611  19.351   6.270   4.952
31748W        W32612  21.194   6.823   6.670
31749W        W32613  20.242   4.436   4.251
31750W        W32614  21.499   7.034   5.355
31751W        W32615  21.179   4.923   6.706
31752W        W32616  21.898   6.478   5.055
31753W        W32617  20.427   5.824   6.564
31754W        W32618  18.006   5.295   4.709
31755W        W32619  19.237   5.781   6.126
31756W        W32620  20.361   4.900   4.452
31757W        W32621  20.607   5.341   4.592
31758W        W32622  18.744   4.839   6.052
31759W        W32623  18.667   4.819   6.787
31760W        W32624  18.648   3.805   5.301
31761W        W32625  20.355   4.200   5.541
31762W        W32626  20.095   4.257   6.892
31763W        W32627  20.543   4.064   3.998
31764W        W32628  21.680   6.789   6.869
31765W        W32629  20.451   3.877   6.861
31766W        W32630  21.530   6.243   7.036
31767W        W32631  21.092   4.408   6.647
31768W        W32632  20.871   4.235   4.811
31769W        W32633  21.196   5.394   7.195
31770W        W32634  18.913   6.929   5.215
31771W        W32635  19.773   4.506   4.072
31772W        W32636  19.096   3.990   6.912
31773W        W32637  21.148   4.622   4.614
31774W        W32638  21.426   4.979   4.378
31775W        W32639  19.416   6.989   6.977
31776W        W32640  19.097   3.744   4.148
31777W        W32641  21.505   4.176   5.241
31778W        W32642  21.647   6.571   3.679
31779W        W32643  18.421   5.652   5.507
31780W        W32644  20.602   4.153   3.486
31781W        W32645  21.718   6.598   5.532
31782W        W32646  21.708   3.751   5.996
31783W        W32647  20.241   5.073   6.670
31784W        W32648  19.977   6.116   4.316
31785W        W32649  20.737   5.529   7.374
31786W        W32650  20.530   3.629   5.239
31787W        W32651  18.848   4.604   5.520
31788W        W32652  18.465   5.750   6.417
31789W        W32653  20.723   6.840   5.296
31790W        W32654  21.545   4.763   5.908
31791W        W32655  20.303   6.958   6.432
31792W        W32656  21.514   5.635   3.746
31793W        W32657  19.887   5.555   4.991
31794W        W32658  21.754   3.708   6.524
31795W        W32659  20.013   5.938   6.272
31796W        W32660  20.164   4.704   5.515
31797W        W32661  20.860   4.994   4.296
31798W        W32662  21.189   4.818   3.947
31799W        W32663  21.268   6.722   4.553
31800W        W32664  21.114   5.895   5.402
31801W        W32665  20.730   5.498   4.124
31802W        W32666  20.267   5.716   5.321
31803W        W32667  21.263   5.405   5.381
31804W        W32668  18.740   4.319   5.928
31805W        W32669  21.217   5.437   6.684
31806W        W32670  21.765   7.051   5.800
31807W        W32671  19.583   6.640   5.279
31808W        W32672  20.830   7.034   6.313
31809W        W32673  20.671   4.439   6.235
31810W        W32674  19.923   7.288   6.250
31811W        W32675  21.365   4.145   4.718
31812W        W32676  21.400   5.284   5.870
31813W        W32677  18.340   4.546   6.160
31814W        W32678  21.084   4.555   5.153
31815W        W32679  21.497   4.622   6.395
31816W        W32680  20.392   6.260   5.200
31817W        W32681  19.750   6.929   4.859
31818W        W32682  18.672   4.076   4.097
31819W        W32683  19.956   3.709   5.720
31820W        W32684  18.798   7.151   3.824
31821W        W32685  19.817   5.613   4.250
31822W        W32686  19.862   6.224   6.682
31823W        W32687  19.972   4.125   4.617
31824W        W32688  21.154   3.829   5.083
31825W        W32689  21.029   7.220   5.443
31826W        W32690  20.254   6.864   5.890
31827W        W32691  19.675   5.916   5.871
31828W        W32692  21.590   6.539   6.033
31829W        W32693  18.959   4.055   4.553
31830W        W32694  19.685   6.456   5.775
31831W        W32695  19.254   4.340   3.467
31832W        W32696  19.987   4.934   6.179
31833W        W32697  20.911   3.874   5.918
31834W        W32698  18.245   5.569   5.990
31835W        W32699  19.846   5.363   3.786
31836W        W32700  19.160   3.854   3.629
31837W        W32701  20.206   4.866   4.992
31838W        W32702  20.804   3.958   6.453
31839W        W32703  19.469   5.877   6.586
31840W        W32704  20.365   5.489   6.970
31841W        W32705  20.824   5.707   6.875
31842W        W32706  20.042   3.836   7.221
31843W        W32707  19.371   4.488   5.601
31844W        W32708  18.783   4.263   5.086
31845W        W32709  18.550   6.961   4.841
31846W        W32710  20.196   6.622   6.820
31847W        W32711  18.848   6.340   4.078
31848W        W32712  20.751   5.509   5.473
31849W        W32713  20.918   5.118   5.778
31850W        W32714  20.196   5.769   5.828
31851W        W32715  20.700   6.116   3.613
31852W        W32716  20.456   4.074   5.033
31853W        W32717  21.660   4.478   4.447
31854W        W32718  18.529   6.981   6.662
31855W        W32719  18.605   6.179   6.140
31856W        W32720  18.073   7.009   4.277
31857W        W32721  20.213   4.483   5.985
31858W        W32722  19.339   6.552   4.045
31859W        W32723  21.237   6.873   4.007
31860W        W32724  20.278   5.261   4.080
31861W        W32725  19.926   4.645   4.618
31862W        W32726  20.228   4.405   3.722
31863W        W32727  20.564   6.216   6.902
31864W        W32728  20.969   3.985   4.367
31865W        W32729  18.294   3.744   3.919
31866W        W32730  19.592   6.239   6.243
31867W        W32731  19.506   6.124   5.415
31868W        W32732  19.224   6.230   3.658
31869W        W32733  18.389   6.610   4.489
31870W        W32734  18.899   5.286   6.851
31871W        W32735  19.555   3.790   7.075
31872W        W32736  20.300   4.086   6.389
31873W        W32737  19.673   3.780   4.899
31874W        W32738  20.421   3.565   4.335
31875W        W32739  18.518   3.836   5.811
31876W        W32740  18.434   4.655   5.159
31877W        W32741  21.341   3.885   5.635
31878W        W32742  18.519   4.334   4.629
31879W        W32743  21.167   4.280   6.138
31880W        W32744  21.537   5.099   3.684
31881W        W32745  19.018   4.091   5.545
31882W        W32746  20.208   4.591   6.500
31883W        W32747  18.198   4.239   3.912
31884W        W32748  18.953   5.780   6.563
31885W        W32749  20.415   5.149   5.637
31886W        W32750  20.128   7.168   3.950
31887W        W32751  18.312   5.475   3.516
31888W        W32752  19.136   6.191   6.850
31889W        W32753  18.602   5.227   6.410
31890W        W32754  19.688   5.543   6.238
31891W        W32755  21.276   3.799   6.303
31892W        W32756  21.836   5.470   6.568
31893W        W32757  21.619   5.455   4.250
31894W        W32758  20.624   6.016   4.109
31895W        W32759  21.078   7.304   3.631
31896W        W32760  20.361   5.160   7.380
31897W        W32761  18.715   6.179   7.159
31898W        W32762  21.901   4.247   7.119
31899W        W32763  21.294   4.912   5.475
31900W        W32764  19.900   7.079   7.147
31901W        W32765  19.604   3.734   3.962
31902W        W32766  21.167   6.345   3.764
31903W        W32767  19.115   4.529   6.824
31904W        W32768  19.447   6.547   6.644
31905W        W32769  21.644   4.157   6.292
31906W        W32770  20.882   7.276   4.119
31907W        W32771  21.071   5.710   5.873
31908W        W32772  19.280   4.186   6.448
31909W        W32773  19.933   5.211   7.065
31910W        W32774  19.117   6.448   4.506
31911W        W32775  20.852   5.815   4.554
31912W        W32776  18.801   4.435   6.425
31913W        W32777  19.872   6.281   5.034
31914W        W32778  21.713   5.046   5.160
31915W        W32779  19.946   3.784   6.703
31916W        W32780  20.922   6.296   5.862
31917W        W32781  21.210   6.704   5.643
31918W        W32782  20.224   6.650   3.816
31919W        W32783  18.387   6.536   6.938
31920W        W32784  19.183   4.564   6.085
31921W        W32785  19.125   3.877   5.051
31922W        W32786  20.669   4.654   5.725
31923W        W32787  19.589   5.844   3.809
31924W        W32788  21.571   5.745   5.691
31925W        W32789  18.900   6.660   6.871
31926W        W32790  21.224   7.261   4.532
31927W        W32791  19.538   4.240   5.140
31928W        W32792  19.155   5.777   5.592
31929W        W32793  19.418   7.210   6.134
31930W        W32794  21.362   7.205   6.973
31931W        W32795  20.611   5.498   5.997
31932W        W32796  18.628   5.050   3.517
31933W        W32797  21.682   6.891   4.850
31934W        W32798  21.232   4.367   4.170
31935W        W32799  19.380   3.655   6.364
31936W        W32800  21.379   6.551   5.146
31937W        W32801  21.239   5.018   4.942
31938W        W32802  19.721   4.718   5.253
31939W        W32803  19.751   5.169   6.580
31940W        W32804  20.844   6.252   6.450
31941W        W32805  19.511   4.656   6.500
31942W        W32806  19.403   7.128   5.206
31943W        W32807  18.944   7.196   6.940
31944W        W32808  18.915   6.666   3.686
31945W        W32809  21.553   6.319   4.703
31946W        W32810  19.052   4.918   6.462
31947W        W32811  21.680   4.661   3.950
31948W        W32812  19.444   6.095   4.255
31949W        W32813  20.642   5.351   6.532
31950W        W32814  20.519   4.987   6.134
31951W        W32815  19.013   5.297   6.093
31952W        W32816  21.256   7.093   5.997
31953W        W32817  20.954   3.988   6.966
31954W        W32818  18.607   3.918   6.734
31955W        W32819  19.168   4.962   5.725
31956W        W32820  19.555   4.796   3.542
31957W        W32821  18.287   6.534   6.414
31958W        W32822  19.959   5.327   5.843
31959W        W32823  19.755   4.219   3.641
31960W        W32824  19.390   5.736   5.100
31961W        W32825  18.421   7.036   6.152
31962W        W32826  21.190   5.325   4.003
31963W        W32827  21.519   4.120   6.788
31964W        W32828  21.092   6.181   4.878
31965W        W32829  18.366   5.230   6.899
31966W        W32830  21.388   3.720   4.083
31967W        W32831  21.097   6.260   4.327
31968W        W32832  20.098   5.304   4.607
31969W        W32833  21.029   4.007   3.825
31970W        W32834  21.055   4.787   6.176
31971W        W32835  18.458   5.190   5.222
31972W        W32836  18.936   6.020   5.162
31973W        W32837  20.740   4.881   4.810
31974W        W32838  19.838   4.264   5.580
31975W        W32839  21.757   6.046   6.132
31976W        W32840  21.716   4.230   5.787
31977W        W32841  18.277   6.934   5.262
31978W        W32842  18.530   6.122   4.732
31979W        W32843  18.680   3.950   7.244
31980W        W32844  19.761   6.585   7.059
31981W        W32845  21.735   5.565   5.235
31982W        W32846  21.096   5.845   3.988
31983W        W32847  20.422   7.307   6.067
31984W        W32848  21.148   5.923   7.195
31985W        W32849  19.897   3.634   4.386
31986W        W32850  20.569   4.549   5.214
31987W        W32851  18.240   6.075   5.755
31988W        W32852  19.473   3.924   4.445
31989W        W32853  19.523   5.505   6.963
31990W        W32854  20.414   4.482   4.732
31991W        W32855  20.553   6.018   6.097
31992W        W32856  18.779   6.662   6.332
31993W        W32857  19.292   6.535   7.199
31994W        W32858  19.351   4.185   3.985
31995W        W32859  20.745   4.474   4.326
31996W        W32860  20.684   6.690   6.668
31997W        W32861  19.478   5.221   5.329
31998W        W32862  18.937   7.080   6.030
31999W        W32863  21.587   7.073   3.672
32000W        W32864  18.563   5.729   6.917
32001W        W32865  20.618   5.989   5.587
32002W        W32866  19.075   5.954   4.660
32003W        W32867  19.347   6.680   6.127
32004W        W32868  20.030   3.888   5.252
32005W        W32869  18.218   6.103   4.322
32006W        W32870  20.013   4.872   3.778
32007W        W32871  18.485   5.664   4.968
32008W        W32872  19.810   4.230   6.442
32009W        W32873  21.525   3.910   3.605
32010W        W32874  21.565   5.693   6.982
32011W        W32875  20.383   7.073   6.966
32012W        W32876  21.799   6.005   6.642
32013W        W32877  21.298   6.699   7.206
32014W        W32878  19.021   7.290   5.552
32015W        W32879  21.782   5.866   4.824
32016W        W32880  20.427   5.307   5.079
32017W        W32881  20.198   3.690   4.801
32018W        W32882  19.269   6.765   4.873
32019W        W32883  19.692   4.516   6.027
32020W        W32884  19.524   3.812   5.422
32021W        W32885  18.467   6.755   3.989
32022W        W32886  20.222   5.912   4.828
32023W        W32887  19.164   6.958   6.522
32024W        W32888  18.326   5.604   4.441
32025W        W32889  18.464   4.255   5.502
32026W        W32890  20.004   6.114   5.507
32027W        W32891  18.236   3.960   4.401
32028W        W32892  21.034   5.290   6.230
32029W        W32893  20.844   4.476   3.808
32030W        W32894  21.394   6.222   5.689
32031W        W32895  20.064   6.622   5.462
32032W        W32896  19.456   6.970   4.389
32033W        W32897  20.625   3.659   3.659
32034W        W32898  18.588   7.012   5.655
32035W        W32899  20.335   4.714   7.029
32036W        W32900  18.621   4.451   7.130
32037W        W32901  18.261   4.836   4.703
32038W        W32902  19.859   5.015   4.249
32039W        W32903  20.777   5.163   6.989
32040W        W32904  19.444   5.410   5.808
32041W        W32905  20.756   3.702   4.767
32042W        W32906  19.893   7.100   5.361
32043W        W32907  21.119   6.629   6.198
32044W        W32908  20.928   6.362   5.344
32045W        W32909  20.710   5.864   5.072
32046W        W32910  20.022   4.021   4.064
32047W        W32911  21.663   3.757   4.974
32048W        W32912  19.308   5.256   3.420
32049W        W32913  21.550   4.601   4.942
32050W        W32914  20.243   5.722   3.805
32051W        W32915  21.261   5.962   6.672
32052W        W32916  20.754   6.890   3.777
32053W        W32917  19.564   4.275   6.896
32054W        W32918  19.467   5.036   6.161
32055W        W32919  21.483   6.420   6.540
32056W        W32920  20.591   4.343   6.741
32057W        W32921  18.223   4.875   6.545
32058W        W32922  20.188   5.429   6.294
32059W        W32923  18.434   6.098   5.255
32060W        W32924  18.608   5.236   5.756
32061W        W32925  20.912   5.758   6.362
32062W        W32926  20.866   7.186   6.814
32063W        W32927  20.691   4.824   6.590
32064W        W32928  21.145   6.978   4.985
32065W        W32929  19.914   6.639   6.257
32066W        W32930  19.299   6.871   5.649
32067W        W32931  21.261   6.119   6.181
32068W        W32932  20.090   6.200   7.147
32069W        W32933  18.763   6.133   5.649
32070W        W32934  21.301   5.725   4.961
32071W        W32935  20.784   6.930   5.815
32072W        W32936  18.905   6.604   5.836
32073W        W32937  19.851   4.733   6.871
32074W        W32938  19.982   6.859   4.395
32075W        W32939  19.570   6.030   7.069
32076W        W32940  19.635   6.486   4.561
32077W        W32941  19.040   4.802   3.330
32078W        W32942  18.220   7.336  10.659
32079W        W32943  18.679   6.182  10.251
32080W        W32944  21.410   5.875   8.034
32081W        W32945  21.700   7.082  10.016
32082W        W32946  19.258   6.990   7.469
32083W        W32947  19.446   5.138   8.417
32084W        W32948  19.118   4.891   8.797
32085W        W32949  20.119   5.363   8.088
32086W        W32950  19.761   6.938  10.239
32087W        W32951  18.298   4.356  10.224
32088W        W32952  19.002   3.611  10.105
32089W        W32953  20.805   4.074   8.977
32090W        W32954  20.458   4.656   7.521
32091W        W32955  20.970   4.484  10.653
32092W        W32956  18.401   4.023   9.832
32093W        W32957  18.411   6.897  10.838
32094W        W32958  19.659   6.277   7.503
32095W        W32959  18.333   4.790   9.328
32096W        W32960  19.464   5.055  10.384
32097W        W32961  21.490   4.656   9.076
32098W        W32962  21.573   5.815   9.966
32099W        W32963  20.000   5.134   8.909
32100W        W32964  20.531   6.368   9.264
32101W        W32965  18.693   5.684   9.563
32102W        W32966  18.149   5.262   9.207
32103W        W32967  19.326   5.424  10.050
32104W        W32968  21.519   5.096  10.531
32105W        W32969  19.142   6.397   8.978
32106W        W32970  20.307   6.339  10.080
32107W        W32971  19.699   4.900   9.265
32108W        W32972  19.827   5.639   9.020
32109W        W32973  20.608   6.729  10.751
32110W        W32974  19.978   5.704  10.773
32111W        W32975  20.191   5.527  10.331
32112W        W32976  17.872   4.578  10.451
32113W        W32977  21.055   6.524  10.473
32114W        W32978  18.778   3.936   8.401
32115W        W32979  19.420   6.330   9.403
32116W        W32980  21.534   6.071   8.897
32117W        W32981  21.096   4.393   9.283
32118W        W32982  21.245   4.361   7.167
32119W        W32983  21.941   5.062   9.767
32120W        W32984  19.882   7.082   9.400
32121W        W32985  21.647   6.499   7.937
32122W        W32986  18.548   7.104   8.054
32123W        W32987  19.220   7.212   8.367
32124W        W32988  19.059   3.960   9.690
32125W        W32989  21.312   5.065  10.005
32126W        W32990  20.871   5.248   8.617
32127W        W32991  20.838   5.004   7.483
32128W        W32992  20.175   6.246   9.601
32129W        W32993  20.089   4.554   8.774
32130W        W32994  20.576   6.582   9.735
32131W        W32995  21.329   5.452   8.518
32132W        W32996  20.389   3.998   8.198
32133W        W32997  18.997   6.859   8.039
32134W        W32998  18.415   4.277   8.503
32135W        W32999  20.985   4.859   9.032
32136W        W33000  18.600   6.499   9.099
32137W        W33001  19.723   6.794   7.536
32138W        W33002  21.257   4.880   7.225
32139W        W33003  18.376   6.572   9.583
32140W        W33004  19.171   6.307   9.850
32141W        W33005  19.437   5.702   8.645
32142W        W33006  19.586   4.000   9.659
32143W        W33007  21.722   3.730   9.162
32144W        W33008  19.079   5.739   7.076
32145W        W33009  18.762   4.571   7.627
32146W        W33010  18.778   6.463   8.621
32147W        W33011  19.376   6.208   8.561
32148W        W33012  21.241   7.015  10.258
32149W        W33013  20.134   4.401   7.934
32150W        W33014  21.482   7.124   8.965
32151W        W33015  21.013   5.030  10.506
32152W        W33016  21.890   6.435   8.752
32153W        W33017  20.529   5.850  10.125
32154W        W33018  18.213   5.335   8.327
32155W        W33019  19.223   5.850   9.590
32156W        W33020  20.515   5.037   8.282
32157W        W33021  20.342   5.384   8.585
32158W        W33022  18.683   4.843   9.720
32159W        W33023  18.703   4.790  10.234
32160W        W33024  18.693   3.740   8.882
32161W        W33025  20.363   4.250   9.203
32162W        W33026  20.087   4.252  10.525
32163W        W33027  20.602   4.226   7.785
32164W        W33028  21.712   6.920  10.528
32165W        W33029  20.525   3.743  10.418
32166W        W33030  21.547   6.438  10.690
32167W        W33031  21.047   4.262  10.190
32168W        W33032  20.795   4.233   8.427
32169W        W33033  21.239   5.371  10.867
32170W        W33034  18.947   6.867   8.978
32171W        W33035  19.693   4.558   7.734
32172W        W33036  19.099   3.996  10.436
32173W        W33037  21.208   4.515   8.189
32174W        W33038  21.567   4.899   8.217
32175W        W33039  19.316   7.122  10.521
32176W        W33040  19.214   3.826   7.973
32177W        W33041  21.519   4.092   8.862
32178W        W33042  21.750   6.535   7.405
32179W        W33043  18.529   5.638   9.088
32180W        W33044  20.574   4.232   7.248
32181W        W33045  21.763   6.726   9.158
32182W        W33046  21.570   3.854   9.694
32183W        W33047  20.395   5.033  10.327
32184W        W33048  19.749   5.930   8.302
32185W        W33049  20.772   5.533  10.981
32186W        W33050  20.397   3.736   9.091
32187W        W33051  18.822   4.693   9.174
32188W        W33052  18.418   5.776   9.971
32189W        W33053  20.506   6.982   8.833
32190W        W33054  21.503   4.864   9.559
32191W        W33055  20.291   7.071  10.164
32192W        W33056  21.477   5.696   7.528
32193W        W33057  19.845   5.440   8.519
32194W        W33058  21.778   3.836  10.217
32195W        W33059  20.024   5.919   9.986
32196W        W33060  20.191   4.758   9.238
32197W        W33061  21.074   5.087   8.166
32198W        W33062  21.273   4.841   7.760
32199W        W33063  21.313   6.769   8.222
32200W        W33064  21.040   6.184   9.008
32201W        W33065  20.624   5.287   7.857
32202W        W33066  20.331   5.522   9.069
32203W        W33067  21.192   5.687   8.972
32204W        W33068  18.624   4.367   9.514
32205W        W33069  21.214   5.475  10.325
32206W        W33070  21.774   7.132   9.456
32207W        W33071  19.611   6.613   8.891
32208W        W33072  20.802   7.134   9.988
32209W        W33073  20.656   4.350   9.820
32210W        W33074  19.911   7.259   9.873
32211W        W33075  21.480   4.095   8.334
32212W        W33076  21.476   5.403   9.634
32213W        W33077  18.217   4.568   9.764
32214W        W33078  21.134   4.416   8.766
32215W        W33079  21.311   4.661  10.310
32216W        W33080  20.555   6.209   8.783
32217W        W33081  19.702   6.918   8.445
32218W        W33082  18.792   4.050   7.730
32219W        W33083  20.068   3.918   9.454
32220W        W33084  18.786   7.093   7.603
32221W        W33085  19.606   5.519   8.025
32222W        W33086  20.074   6.103  10.464
32223W        W33087  19.961   4.199   8.395
32224W        W33088  21.111   3.872   8.615
32225W        W33089  20.942   7.202   9.072
32226W        W33090  20.338   6.844   9.325
32227W        W33091  19.759   5.911   9.496
32228W        W33092  21.593   6.685   9.694
32229W        W33093  19.239   4.219   8.320
32230W        W33094  19.866   6.575   9.356
32231W        W33095  19.093   4.337   7.304
32232W        W33096  20.021   4.890   9.716
32233W        W33097  20.719   3.931   9.468
32234W        W33098  18.152   5.673   9.513
32235W        W33099  19.908   5.314   7.602
32236W        W33100  19.177   3.858   7.441
32237W        W33101  20.016   4.943   8.409
32238W        W33102  20.780   3.875   9.996
32239W        W33103  19.493   5.920  10.047
32240W        W33104  20.452   5.812  10.668
32241W        W33105  20.911   5.884  10.471
32242W        W33106  20.198   3.837  10.832
32243W        W33107  19.350   4.541   9.128
32244W        W33108  18.891   4.402   8.714
32245W        W33109  18.753   6.973   8.511
32246W        W33110  20.151   6.631  10.478
32247W        W33111  18.706   6.273   7.790
32248W        W33112  20.837   5.363   9.120
32249W        W33113  20.997   5.067   9.534
32250W        W33114  20.258   5.733   9.545
32251W        W33115  20.884   6.326   7.375
32252W        W33116  20.360   4.111   8.705
32253W        W33117  21.753   4.436   8.082
32254W        W33118  18.455   6.993  10.307
32255W        W33119  18.675   6.178   9.734
32256W        W33120  18.061   7.012   7.959
32257W        W33121  20.149   4.401   9.644
32258W        W33122  19.266   6.540   7.729
32259W        W33123  21.502   6.984   7.781
32260W        W33124  20.213   4.914   7.875
32261W        W33125  19.640   4.576   8.264
32262W        W33126  20.079   4.330   7.407
32263W        W33127  20.578   6.278  10.507
32264W        W33128  21.056   4.015   8.029
32265W        W33129  18.349   3.744   7.595
32266W        W33130  19.724   6.327   9.818
32267W        W33131  19.387   5.919   9.103
32268W        W33132  19.151   6.111   7.444
32269W        W33133  18.555   6.601   8.172
32270W        W33134  18.986   5.220  10.388
32271W        W33135  19.659   3.837  10.736
32272W        W33136  20.288   4.025   9.986
32273W        W33137  19.579   3.836   8.432
32274W        W33138  20.651   3.717   7.846
32275W        W33139  18.635   3.855   9.413
32276W        W33140  18.429   4.662   8.843
32277W        W33141  21.237   3.883   9.262
32278W        W33142  18.767   4.383   8.130
32279W        W33143  21.136   4.121   9.711
32280W        W33144  21.572   5.178   7.497
32281W        W33145  18.989   4.188   9.204
32282W        W33146  20.230   4.569  10.128
32283W        W33147  18.347   4.259   7.553
32284W        W33148  18.951   5.797  10.016
32285W        W33149  20.476   5.149   9.408
32286W        W33150  20.133   7.173   7.611
32287W        W33151  18.404   5.485   7.353
32288W        W33152  19.190   6.225  10.344
32289W        W33153  18.638   5.296  10.017
32290W        W33154  19.791   5.505   9.835
32291W        W33155  21.277   3.822  10.132
32292W        W33156  21.717   5.351  10.124
32293W        W33157  21.510   5.372   8.029
32294W        W33158  20.479   5.709   8.213
32295W        W33159  21.107   7.137   7.420
32296W        W33160  20.318   5.317  10.799
32297W        W33161  18.880   6.240  10.744
32298W        W33162  21.976   4.187  10.800
32299W        W33163  21.377   5.192   9.148
32300W        W33164  19.742   6.931  10.751
32301W        W33165  19.657   3.683   7.590
32302W        W33166  21.366   6.224   7.568
32303W        W33167  19.176   4.601  10.385
32304W        W33168  19.679   6.432  10.309
32305W        W33169  21.542   4.293  10.001
32306W        W33170  21.046   7.135   7.941
32307W        W33171  21.143   5.902   9.454
32308W        W33172  19.318   4.289  10.005
32309W        W33173  19.804   5.212  10.738
32310W        W33174  19.048   6.358   8.178
32311W        W33175  20.978   5.592   8.165
32312W        W33176  18.800   4.333  10.000
32313W        W33177  19.892   6.365   8.539
32314W        W33178  21.844   4.982   8.884
32315W        W33179  19.998   3.784  10.341
32316W        W33180  20.990   6.416   9.476
32317W        W33181  21.278   6.833   9.323
32318W        W33182  20.217   6.712   7.329
32319W        W33183  18.379   6.432  10.617
32320W        W33184  19.106   4.545   9.598
32321W        W33185  19.156   3.956   8.763
32322W        W33186  20.668   4.646   9.380
32323W        W33187  19.497   5.697   7.477
32324W        W33188  21.670   5.835   9.366
32325W        W33189  18.835   6.671  10.447
32326W        W33190  21.334   7.260   8.373
32327W        W33191  19.577   4.279   8.729
32328W        W33192  19.035   5.537   9.173
32329W        W33193  19.470   7.298   9.618
32330W        W33194  21.447   7.358  10.581
32331W        W33195  20.746   5.544   9.610
32332W        W33196  18.506   4.950   7.330
32333W        W33197  21.695   6.882   8.579
32334W        W33198  21.374   4.322   7.725
32335W        W33199  19.515   3.838  10.171
32336W        W33200  21.375   6.570   8.875
32337W        W33201  21.328   4.962   8.668
32338W        W33202  19.635   4.792   8.758
32339W        W33203  19.914   5.127  10.159
32340W        W33204  20.863   6.262  10.079
32341W        W33205  19.646   4.684  10.106
32342W        W33206  19.393   7.083   8.836
32343W        W33207  18.807   7.172  10.657
32344W        W33208  18.845   6.613   7.421
32345W        W33209  21.502   6.331   8.427
32346W        W33210  19.132   4.913   9.981
32347W        W33211  21.660   4.620   7.414
32348W        W33212  19.398   6.048   7.916
32349W        W33213  20.699   5.424  10.468
32350W        W33214  20.522   4.856   9.817
32351W        W33215  19.034   5.327   9.667
32352W        W33216  21.266   7.143   9.743
32353W        W33217  21.012   3.913  10.600
32354W        W33218  18.588   3.905  10.299
32355W        W33219  19.198   5.016   9.307
32356W        W33220  19.497   4.649   7.241
32357W        W33221  18.317   6.522  10.108
32358W        W33222  19.988   5.306   9.405
32359W        W33223  19.591   4.167   7.422
32360W        W33224  19.040   5.392   8.672
32361W        W33225  18.514   7.179   9.833
32362W        W33226  21.117   5.362   7.709
32363W        W33227  21.465   4.166  10.496
32364W        W33228  20.992   6.439   8.552
32365W        W33229  18.500   5.166  10.531
32366W        W33230  21.509   3.847   7.807
32367W        W33231  21.136   6.299   8.054
32368W        W33232  19.713   5.012   7.977
32369W        W33233  21.003   3.988   7.503
32370W        W33234  21.098   4.628   9.803
32371W        W33235  18.600   5.165   8.837
32372W        W33236  18.979   5.925   8.777
32373W        W33237  20.871   4.752   8.495
32374W        W33238  19.848   4.373   9.195
32375W        W33239  21.858   6.215   9.755
32376W        W33240  21.583   4.335   9.484
32377W        W33241  18.362   6.942   8.941
32378W        W33242  18.616   6.100   8.296
32379W        W33243  18.668   3.950  10.823
32380W        W33244  19.799   6.421  10.809
32381W        W33245  21.685   5.549   8.915
32382W        W33246  20.996   5.872   7.701
32383W        W33247  20.389   7.211   9.680
32384W        W33248  21.276   5.896  10.833
32385W        W33249  19.875   3.610   8.048
32386W        W33250  20.613   4.529   8.862
32387W        W33251  18.359   6.096   9.317
32388W        W33252  19.683   4.088   7.961
32389W        W33253  19.687   5.555  10.372
32390W        W33254  20.391   4.540   8.356
32391W        W33255  20.657   6.058   9.669
32392W        W33256  18.771   6.669   9.935
32393W        W33257  19.321   6.609  10.666
32394W        W33258  19.233   4.311   7.800
32395W        W33259  20.750   4.714   7.965
32396W        W33260  20.643   6.712  10.232
32397W        W33261  19.481   5.260   8.929
32398W        W33262  19.069   6.998   9.688
32399W        W33263  21.678   7.036   7.325
32400W        W33264  18.652   5.660  10.418
32401W        W33265  20.678   5.870   9.197
32402W        W33266  19.073   5.831   8.282
32403W        W33267  19.579   6.816   9.759
32404W        W33268  19.926   3.936   8.935
32405W        W33269  18.337   5.907   7.665
32406W        W33270  19.963   4.831   7.402
32407W        W33271  18.600   5.630   8.567
32408W        W33272  19.838   4.222  10.045
32409W        W33273  21.506   3.966   7.317
32410W        W33274  21.634   5.715  10.494
32411W        W33275  20.224   7.105  10.663
32412W        W33276  21.825   6.187  10.277
32413W        W33277  21.244   6.893  10.766
32414W        W33278  19.088   7.303   9.259
32415W        W33279  21.681   5.823   8.473
32416W        W33280  20.502   5.018   8.900
32417W        W33281  20.086   3.703   8.510
32418W        W33282  19.222   6.710   8.523
32419W        W33283  19.624   4.527   9.625
32420W        W33284  19.476   4.013   9.165
32421W        W33285  18.403   6.727   7.687
32422W        W33286  20.160   5.859   8.646
32423W        W33287  19.262   6.732  10.154
32424W        W33288  18.535   5.645   8.055
32425W        W33289  18.511   4.195   9.018
32426W        W33290  20.154   6.040   9.129
32427W        W33291  18.374   4.010   8.043
32428W        W33292  20.822   5.222  10.020
32429W        W33293  20.945   4.507   7.538
32430W        W33294  21.471   6.326   9.335
32431W        W33295  20.168   6.559   8.932
32432W        W33296  19.493   6.978   7.967
32433W        W33297  20.531   3.721   7.345
32434W        W33298  18.642   6.968   9.377
32435W        W33299  20.441   4.625  10.658
32436W        W33300  18.732   4.355  10.512
32437W        W33301  18.450   4.862   8.369
32438W        W33302  19.247   4.810   7.669
32439W        W33303  20.704   4.978  10.914
32440W        W33304  19.493   5.456   9.404
32441W        W33305  20.604   3.672   8.598
32442W        W33306  19.934   7.059   8.897
32443W        W33307  21.073   6.693   9.896
32444W        W33308  20.869   6.674   9.041
32445W        W33309  20.721   5.725   8.704
32446W        W33310  20.155   3.924   7.726
32447W        W33311  21.769   3.725   8.566
32448W        W33312  19.491   5.154   7.352
32449W        W33313  21.597   4.530   8.585
32450W        W33314  20.304   5.634   7.649
32451W        W33315  21.326   6.105  10.321
32452W        W33316  21.116   6.672   7.692
32453W        W33317  19.564   4.278  10.482
32454W        W33318  19.542   5.060   9.733
32455W        W33319  21.494   6.580  10.189
32456W        W33320  20.575   4.240  10.348
32457W        W33321  18.212   4.901  10.163
32458W        W33322  20.308   5.332   9.869
32459W        W33323  18.492   6.072   8.814
32460W        W33324  18.661   5.196   9.344
32461W        W33325  21.042   5.794   9.959
32462W        W33326  20.817   7.135  10.516
32463W        W33327  20.773   4.694  10.218
32464W        W33328  21.087   6.937   8.663
32465W        W33329  20.090   6.752   9.804
32466W        W33330  19.379   6.852   9.292
32467W        W33331  21.327   6.240   9.824
32468W        W33332  20.279   6.228  10.921
32469W        W33333  18.875   6.060   9.259
32470W        W33334  21.164   5.949   8.517
32471W        W33335  20.818   6.948   9.498
32472W        W33336  18.954   6.553   9.452
32473W        W33337  19.952   4.759  10.523
32474W        W33338  19.975   6.804   7.995
32475W        W33339  19.588   6.007  10.592
32476W        W33340  19.555   6.496   8.159
32477W        W33341  18.999   4.852   7.207
32478W        W33342  18.318   7.391  14.340
32479W        W33343  18.645   6.163  13.847
32480W        W33344  21.507   5.877  11.728
32481W        W33345  21.601   7.049  13.653
32482W        W33346  19.294   6.987  11.022
32483W        W33347  19.633   5.113  12.228
32484W        W33348  19.170   4.900  12.550
32485W        W33349  20.215   5.545  11.651
32486W        W33350  19.973   6.791  14.027
32487W        W33351  18.315   4.485  13.931
32488W        W33352  18.949   3.651  13.961
32489W        W33353  20.869   4.022  12.594
32490W        W33354  20.451   4.723  11.339
32491W        W33355  20.976   4.512  14.209
32492W        W33356  18.362   4.133  13.566
32493W        W33357  18.494   6.886  14.476
32494W        W33358  19.852   6.028  11.140
32495W        W33359  18.372   4.911  12.984
32496W        W33360  19.411   5.034  14.132
32497W        W33361  21.554   4.549  12.793
32498W        W33362  21.557   5.819  13.566
32499W        W33363  20.055   5.000  12.611
32500W        W33364  20.518   6.448  12.974
32501W        W33365  18.885   5.719  13.149
32502W        W33366  17.988   5.269  12.960
32503W        W33367  19.515   5.389  13.759
32504W        W33368  21.291   4.949  14.119
32505W        W33369  19.113   6.517  12.675
32506W        W33370  20.101   6.335  13.726
32507W        W33371  19.772   4.737  12.998
32508W        W33372  19.818   5.631  12.726
32509W        W33373  20.777   6.629  14.424
32510W        W33374  19.881   5.711  14.505
32511W        W33375  19.948   5.545  14.002
32512W        W33376  18.214   4.738  14.389
32513W        W33377  21.112   6.349  14.151
32514W        W33378  18.709   3.907  12.198
32515W        W33379  19.190   6.177  13.221
32516W        W33380  21.595   6.109  12.637
32517W        W33381  21.112   4.297  12.942
32518W        W33382  21.340   4.338  11.005
32519W        W33383  21.850   5.095  13.463
32520W        W33384  19.720   6.977  13.111
32521W        W33385  21.709   6.365  11.641
32522W        W33386  18.766   7.348  11.691
32523W        W33387  19.050   7.203  12.151
32524W        W33388  18.893   3.936  13.512
32525W        W33389  21.380   4.950  13.606
32526W        W33390  20.932   5.358  12.198
32527W        W33391  20.987   5.159  11.300
32528W        W33392  20.045   6.396  13.222
32529W        W33393  20.106   4.434  12.690
32530W        W33394  20.499   6.554  13.470
32531W        W33395  21.444   5.465  12.120
32532W        W33396  20.416   3.989  11.867
32533W        W33397  18.880   6.846  11.789
32534W        W33398  18.303   4.244  12.239
32535W        W33399  20.978   4.960  12.686
32536W        W33400  18.567   6.551  12.709
32537W        W33401  19.685   6.724  11.242
32538W        W33402  21.247   4.849  10.935
32539W        W33403  18.379   6.595  13.207
32540W        W33404  19.157   6.258  13.729
32541W        W33405  19.427   5.590  12.401
32542W        W33406  19.328   4.029  13.247
32543W        W33407  21.733   3.748  12.800
32544W        W33408  19.190   5.699  10.476
32545W        W33409  18.624   4.432  11.006
32546W        W33410  18.730   6.506  12.208
32547W        W33411  19.729   6.022  12.380
32548W        W33412  21.247   6.775  13.885
32549W        W33413  20.295   4.491  11.773
32550W        W33414  21.498   7.026  12.762
32551W        W33415  20.798   5.035  14.092
32552W        W33416  21.911   6.531  12.398
32553W        W33417  20.367   5.863  13.828
32554W        W33418  18.133   5.235  12.108
32555W        W33419  19.425   5.760  13.401
32556W        W33420  20.524   4.988  11.793
32557W        W33421  20.449   5.493  12.105
32558W        W33422  18.788   4.945  13.317
32559W        W33423  18.691   4.840  13.942
32560W        W33424  18.670   3.713  12.683
32561W        W33425  20.516   4.175  12.979
32562W        W33426  20.108   4.204  14.153
32563W        W33427  20.544   4.207  11.387
32564W        W33428  21.702   6.824  14.129
32565W        W33429  20.571   3.832  13.938
32566W        W33430  21.576   6.147  14.368
32567W        W33431  21.048   4.140  13.848
32568W        W33432  20.850   4.241  12.116
32569W        W33433  21.202   5.367  14.417
32570W        W33434  18.875   6.943  12.557
32571W        W33435  19.912   4.575  11.410
32572W        W33436  19.231   4.027  14.146
32573W        W33437  21.228   4.567  11.949
32574W        W33438  21.553   4.976  11.830
32575W        W33439  19.542   6.907  14.313
32576W        W33440  19.182   3.501  11.389
32577W        W33441  21.489   4.122  12.531
32578W        W33442  21.794   6.637  11.167
32579W        W33443  18.501   5.693  12.791
32580W        W33444  20.614   4.160  10.854
32581W        W33445  21.708   6.558  12.896
32582W        W33446  21.673   3.720  13.357
32583W        W33447  20.277   5.144  14.234
32584W        W33448  19.896   5.951  11.848
32585W        W33449  20.605   5.753  14.740
32586W        W33450  20.435   3.736  12.689
32587W        W33451  18.824   4.681  12.878
32588W        W33452  18.429   5.755  13.557
32589W        W33453  20.447   6.900  12.706
32590W        W33454  21.282   4.485  13.382
32591W        W33455  20.342   6.981  13.707
32592W        W33456  21.509   5.663  11.247
32593W        W33457  19.927   5.558  12.228
32594W        W33458  21.774   3.715  13.900
32595W        W33459  19.934   5.858  13.546
32596W        W33460  20.359   4.763  12.987
32597W        W33461  21.029   5.021  11.807
32598W        W33462  21.256   4.733  11.452
32599W        W33463  21.452   6.698  11.964
32600W        W33464  21.038   6.185  12.752
32601W        W33465  20.750   5.450  11.681
32602W        W33466  20.315   5.592  12.591
32603W        W33467  21.320   5.358  12.780
32604W        W33468  18.454   4.438  13.159
32605W        W33469  21.355   5.410  13.892
32606W        W33470  21.806   7.011  13.179
32607W        W33471  19.588   6.522  12.506
32608W        W33472  20.861   7.126  13.620
32609W        W33473  20.498   4.537  13.437
32610W        W33474  19.937   7.261  13.506
32611W        W33475  21.387   4.082  12.016
32612W        W33476  21.394   5.394  13.342
32613W        W33477  18.332   4.803  13.506
32614W        W33478  21.141   4.499  12.466
32615W        W33479  21.399   4.523  13.879
32616W        W33480  20.526   6.306  12.488
32617W        W33481  19.709   6.857  12.124
32618W        W33482  18.698   3.956  11.331
32619W        W33483  20.090   3.826  13.084
32620W        W33484  18.832   7.191  11.193
32621W        W33485  19.752   5.363  11.788
32622W        W33486  19.985   6.049  14.128
32623W        W33487  19.985   4.184  12.094
32624W        W33488  21.238   3.713  12.350
32625W        W33489  20.997   7.122  12.774
32626W        W33490  20.212   6.893  13.185
32627W        W33491  19.745   6.005  13.075
32628W        W33492  21.543   6.608  13.405
32629W        W33493  18.993   3.828  11.746
32630W        W33494  19.560   6.487  13.017
32631W        W33495  19.143   4.311  10.841
32632W        W33496  20.079   4.859  13.405
32633W        W33497  20.780   3.723  13.092
32634W        W33498  18.110   5.729  13.140
32635W        W33499  19.960   5.415  11.204
32636W        W33500  19.161   3.763  10.920
32637W        W33501  20.126   5.106  12.088
32638W        W33502  20.692   4.065  13.475
32639W        W33503  19.537   5.907  13.880
32640W        W33504  20.359   5.661  14.294
32641W        W33505  20.873   5.610  14.078
32642W        W33506  20.148   3.897  14.556
32643W        W33507  19.268   4.435  12.783
32644W        W33508  18.838   4.299  12.512
32645W        W33509  18.560   7.044  12.160
32646W        W33510  20.337   6.449  14.170
32647W        W33511  19.603   5.727  11.464
32648W        W33512  20.826   5.478  12.690
32649W        W33513  20.947   5.240  13.129
32650W        W33514  20.166   5.689  13.100
32651W        W33515  20.792   6.063  10.961
32652W        W33516  20.413   4.144  12.376
32653W        W33517  21.683   4.455  11.737
32654W        W33518  18.602   6.965  13.982
32655W        W33519  18.678   6.164  13.344
32656W        W33520  18.290   7.173  11.744
32657W        W33521  20.089   4.354  13.214
32658W        W33522  19.548   6.250  11.516
32659W        W33523  21.723   7.043  11.527
32660W        W33524  20.461   5.245  11.295
32661W        W33525  19.855   4.685  11.977
32662W        W33526  20.176   4.351  11.035
32663W        W33527  20.672   6.075  14.264
32664W        W33528  20.900   3.942  11.701
32665W        W33529  18.283   3.675  11.218
32666W        W33530  19.620   6.265  13.496
32667W        W33531  19.360   6.050  12.750
32668W        W33532  19.365   6.212  11.013
32669W        W33533  18.382   6.659  11.832
32670W        W33534  19.018   5.325  13.945
32671W        W33535  19.681   3.845  14.326
32672W        W33536  20.192   4.036  13.624
32673W        W33537  19.674   3.759  12.121
32674W        W33538  20.403   3.720  11.389
32675W        W33539  18.514   3.791  13.215
32676W        W33540  18.450   4.664  12.517
32677W        W33541  21.242   3.797  12.870
32678W        W33542  18.562   4.183  11.772
32679W        W33543  21.183   3.959  13.348
32680W        W33544  21.517   5.145  11.289
32681W        W33545  18.863   4.138  13.010
32682W        W33546  20.041   4.498  13.747
32683W        W33547  18.230   4.189  11.232
32684W        W33548  18.965   5.772  13.649
32685W        W33549  20.441   5.265  12.957
32686W        W33550  19.985   7.194  11.126
32687W        W33551  18.207   5.403  10.897
32688W        W33552  19.071   5.948  14.124
32689W        W33553  18.562   5.266  13.692
32690W        W33554  21.278   3.679  13.770
32691W        W33555  21.857   5.458  13.836
32692W        W33556  21.776   5.434  11.698
32693W        W33557  20.568   5.916  11.830
32694W        W33558  21.092   7.359  10.935
32695W        W33559  20.219   5.349  14.687
32696W        W33560  18.577   6.073  14.356
32697W        W33561  21.932   4.185  14.447
32698W        W33562  21.387   4.933  13.085
32699W        W33563  19.998   7.017  14.489
32700W        W33564  19.889   3.679  11.210
32701W        W33565  21.399   6.181  11.264
32702W        W33566  19.141   4.567  14.128
32703W        W33567  19.619   6.414  13.982
32704W        W33568  21.567   4.119  13.644
32705W        W33569  21.341   7.369  11.384
32706W        W33570  21.089   5.748  13.058
32707W        W33571  19.224   4.284  13.708
32708W        W33572  19.804   5.200  14.408
32709W        W33573  19.089   6.340  11.814
32710W        W33574  21.059   5.798  11.957
32711W        W33575  18.741   4.485  13.585
32712W        W33576  20.036   6.439  12.253
32713W        W33577  21.660   5.012  12.595
32714W        W33578  20.063   3.704  14.015
32715W        W33579  20.885   6.193  13.245
32716W        W33580  21.190   6.641  12.976
32717W        W33581  20.158   6.724  11.010
32718W        W33582  18.301   6.474  14.189
32719W        W33583  19.125   4.511  13.268
32720W        W33584  19.163   3.891  12.632
32721W        W33585  20.877   4.723  13.140
32722W        W33586  19.511   5.631  10.943
32723W        W33587  21.610   5.750  13.021
32724W        W33588  18.817   6.513  14.179
32725W        W33589  21.495   7.284  11.934
32726W        W33590  19.540   4.174  12.414
32727W        W33591  18.955   5.744  12.542
32728W        W33592  19.388   7.304  13.374
32729W        W33593  21.419   7.253  14.120
32730W        W33594  20.607   5.578  13.355
32731W        W33595  18.356   4.692  10.621
32732W        W33596  21.721   6.997  12.292
32733W        W33597  21.271   4.233  11.522
32734W        W33598  19.467   3.632  13.892
32735W        W33599  21.399   6.574  12.484
32736W        W33600  21.273   4.986  12.267
32737W        W33601  19.667   4.668  12.501
32738W        W33602  19.902   5.044  13.873
32739W        W33603  20.753   6.187  13.758
32740W        W33604  19.575   4.643  13.858
32741W        W33605  19.382   7.025  12.507
32742W        W33606  19.022   6.960  14.344
32743W        W33607  18.869   6.713  10.965
32744W        W33608  21.574   6.206  12.129
32745W        W33609  19.139   4.859  13.685
32746W        W33610  21.701   4.651  11.207
32747W        W33611  19.395   5.873  11.948
32748W        W33612  20.493   5.368  13.837
32749W        W33613  20.549   5.053  13.406
32750W        W33614  19.136   5.322  13.399
32751W        W33615  21.271   7.069  13.252
32752W        W33616  21.058   3.974  14.363
32753W        W33617  18.754   4.145  13.957
32754W        W33618  19.268   4.941  13.059
32755W        W33619  19.510   4.708  10.784
32756W        W33620  18.286   6.659  13.699
32757W        W33621  19.932   5.226  13.070
32758W        W33622  19.685   4.173  11.125
32759W        W33623  18.903   5.260  12.889
32760W        W33624  18.422   7.139  13.497
32761W        W33625  21.266   5.430  11.642
32762W        W33626  21.509   4.094  14.150
32763W        W33627  21.062   6.242  12.247
32764W        W33628  18.495   5.212  14.235
32765W        W33629  21.416   3.734  11.388
32766W        W33630  21.195   6.280  11.744
32767W        W33631  20.070   5.032  11.556
32768W        W33632  20.988   3.991  11.168
32769W        W33633  20.917   4.702  13.706
32770W        W33634  18.479   5.209  12.591
32771W        W33635  19.180   6.183  12.303
32772W        W33636  20.799   4.764  12.183
32773W        W33637  19.697   4.215  12.924
32774W        W33638  21.881   6.205  13.499
32775W        W33639  21.635   4.171  13.127
32776W        W33640  18.266   6.954  12.577
32777W        W33641  18.321   6.161  11.947
32778W        W33642  18.780   3.932  14.424
32779W        W33643  19.862   6.476  14.426
32780W        W33644  21.737   5.570  12.548
32781W        W33645  21.021   5.811  11.390
32782W        W33646  20.436   7.341  13.350
32783W        W33647  21.081   5.880  14.495
32784W        W33648  20.002   3.587  11.736
32785W        W33649  20.659   4.533  12.635
32786W        W33650  18.332   6.153  12.949
32787W        W33651  19.563   3.830  11.589
32788W        W33652  19.440   5.555  14.248
32789W        W33653  20.299   4.653  12.267
32790W        W33654  20.402   6.061  13.358
32791W        W33655  18.797   6.620  13.635
32792W        W33656  19.279   6.492  14.404
32793W        W33657  19.199   4.076  11.318
32794W        W33658  20.807   4.542  11.678
32795W        W33659  20.737   6.679  13.908
32796W        W33660  19.574   5.168  12.725
32797W        W33661  18.923   7.042  13.360
32798W        W33662  21.633   7.115  11.020
32799W        W33663  18.632   5.674  14.036
32800W        W33664  20.607   5.913  12.891
32801W        W33665  18.804   5.968  12.042
32802W        W33666  19.310   6.685  13.434
32803W        W33667  19.966   3.946  12.579
32804W        W33668  18.193   5.972  11.399
32805W        W33669  20.116   4.892  11.006
32806W        W33670  18.505   5.610  12.271
32807W        W33671  19.705   4.089  13.815
32808W        W33672  21.563   3.892  10.915
32809W        W33673  21.635   5.621  14.292
32810W        W33674  20.431   6.963  14.224
32811W        W33675  21.891   5.963  13.963
32812W        W33676  21.275   6.783  14.407
32813W        W33677  18.994   7.330  12.928
32814W        W33678  21.884   5.774  12.098
32815W        W33679  20.530   5.110  12.454
32816W        W33680  20.196   3.664  12.217
32817W        W33681  19.204   6.695  12.177
32818W        W33682  19.623   4.440  13.398
32819W        W33683  19.592   3.712  12.936
32820W        W33684  18.491   6.835  11.359
32821W        W33685  20.237   5.961  12.237
32822W        W33686  19.223   6.728  13.935
32823W        W33687  18.452   5.692  11.763
32824W        W33688  18.408   4.142  12.743
32825W        W33689  20.130   6.074  12.741
32826W        W33690  18.278   3.780  11.897
32827W        W33691  20.954   5.241  13.643
32828W        W33692  20.885   4.524  11.157
32829W        W33693  21.409   6.193  13.131
32830W        W33694  20.041   6.582  12.758
32831W        W33695  19.406   6.734  11.694
32832W        W33696  20.670   3.649  10.930
32833W        W33697  18.592   7.002  12.978
32834W        W33698  20.502   4.691  14.346
32835W        W33699  18.677   4.487  14.330
32836W        W33700  18.072   4.693  12.116
32837W        W33701  19.650   5.004  11.202
32838W        W33702  20.696   5.320  14.492
32839W        W33703  19.332   5.569  12.933
32840W        W33704  20.726   3.715  12.203
32841W        W33705  19.880   7.044  12.622
32842W        W33706  21.010   6.649  13.458
32843W        W33707  20.891   6.661  12.560
32844W        W33708  20.729   5.850  12.359
32845W        W33709  20.040   4.082  11.520
32846W        W33710  21.764   3.748  12.289
32847W        W33711  19.273   5.178  10.837
32848W        W33712  21.605   4.595  12.280
32849W        W33713  20.343   5.759  11.173
32850W        W33714  21.304   5.903  14.009
32851W        W33715  21.351   6.694  11.433
32852W        W33716  19.614   4.347  14.258
32853W        W33717  19.587   4.969  13.453
32854W        W33718  21.599   6.383  13.908
32855W        W33719  20.554   4.356  13.910
32856W        W33720  18.145   4.985  13.934
32857W        W33721  20.106   5.372  13.521
32858W        W33722  18.516   6.091  12.452
32859W        W33723  18.489   5.368  13.189
32860W        W33724  21.035   5.751  13.583
32861W        W33725  20.931   7.092  14.148
32862W        W33726  20.394   4.845  13.844
32863W        W33727  21.207   7.028  12.310
32864W        W33728  19.825   6.743  13.548
32865W        W33729  19.245   6.905  12.976
32866W        W33730  21.239   6.226  13.613
32867W        W33731  20.247   6.109  14.571
32868W        W33732  18.838   6.130  12.849
32869W        W33733  21.227   5.773  12.480
32870W        W33734  20.721   6.927  13.151
32871W        W33735  18.883   6.582  13.125
32872W        W33736  19.981   4.710  14.257
32873W        W33737  19.912   6.584  11.709
32874W        W33738  19.528   6.061  14.375
32875W        W33739  19.574   6.356  12.019
32876W        W33740  18.871   4.822  10.730
32877W        W33741  18.232   7.353  18.103
32878W        W33742  18.699   6.323  17.418
32879W        W33743  21.467   6.045  15.204
32880W        W33744  21.689   6.968  17.259
32881W        W33745  19.321   6.877  14.782
32882W        W33746  19.515   5.054  15.613
32883W        W33747  19.119   4.828  16.036
32884W        W33748  19.879   5.601  15.381
32885W        W33749  19.793   6.931  17.582
32886W        W33750  18.271   4.300  17.582
32887W        W33751  18.926   3.533  17.396
32888W        W33752  20.790   4.012  16.225
32889W        W33753  20.563   4.964  14.848
32890W        W33754  20.893   4.490  17.822
32891W        W33755  18.401   4.034  17.152
32892W        W33756  18.501   6.923  18.185
32893W        W33757  19.793   6.152  14.829
32894W        W33758  18.380   4.740  16.643
32895W        W33759  19.418   4.858  17.790
32896W        W33760  21.596   4.529  16.410
32897W        W33761  21.480   5.794  17.199
32898W        W33762  19.987   5.060  16.227
32899W        W33763  20.435   6.401  16.452
32900W        W33764  18.861   5.665  16.809
32901W        W33765  18.187   5.204  16.463
32902W        W33766  19.542   5.177  17.409
32903W        W33767  21.578   5.022  17.771
32904W        W33768  19.156   6.602  16.263
32905W        W33769  20.229   6.250  17.216
32906W        W33770  19.745   4.737  16.526
32907W        W33771  19.847   5.588  16.198
32908W        W33772  20.535   6.562  17.945
32909W        W33773  19.968   5.657  17.993
32910W        W33774  19.953   5.476  17.497
32911W        W33775  17.994   4.590  17.923
32912W        W33776  20.968   6.529  17.659
32913W        W33777  18.698   3.901  15.734
32914W        W33778  19.493   6.313  16.568
32915W        W33779  21.762   6.165  16.231
32916W        W33780  21.207   4.167  16.455
32917W        W33781  21.248   4.382  14.637
32918W        W33782  21.755   5.198  17.055
32919W        W33783  19.958   7.031  16.787
32920W        W33784  21.540   6.557  15.096
32921W        W33785  18.701   7.045  15.310
32922W        W33786  19.100   7.085  15.640
32923W        W33787  18.893   3.893  17.008
32924W        W33788  21.412   4.842  17.185
32925W        W33789  20.741   5.264  15.824
32926W        W33790  20.958   5.372  14.934
32927W        W33791  20.186   6.064  16.737
32928W        W33792  20.074   4.466  16.056
32929W        W33793  20.438   6.631  16.921
32930W        W33794  21.159   5.564  15.867
32931W        W33795  20.487   3.999  15.412
32932W        W33796  19.109   6.739  15.228
32933W        W33797  18.320   4.237  15.819
32934W        W33798  20.844   4.953  16.215
32935W        W33799  18.672   6.505  16.404
32936W        W33800  19.799   6.709  14.880
32937W        W33801  21.013   4.901  14.563
32938W        W33802  18.513   6.579  16.910
32939W        W33803  19.199   6.380  17.202
32940W        W33804  19.546   5.593  15.777
32941W        W33805  19.340   4.020  16.759
32942W        W33806  21.879   3.698  16.419
32943W        W33807  18.946   5.545  14.436
32944W        W33808  18.404   4.231  14.675
32945W        W33809  18.842   6.615  15.684
32946W        W33810  19.563   6.109  15.708
32947W        W33811  21.228   6.965  17.504
32948W        W33812  20.377   4.551  15.106
32949W        W33813  21.358   7.210  16.205
32950W        W33814  21.079   4.895  17.556
32951W        W33815  21.881   6.617  15.989
32952W        W33816  20.492   5.804  17.218
32953W        W33817  18.210   5.450  15.537
32954W        W33818  19.289   5.951  16.900
32955W        W33819  20.484   4.988  15.431
32956W        W33820  20.352   5.538  15.582
32957W        W33821  18.736   4.812  17.027
32958W        W33822  18.744   4.799  17.562
32959W        W33823  18.646   3.716  16.209
32960W        W33824  20.326   4.135  16.425
32961W        W33825  20.100   4.200  17.827
32962W        W33826  20.515   4.072  14.900
32963W        W33827  21.680   6.844  17.769
32964W        W33828  20.574   3.719  17.609
32965W        W33829  21.376   6.282  17.880
32966W        W33830  21.066   4.278  17.376
32967W        W33831  20.881   4.224  15.760
32968W        W33832  21.165   5.286  17.883
32969W        W33833  18.824   6.956  16.079
32970W        W33834  19.867   4.536  15.152
32971W        W33835  19.090   3.959  17.658
32972W        W33836  21.231   4.571  15.536
32973W        W33837  21.505   4.983  15.387
32974W        W33838  19.342   7.005  17.849
32975W        W33839  19.255   3.680  15.116
32976W        W33840  21.596   4.073  16.148
32977W        W33841  21.709   6.598  14.599
32978W        W33842  18.530   5.617  16.399
32979W        W33843  20.578   4.162  14.382
32980W        W33844  21.705   6.625  16.474
32981W        W33845  21.679   3.695  16.941
32982W        W33846  20.286   5.182  17.837
32983W        W33847  20.020   6.098  15.335
32984W        W33848  20.721   5.474  18.035
32985W        W33849  20.399   3.672  16.207
32986W        W33850  18.842   4.653  16.441
32987W        W33851  18.640   5.819  17.256
32988W        W33852  20.460   6.983  16.000
32989W        W33853  21.302   4.441  16.869
32990W        W33854  20.251   7.099  17.315
32991W        W33855  21.415   5.648  14.812
32992W        W33856  19.956   5.262  15.764
32993W        W33857  21.717   3.682  17.453
32994W        W33858  19.998   5.760  17.088
32995W        W33859  20.271   4.637  16.522
32996W        W33860  20.999   5.084  15.388
32997W        W33861  21.123   4.724  15.040
32998W        W33862  21.226   6.847  15.386
32999W        W33863  20.848   6.160  16.258
33000W        W33864  20.842   5.568  15.424
33001W        W33865  20.323   5.433  16.081
33002W        W33866  21.240   5.293  16.331
33003W        W33867  18.655   4.329  16.808
33004W        W33868  21.362   5.324  17.397
33005W        W33869  21.671   7.071  16.736
33006W        W33870  19.610   6.470  16.091
33007W        W33871  20.774   7.118  17.279
33008W        W33872  20.513   4.419  17.042
33009W        W33873  19.824   7.335  17.172
33010W        W33874  21.452   4.118  15.644
33011W        W33875  21.311   5.409  16.866
33012W        W33876  18.313   4.538  17.117
33013W        W33877  21.136   4.533  16.100
33014W        W33878  21.452   4.543  17.638
33015W        W33879  20.430   6.280  15.948
33016W        W33880  19.834   6.911  15.787
33017W        W33881  18.896   4.024  14.918
33018W        W33882  20.019   3.747  16.603
33019W        W33883  18.837   7.110  14.803
33020W        W33884  19.381   5.455  15.280
33021W        W33885  20.000   5.992  17.583
33022W        W33886  19.965   4.180  15.609
33023W        W33887  21.197   3.804  15.990
33024W        W33888  20.846   7.232  16.318
33025W        W33889  20.373   6.933  16.499
33026W        W33890  19.723   5.831  16.640
33027W        W33891  21.473   6.631  16.928
33028W        W33892  19.167   4.112  15.567
33029W        W33893  19.978   6.532  16.662
33030W        W33894  19.193   4.295  14.577
33031W        W33895  20.030   4.720  16.969
33032W        W33896  20.676   3.760  16.666
33033W        W33897  18.352   5.570  16.899
33034W        W33898  19.760   5.402  14.906
33035W        W33899  19.236   3.754  14.598
33036W        W33900  19.978   4.761  15.621
33037W        W33901  20.724   3.931  17.158
33038W        W33902  19.554   5.905  17.339
33039W        W33903  20.391   5.672  17.700
33040W        W33904  20.885   5.589  17.549
33041W        W33905  20.158   3.878  18.220
33042W        W33906  19.329   4.443  16.382
33043W        W33907  18.848   4.345  16.000
33044W        W33908  18.442   6.945  15.728
33045W        W33909  20.099   6.506  17.675
33046W        W33910  19.036   5.882  15.093
33047W        W33911  20.765   5.503  16.330
33048W        W33912  20.917   5.089  16.697
33049W        W33913  20.160   5.552  16.602
33050W        W33914  20.722   6.254  14.779
33051W        W33915  20.395   4.083  15.908
33052W        W33916  21.737   4.494  15.391
33053W        W33917  18.488   7.157  17.597
33054W        W33918  18.817   6.175  16.930
33055W        W33919  18.077   6.890  15.325
33056W        W33920  20.082   4.192  16.887
33057W        W33921  19.329   6.362  14.915
33058W        W33922  21.461   7.048  14.954
33059W        W33923  20.473   5.404  15.113
33060W        W33924  19.529   4.509  15.547
33061W        W33925  20.190   4.404  14.648
33062W        W33926  20.545   6.160  17.624
33063W        W33927  21.054   3.886  15.414
33064W        W33928  18.422   3.763  14.867
33065W        W33929  19.761   6.209  16.998
33066W        W33930  19.472   5.947  16.195
33067W        W33931  19.031   6.079  14.610
33068W        W33932  18.365   6.496  15.474
33069W        W33933  19.067   5.203  17.639
33070W        W33934  19.530   3.702  17.687
33071W        W33935  20.228   3.927  17.299
33072W        W33936  19.594   3.795  15.721
33073W        W33937  20.723   3.633  15.106
33074W        W33938  18.487   3.840  16.686
33075W        W33939  18.439   4.680  16.117
33076W        W33940  21.367   3.668  16.490
33077W        W33941  18.480   4.169  15.237
33078W        W33942  21.171   3.915  16.900
33079W        W33943  21.400   5.124  14.864
33080W        W33944  18.933   4.108  16.459
33081W        W33945  20.114   4.442  17.383
33082W        W33946  18.021   4.071  14.987
33083W        W33947  19.128   5.593  17.290
33084W        W33948  20.434   5.122  16.479
33085W        W33949  20.239   7.111  14.927
33086W        W33950  18.389   5.618  14.528
33087W        W33951  19.098   6.024  17.557
33088W        W33952  18.696   5.285  17.263
33089W        W33953  19.556   5.501  17.013
33090W        W33954  21.170   3.748  17.393
33091W        W33955  21.820   5.540  17.487
33092W        W33956  21.571   5.842  15.683
33093W        W33957  20.529   5.934  15.245
33094W        W33958  21.156   7.246  14.584
33095W        W33959  20.309   5.378  18.327
33096W        W33960  18.822   6.267  17.937
33097W        W33961  21.805   4.200  18.055
33098W        W33962  21.404   4.931  16.678
33099W        W33963  19.817   7.081  18.091
33100W        W33964  19.707   3.739  14.833
33101W        W33965  21.234   6.336  14.708
33102W        W33966  19.149   4.474  17.637
33103W        W33967  19.646   6.434  17.447
33104W        W33968  21.531   4.115  17.206
33105W        W33969  20.998   7.267  15.085
33106W        W33970  21.133   5.796  16.540
33107W        W33971  19.263   4.225  17.226
33108W        W33972  19.783   5.187  17.880
33109W        W33973  19.158   6.267  15.413
33110W        W33974  21.083   5.994  15.555
33111W        W33975  18.770   4.344  17.312
33112W        W33976  19.974   6.416  15.730
33113W        W33977  21.656   5.000  16.212
33114W        W33978  20.046   3.714  17.725
33115W        W33979  20.883   6.462  16.700
33116W        W33980  21.225   6.843  16.541
33117W        W33981  20.305   6.632  14.664
33118W        W33982  18.313   6.454  17.854
33119W        W33983  19.134   4.545  16.849
33120W        W33984  19.126   3.895  16.035
33121W        W33985  20.839   4.566  16.595
33122W        W33986  19.408   5.741  14.754
33123W        W33987  21.607   5.910  16.682
33124W        W33988  18.746   6.748  17.742
33125W        W33989  21.271   7.334  15.547
33126W        W33990  19.563   4.226  15.982
33127W        W33991  19.016   5.712  16.134
33128W        W33992  19.447   7.156  16.878
33129W        W33993  21.402   7.314  17.823
33130W        W33994  20.594   5.461  16.850
33131W        W33995  18.016   5.101  14.833
33132W        W33996  21.549   6.947  15.781
33133W        W33997  21.358   4.267  15.138
33134W        W33998  19.357   3.727  17.198
33135W        W33999  21.338   6.616  16.093
33136W        W34000  21.240   5.013  15.866
33137W        W34001  19.631   4.736  16.020
33138W        W34002  20.030   4.960  17.434
33139W        W34003  20.733   6.247  17.147
33140W        W34004  19.624   4.606  17.378
33141W        W34005  19.406   7.014  16.051
33142W        W34006  18.879   7.237  17.965
33143W        W34007  18.879   6.592  14.718
33144W        W34008  21.459   6.410  15.615
33145W        W34009  19.175   4.832  17.284
33146W        W34010  21.627   4.648  14.873
33147W        W34011  19.529   5.948  15.222
33148W        W34012  20.430   5.298  17.347
33149W        W34013  20.487   4.950  16.964
33150W        W34014  19.117   5.215  16.945
33151W        W34015  21.236   7.111  17.008
33152W        W34016  20.975   3.954  17.843
33153W        W34017  18.593   3.873  17.599
33154W        W34018  19.269   4.958  16.525
33155W        W34019  19.546   4.742  14.582
33156W        W34020  18.353   6.699  17.401
33157W        W34021  19.716   5.267  16.595
33158W        W34022  19.708   4.239  14.744
33159W        W34023  19.078   5.312  15.808
33160W        W34024  18.462   7.088  17.082
33161W        W34025  21.336   5.510  15.330
33162W        W34026  21.471   4.039  17.707
33163W        W34027  20.946   6.446  15.795
33164W        W34028  18.470   5.205  17.771
33165W        W34029  21.455   3.771  15.107
33166W        W34030  21.055   6.380  15.212
33167W        W34031  20.033   5.122  15.243
33168W        W34032  21.016   3.995  14.882
33169W        W34033  20.927   4.711  17.094
33170W        W34034  18.658   5.156  16.159
33171W        W34035  19.099   6.212  15.938
33172W        W34036  20.816   4.750  15.743
33173W        W34037  19.812   4.236  16.451
33174W        W34038  21.752   6.223  17.083
33175W        W34039  21.702   4.119  16.678
33176W        W34040  18.309   6.953  16.229
33177W        W34041  18.701   6.116  15.614
33178W        W34042  18.731   3.918  18.134
33179W        W34043  19.659   6.591  17.971
33180W        W34044  21.532   5.697  16.209
33181W        W34045  21.008   5.885  15.033
33182W        W34046  20.405   7.325  16.872
33183W        W34047  20.922   5.951  17.927
33184W        W34048  19.852   3.612  15.315
33185W        W34049  20.601   4.492  16.135
33186W        W34050  18.406   6.073  16.635
33187W        W34051  19.580   4.063  15.256
33188W        W34052  19.478   5.584  17.723
33189W        W34053  20.409   4.485  15.611
33190W        W34054  20.682   5.969  16.715
33191W        W34055  18.851   6.790  17.238
33192W        W34056  19.210   6.518  17.708
33193W        W34057  19.353   4.477  15.041
33194W        W34058  20.837   4.346  15.253
33195W        W34059  20.527   6.669  17.428
33196W        W34060  19.484   5.222  16.130
33197W        W34061  18.948   7.233  16.963
33198W        W34062  21.714   7.131  14.528
33199W        W34063  18.782   5.624  17.702
33200W        W34064  20.395   5.891  16.290
33201W        W34065  19.108   5.795  15.612
33202W        W34066  19.542   6.661  16.947
33203W        W34067  19.958   3.899  16.084
33204W        W34068  18.324   6.049  15.220
33205W        W34069  20.023   4.880  14.774
33206W        W34070  18.602   5.598  15.865
33207W        W34071  19.744   4.066  17.295
33208W        W34072  21.525   3.926  14.638
33209W        W34073  21.369   5.740  17.723
33210W        W34074  20.263   6.990  17.829
33211W        W34075  21.757   6.080  17.577
33212W        W34076  21.224   6.832  18.010
33213W        W34077  19.123   7.071  16.483
33214W        W34078  21.999   5.739  16.002
33215W        W34079  20.371   4.916  15.942
33216W        W34080  20.197   3.657  15.697
33217W        W34081  19.362   6.644  15.694
33218W        W34082  19.623   4.415  16.904
33219W        W34083  19.532   3.822  16.335
33220W        W34084  18.445   6.756  14.983
33221W        W34085  20.046   5.885  15.827
33222W        W34086  19.336   6.897  17.343
33223W        W34087  18.645   5.665  15.356
33224W        W34088  18.445   4.213  16.326
33225W        W34089  19.955   6.150  16.279
33226W        W34090  18.230   3.742  15.368
33227W        W34091  20.911   5.220  17.187
33228W        W34092  20.759   4.486  14.745
33229W        W34093  21.315   6.294  16.488
33230W        W34094  20.084   6.654  16.172
33231W        W34095  19.570   6.983  15.334
33232W        W34096  20.656   3.692  14.589
33233W        W34097  18.638   6.986  16.611
33234W        W34098  20.376   4.636  17.936
33235W        W34099  18.713   4.325  17.827
33236W        W34100  18.367   4.723  15.611
33237W        W34101  19.565   4.958  15.080
33238W        W34102  20.742   4.977  17.918
33239W        W34103  19.292   5.546  16.540
33240W        W34104  20.728   3.698  15.792
33241W        W34105  19.942   7.143  16.263
33242W        W34106  21.008   6.666  17.155
33243W        W34107  20.817   6.698  16.250
33244W        W34108  20.695   5.807  15.879
33245W        W34109  20.058   4.057  15.093
33246W        W34110  21.905   3.723  15.909
33247W        W34111  19.341   5.226  14.644
33248W        W34112  21.605   4.589  15.893
33249W        W34113  20.127   5.770  14.957
33250W        W34114  21.104   6.079  17.457
33251W        W34115  21.026   6.783  14.869
33252W        W34116  19.579   4.231  17.754
33253W        W34117  19.563   4.938  16.963
33254W        W34118  21.451   6.497  17.420
33255W        W34119  20.555   4.238  17.554
33256W        W34120  18.240   4.823  17.511
33257W        W34121  20.032   5.245  17.006
33258W        W34122  18.608   6.058  16.129
33259W        W34123  18.671   5.188  16.680
33260W        W34124  20.981   5.742  17.067
33261W        W34125  20.791   7.014  17.786
33262W        W34126  20.546   4.777  17.462
33263W        W34127  21.018   6.998  15.870
33264W        W34128  19.994   6.690  17.174
33265W        W34129  19.593   6.827  16.475
33266W        W34130  21.228   6.185  16.974
33267W        W34131  20.000   6.174  18.071
33268W        W34132  19.024   6.111  16.463
33269W        W34133  21.286   6.101  16.013
33270W        W34134  20.794   6.978  16.779
33271W        W34135  19.040   6.636  16.770
33272W        W34136  19.886   4.662  17.819
33273W        W34137  20.056   6.775  15.329
33274W        W34138  19.548   6.096  17.819
33275W        W34139  19.642   6.456  15.311
33276W        W34140  18.953   4.997  14.363
33277W        W34141  18.215   7.415  21.638
33278W        W34142  18.756   6.226  21.241
33279W        W34143  21.393   5.853  19.351
33280W        W34144  21.731   7.018  20.975
33281W        W34145  19.354   7.100  18.350
33282W        W34146  19.527   4.953  19.604
33283W        W34147  19.142   4.767  19.956
33284W        W34148  19.871   5.581  19.127
33285W        W34149  19.791   6.935  21.332
33286W        W34150  18.302   4.416  21.335
33287W        W34151  18.897   3.814  21.007
33288W        W34152  20.771   4.050  19.952
33289W        W34153  20.472   4.799  18.462
33290W        W34154  20.838   4.666  21.639
33291W        W34155  18.419   4.039  20.880
33292W        W34156  18.504   7.012  21.759
33293W        W34157  19.736   6.370  18.474
33294W        W34158  18.201   4.738  20.385
33295W        W34159  19.297   4.929  21.584
33296W        W34160  21.414   4.680  20.022
33297W        W34161  21.459   5.756  20.845
33298W        W34162  19.896   5.067  19.998
33299W        W34163  20.487   6.362  20.159
33300W        W34164  18.800   5.757  20.518
33301W        W34165  18.097   5.273  20.251
33302W        W34166  19.382   5.257  21.214
33303W        W34167  21.592   5.161  21.531
33304W        W34168  19.085   6.485  20.014
33305W        W34169  20.227   6.288  20.948
33306W        W34170  19.538   4.830  20.285
33307W        W34171  19.791   5.590  20.000
33308W        W34172  20.585   6.497  21.737
33309W        W34173  19.946   5.685  21.734
33310W        W34174  19.896   5.513  21.235
33311W        W34175  18.191   4.743  21.728
33312W        W34176  21.013   6.408  21.456
33313W        W34177  18.551   3.776  19.373
33314W        W34178  19.307   6.409  20.504
33315W        W34179  21.791   6.150  20.071
33316W        W34180  21.013   4.419  20.262
33317W        W34181  21.284   4.298  18.097
33318W        W34182  22.035   5.113  20.684
33319W        W34183  19.822   7.075  20.487
33320W        W34184  21.816   6.882  18.644
33321W        W34185  18.777   7.186  19.014
33322W        W34186  19.146   7.178  19.389
33323W        W34187  19.068   3.961  20.542
33324W        W34188  21.543   5.240  20.812
33325W        W34189  20.761   5.178  19.564
33326W        W34190  20.908   5.104  18.372
33327W        W34191  20.073   6.189  20.418
33328W        W34192  19.980   4.256  19.718
33329W        W34193  20.526   6.659  20.770
33330W        W34194  21.242   5.403  19.572
33331W        W34195  20.399   3.995  19.071
33332W        W34196  18.902   6.696  19.125
33333W        W34197  18.231   4.150  19.511
33334W        W34198  20.842   4.801  19.965
33335W        W34199  18.594   6.658  20.029
33336W        W34200  19.754   6.883  18.581
33337W        W34201  21.214   4.801  18.059
33338W        W34202  18.396   6.626  20.493
33339W        W34203  19.226   6.411  21.027
33340W        W34204  19.328   5.743  19.851
33341W        W34205  19.596   4.015  20.645
33342W        W34206  21.787   3.862  20.193
33343W        W34207  19.139   5.827  18.032
33344W        W34208  18.713   4.393  18.340
33345W        W34209  18.731   6.493  19.583
33346W        W34210  19.322   6.209  19.632
33347W        W34211  21.273   6.971  21.221
33348W        W34212  20.145   4.598  18.840
33349W        W34213  21.451   7.169  19.899
33350W        W34214  21.142   4.980  21.369
33351W        W34215  21.939   6.522  19.730
33352W        W34216  20.460   5.814  21.030
33353W        W34217  18.073   5.041  19.452
33354W        W34218  19.261   5.941  20.746
33355W        W34219  20.361   4.955  19.235
33356W        W34220  20.380   5.466  19.362
33357W        W34221  18.624   4.864  20.710
33358W        W34222  18.659   4.818  21.468
33359W        W34223  18.529   3.781  19.874
33360W        W34224  20.311   4.123  20.210
33361W        W34225  20.052   4.259  21.498
33362W        W34226  20.477   4.275  18.596
33363W        W34227  21.717   6.859  21.489
33364W        W34228  20.440   3.924  21.499
33365W        W34229  21.468   6.246  21.641
33366W        W34230  21.058   4.419  21.219
33367W        W34231  20.783   4.150  19.412
33368W        W34232  21.169   5.396  21.706
33369W        W34233  18.952   7.009  19.893
33370W        W34234  19.698   4.354  18.664
33371W        W34235  19.100   3.935  21.479
33372W        W34236  21.139   4.491  19.206
33373W        W34237  21.515   5.027  19.232
33374W        W34238  19.426   7.044  21.775
33375W        W34239  19.122   3.626  18.793
33376W        W34240  21.545   4.201  19.894
33377W        W34241  21.631   6.604  18.234
33378W        W34242  18.383   5.727  20.170
33379W        W34243  20.557   4.189  18.088
33380W        W34244  21.779   6.628  20.232
33381W        W34245  21.550   3.852  20.649
33382W        W34246  20.229   5.080  21.330
33383W        W34247  19.802   6.134  18.985
33384W        W34248  20.710   5.558  21.883
33385W        W34249  20.426   3.646  20.067
33386W        W34250  18.669   4.793  20.181
33387W        W34251  18.620   5.797  20.995
33388W        W34252  20.455   6.869  19.884
33389W        W34253  21.343   4.891  20.484
33390W        W34254  20.280   7.063  21.168
33391W        W34255  21.188   5.614  18.264
33392W        W34256  19.947   5.266  19.539
33393W        W34257  21.709   3.763  21.147
33394W        W34258  19.992   5.840  20.832
33395W        W34259  20.046   4.596  20.127
33396W        W34260  21.001   4.991  19.143
33397W        W34261  21.188   4.795  18.699
33398W        W34262  21.471   6.821  19.041
33399W        W34263  20.931   6.162  20.003
33400W        W34264  20.643   5.145  18.819
33401W        W34265  20.276   5.477  19.882
33402W        W34266  21.138   5.668  20.017
33403W        W34267  18.614   4.375  20.498
33404W        W34268  21.290   5.445  21.206
33405W        W34269  21.757   7.117  20.415
33406W        W34270  19.556   6.659  19.907
33407W        W34271  20.785   7.106  20.997
33408W        W34272  20.534   4.380  20.799
33409W        W34273  19.853   7.287  20.944
33410W        W34274  21.487   4.109  19.358
33411W        W34275  21.163   5.437  20.492
33412W        W34276  18.251   4.533  20.842
33413W        W34277  21.097   4.394  19.732
33414W        W34278  21.389   4.761  20.979
33415W        W34279  20.134   5.985  19.947
33416W        W34280  19.655   6.937  19.466
33417W        W34281  18.758   3.967  18.656
33418W        W34282  19.904   3.668  20.367
33419W        W34283  18.870   7.156  18.495
33420W        W34284  19.466   5.445  19.470
33421W        W34285  20.070   6.005  21.336
33422W        W34286  19.910   3.897  19.353
33423W        W34287  21.187   3.869  19.705
33424W        W34288  20.930   7.195  20.033
33425W        W34289  20.246   6.785  20.353
33426W        W34290  19.668   5.858  20.434
33427W        W34291  21.528   6.651  20.689
33428W        W34292  19.006   3.967  19.156
33429W        W34293  19.764   6.589  20.371
33430W        W34294  19.162   4.238  18.089
33431W        W34295  19.967   4.853  20.583
33432W        W34296  20.767   3.870  20.438
33433W        W34297  18.286   5.605  20.659
33434W        W34298  19.787   5.362  18.385
33435W        W34299  19.253   3.725  18.155
33436W        W34300  20.000   4.743  19.590
33437W        W34301  20.743   3.989  21.078
33438W        W34302  19.588   5.941  21.148
33439W        W34303  20.361   5.578  21.467
33440W        W34304  20.853   5.643  21.385
33441W        W34305  20.047   3.868  21.857
33442W        W34306  19.318   4.333  20.277
33443W        W34307  18.722   4.231  19.594
33444W        W34308  18.619   6.998  19.493
33445W        W34309  20.172   6.547  21.425
33446W        W34310  19.349   6.116  18.713
33447W        W34311  20.732   5.333  20.049
33448W        W34312  20.835   5.026  20.427
33449W        W34313  20.155   5.661  20.373
33450W        W34314  20.442   5.896  18.156
33451W        W34315  20.362   3.958  19.635
33452W        W34316  21.596   4.509  18.980
33453W        W34317  18.565   7.108  21.220
33454W        W34318  18.845   6.229  20.740
33455W        W34319  18.272   7.099  19.113
33456W        W34320  20.047   4.327  20.614
33457W        W34321  19.289   6.633  18.610
33458W        W34322  21.271   6.916  18.547
33459W        W34323  20.137   5.110  18.738
33460W        W34324  19.813   4.398  19.208
33461W        W34325  20.070   4.409  18.305
33462W        W34326  20.579   6.065  21.477
33463W        W34327  20.888   4.134  18.890
33464W        W34328  18.312   3.725  18.487
33465W        W34329  19.712   6.272  20.772
33466W        W34330  19.167   6.012  20.237
33467W        W34331  19.284   6.307  18.203
33468W        W34332  18.370   6.607  19.223
33469W        W34333  18.916   5.288  21.448
33470W        W34334  19.557   3.812  21.681
33471W        W34335  20.221   4.042  21.027
33472W        W34336  19.407   3.651  19.341
33473W        W34337  20.546   3.767  18.614
33474W        W34338  18.547   3.871  20.408
33475W        W34339  18.236   4.761  19.875
33476W        W34340  21.244   3.950  20.228
33477W        W34341  18.543   4.196  19.086
33478W        W34342  21.089   4.149  20.705
33479W        W34343  21.431   5.151  18.349
33480W        W34344  18.868   4.141  20.086
33481W        W34345  20.134   4.611  21.067
33482W        W34346  18.306   4.215  18.626
33483W        W34347  19.104   5.708  21.179
33484W        W34348  20.305   5.153  20.312
33485W        W34349  20.190   7.153  18.451
33486W        W34350  18.144   5.089  18.244
33487W        W34351  19.218   6.124  21.454
33488W        W34352  18.571   5.277  21.021
33489W        W34353  19.563   5.530  20.835
33490W        W34354  21.211   3.778  21.041
33491W        W34355  21.824   5.507  21.161
33492W        W34356  21.579   5.559  18.964
33493W        W34357  20.335   5.568  18.855
33494W        W34358  21.061   7.281  18.201
33495W        W34359  20.260   5.251  21.834
33496W        W34360  18.840   6.279  21.756
33497W        W34361  21.854   4.244  21.696
33498W        W34362  21.211   5.159  20.054
33499W        W34363  19.929   7.103  21.814
33500W        W34364  19.586   3.668  18.570
33501W        W34365  20.974   6.414  18.179
33502W        W34366  19.038   4.469  21.437
33503W        W34367  19.709   6.434  21.245
33504W        W34368  21.509   4.264  20.957
33505W        W34369  21.089   7.440  18.689
33506W        W34370  21.009   5.924  20.443
33507W        W34371  19.223   4.237  20.986
33508W        W34372  19.763   5.208  21.633
33509W        W34373  18.955   6.169  19.266
33510W        W34374  20.868   5.496  19.164
33511W        W34375  18.732   4.441  21.024
33512W        W34376  19.770   6.407  19.499
33513W        W34377  21.631   5.089  19.772
33514W        W34378  19.953   3.754  21.366
33515W        W34379  20.885   6.430  20.471
33516W        W34380  21.298   6.875  20.292
33517W        W34381  20.106   6.672  18.221
33518W        W34382  18.335   6.511  21.337
33519W        W34383  19.072   4.616  20.642
33520W        W34384  19.005   3.804  19.656
33521W        W34385  20.518   4.616  20.332
33522W        W34386  19.590   5.879  18.284
33523W        W34387  21.510   5.821  20.345
33524W        W34388  18.801   6.703  21.437
33525W        W34389  21.434   7.286  19.236
33526W        W34390  19.502   4.010  19.730
33527W        W34391  18.877   5.574  20.044
33528W        W34392  19.387   7.289  20.735
33529W        W34393  21.431   7.290  21.582
33530W        W34394  20.621   5.497  20.558
33531W        W34395  18.463   4.734  18.007
33532W        W34396  21.676   6.905  19.507
33533W        W34397  21.297   4.300  18.612
33534W        W34398  19.469   3.809  21.144
33535W        W34399  21.434   6.608  19.863
33536W        W34400  21.185   4.890  19.605
33537W        W34401  19.590   4.525  19.876
33538W        W34402  19.812   5.026  21.053
33539W        W34403  20.773   6.234  21.013
33540W        W34404  19.446   4.677  21.161
33541W        W34405  19.450   7.158  19.882
33542W        W34406  18.964   7.191  21.569
33543W        W34407  19.012   6.751  18.174
33544W        W34408  21.552   6.402  19.400
33545W        W34409  18.994   4.914  21.081
33546W        W34410  21.616   4.622  18.332
33547W        W34411  19.399   5.899  19.215
33548W        W34412  20.594   5.325  21.054
33549W        W34413  20.446   4.918  20.750
33550W        W34414  19.023   5.368  20.805
33551W        W34415  21.240   7.149  20.727
33552W        W34416  20.949   4.030  21.584
33553W        W34417  18.600   4.008  21.377
33554W        W34418  19.063   5.071  20.368
33555W        W34419  19.561   4.559  18.198
33556W        W34420  18.202   6.801  20.921
33557W        W34421  19.756   5.303  20.428
33558W        W34422  19.673   4.044  18.224
33559W        W34423  19.006   5.213  19.697
33560W        W34424  18.401   7.248  20.746
33561W        W34425  21.155   5.321  18.766
33562W        W34426  21.441   4.112  21.430
33563W        W34427  21.057   6.405  19.564
33564W        W34428  18.396   5.287  21.509
33565W        W34429  21.502   3.912  18.879
33566W        W34430  21.585   6.429  18.736
33567W        W34431  19.843   4.939  19.137
33568W        W34432  20.943   4.008  18.376
33569W        W34433  20.955   4.644  20.738
33570W        W34434  18.497   5.230  19.905
33571W        W34435  18.872   6.046  19.809
33572W        W34436  20.735   4.677  19.467
33573W        W34437  19.790   4.147  20.185
33574W        W34438  21.727   6.174  20.647
33575W        W34439  21.519   4.352  20.429
33576W        W34440  18.315   7.064  19.926
33577W        W34441  18.445   6.108  19.353
33578W        W34442  18.720   3.897  21.875
33579W        W34443  19.760   6.610  21.747
33580W        W34444  21.659   5.623  19.903
33581W        W34445  20.746   5.579  18.541
33582W        W34446  20.370   7.162  20.677
33583W        W34447  21.073   5.928  21.758
33584W        W34448  19.829   3.528  18.997
33585W        W34449  20.459   4.449  19.830
33586W        W34450  18.189   6.167  20.384
33587W        W34451  19.544   3.979  18.982
33588W        W34452  19.472   5.645  21.545
33589W        W34453  20.316   4.427  19.324
33590W        W34454  20.533   6.049  20.589
33591W        W34455  18.704   6.682  20.936
33592W        W34456  19.305   6.630  21.500
33593W        W34457  19.258   4.073  18.560
33594W        W34458  20.681   4.624  18.936
33595W        W34459  20.641   6.695  21.265
33596W        W34460  19.409   5.247  20.006
33597W        W34461  18.902   7.130  20.716
33598W        W34462  21.614   7.119  18.238
33599W        W34463  18.697   5.771  21.514
33600W        W34464  20.590   5.815  20.139
33601W        W34465  18.980   5.683  19.470
33602W        W34466  19.516   6.786  20.818
33603W        W34467  19.934   3.752  19.864
33604W        W34468  18.123   5.782  18.889
33605W        W34469  20.041   4.927  18.233
33606W        W34470  18.488   5.713  19.678
33607W        W34471  19.754   4.244  21.078
33608W        W34472  21.472   3.880  18.331
33609W        W34473  21.535   5.733  21.548
33610W        W34474  20.394   6.979  21.652
33611W        W34475  21.740   6.047  21.178
33612W        W34476  21.267   6.780  21.723
33613W        W34477  19.083   7.343  20.266
33614W        W34478  21.844   5.994  19.584
33615W        W34479  20.380   4.968  19.830
33616W        W34480  20.155   3.298  19.729
33617W        W34481  19.201   6.700  19.544
33618W        W34482  19.578   4.528  20.691
33619W        W34483  19.433   3.768  20.190
33620W        W34484  18.538   6.799  18.740
33621W        W34485  19.765   5.880  19.576
33622W        W34486  19.135   6.949  21.129
33623W        W34487  18.317   5.452  19.267
33624W        W34488  18.354   4.263  20.016
33625W        W34489  19.645   6.165  20.032
33626W        W34490  18.137   3.848  19.041
33627W        W34491  21.033   5.136  20.885
33628W        W34492  20.886   4.526  18.356
33629W        W34493  21.351   6.324  20.289
33630W        W34494  20.046   6.510  19.944
33631W        W34495  19.371   6.922  19.017
33632W        W34496  20.612   3.681  18.109
33633W        W34497  18.618   7.096  20.308
33634W        W34498  20.338   4.735  21.701
33635W        W34499  18.591   4.382  21.759
33636W        W34500  18.393   4.620  19.392
33637W        W34501  19.706   4.865  18.616
33638W        W34502  20.698   5.172  21.540
33639W        W34503  19.275   5.539  20.395
33640W        W34504  20.736   3.625  19.603
33641W        W34505  19.946   7.038  19.988
33642W        W34506  21.037   6.673  20.892
33643W        W34507  20.925   6.675  20.007
33644W        W34508  20.766   5.689  19.660
33645W        W34509  20.021   3.963  18.712
33646W        W34510  21.751   3.773  19.661
33647W        W34511  19.321   5.272  18.104
33648W        W34512  21.573   4.580  19.531
33649W        W34513  20.050   5.821  18.496
33650W        W34514  21.212   5.990  21.246
33651W        W34515  20.750   6.883  18.291
33652W        W34516  19.518   4.297  21.529
33653W        W34517  19.409   5.025  20.744
33654W        W34518  21.461   6.491  21.184
33655W        W34519  20.527   4.387  21.332
33656W        W34520  18.242   4.905  21.186
33657W        W34521  20.140   5.342  20.793
33658W        W34522  18.391   6.198  19.879
33659W        W34523  18.599   5.285  20.417
33660W        W34524  20.948   5.707  20.894
33661W        W34525  20.883   7.094  21.531
33662W        W34526  20.703   4.822  21.163
33663W        W34527  21.155   6.921  19.557
33664W        W34528  20.019   6.749  20.850
33665W        W34529  19.346   6.908  20.328
33666W        W34530  21.241   6.217  20.791
33667W        W34531  20.166   6.174  21.820
33668W        W34532  18.697   6.214  20.270
33669W        W34533  21.382   6.077  19.806
33670W        W34534  20.808   6.956  20.468
33671W        W34535  18.896   6.687  20.453
33672W        W34536  19.838   4.723  21.506
33673W        W34537  19.826   6.669  19.042
33674W        W34538  19.680   6.114  21.655
33675W        W34539  19.382   6.424  19.140
33676W        W34540  18.983   4.748  18.038
33677W        W34541  18.529   7.149  25.425
33678W        W34542  18.684   6.170  24.899
33679W        W34543  21.310   5.809  22.733
33680W        W34544  21.695   7.015  24.611
33681W        W34545  19.270   6.992  22.272
33682W        W34546  19.635   5.204  23.326
33683W        W34547  18.996   5.210  23.580
33684W        W34548  19.953   5.740  22.541
33685W        W34549  19.780   6.829  25.080
33686W        W34550  18.331   4.451  24.952
33687W        W34551  19.004   3.739  24.779
33688W        W34552  20.981   4.119  23.607
33689W        W34553  20.383   4.688  22.277
33690W        W34554  20.934   4.522  25.306
33691W        W34555  18.474   4.110  24.533
33692W        W34556  18.658   6.660  25.526
33693W        W34557  19.808   6.299  22.195
33694W        W34558  18.381   4.785  23.959
33695W        W34559  19.404   5.014  25.200
33696W        W34560  21.656   4.576  23.726
33697W        W34561  21.408   5.635  24.436
33698W        W34562  20.028   5.077  23.637
33699W        W34563  20.407   6.488  23.937
33700W        W34564  18.753   5.754  24.159
33701W        W34565  18.165   5.246  23.842
33702W        W34566  19.367   5.371  24.800
33703W        W34567  21.561   5.070  25.133
33704W        W34568  19.026   6.562  23.627
33705W        W34569  20.343   6.274  24.685
33706W        W34570  19.729   4.872  24.013
33707W        W34571  19.811   5.703  23.491
33708W        W34572  20.629   6.525  25.428
33709W        W34573  19.910   5.755  25.452
33710W        W34574  19.915   5.568  24.973
33711W        W34575  18.162   4.735  25.332
33712W        W34576  21.020   6.267  25.204
33713W        W34577  18.799   3.779  23.056
33714W        W34578  19.174   6.283  24.155
33715W        W34579  21.494   5.994  23.501
33716W        W34580  21.225   4.416  23.971
33717W        W34581  21.236   4.393  21.814
33718W        W34582  21.939   5.037  24.420
33719W        W34583  19.850   6.725  24.178
33720W        W34584  21.581   6.304  22.700
33721W        W34585  18.614   7.167  22.666
33722W        W34586  19.023   7.171  23.054
33723W        W34587  18.982   4.057  24.368
33724W        W34588  21.597   4.758  24.725
33725W        W34589  20.692   5.366  23.165
33726W        W34590  20.694   5.040  22.026
33727W        W34591  20.079   6.256  24.234
33728W        W34592  20.127   4.471  23.514
33729W        W34593  20.322   6.717  24.423
33730W        W34594  21.095   5.316  22.825
33731W        W34595  20.540   4.082  22.869
33732W        W34596  18.976   6.797  22.663
33733W        W34597  18.455   4.269  23.126
33734W        W34598  20.917   5.054  23.591
33735W        W34599  18.522   6.615  23.724
33736W        W34600  19.741   6.827  22.213
33737W        W34601  21.203   4.911  21.881
33738W        W34602  18.372   6.640  24.213
33739W        W34603  19.138   6.198  24.665
33740W        W34604  19.664   5.612  22.991
33741W        W34605  19.435   4.097  24.122
33742W        W34606  21.725   3.727  23.695
33743W        W34607  19.109   5.828  21.861
33744W        W34608  18.760   4.304  22.249
33745W        W34609  18.667   6.604  23.226
33746W        W34610  19.490   6.056  23.228
33747W        W34611  21.183   6.956  24.793
33748W        W34612  20.168   4.394  22.686
33749W        W34613  21.398   7.092  23.670
33750W        W34614  21.129   4.867  24.943
33751W        W34615  21.694   6.400  23.213
33752W        W34616  20.453   5.772  24.755
33753W        W34617  18.212   5.413  23.016
33754W        W34618  19.273   5.795  24.372
33755W        W34619  20.388   4.988  22.842
33756W        W34620  20.357   5.507  22.779
33757W        W34621  18.737   4.910  24.351
33758W        W34622  18.675   4.885  25.103
33759W        W34623  18.686   3.837  23.569
33760W        W34624  20.368   4.203  23.918
33761W        W34625  20.077   4.259  25.217
33762W        W34626  20.543   4.187  22.352
33763W        W34627  21.587   6.849  25.089
33764W        W34628  20.465   3.844  25.111
33765W        W34629  21.478   6.444  25.406
33766W        W34630  21.100   4.350  24.828
33767W        W34631  20.905   4.348  23.142
33768W        W34632  21.229   5.368  25.418
33769W        W34633  18.791   7.023  23.503
33770W        W34634  19.787   4.543  22.374
33771W        W34635  19.148   4.034  25.208
33772W        W34636  21.201   4.603  22.805
33773W        W34637  21.551   4.980  22.827
33774W        W34638  19.459   7.207  25.219
33775W        W34639  19.295   3.682  22.577
33776W        W34640  21.490   4.156  23.518
33777W        W34641  21.711   6.571  21.947
33778W        W34642  18.358   5.736  23.767
33779W        W34643  20.577   4.287  21.850
33780W        W34644  21.716   6.607  23.744
33781W        W34645  21.651   3.770  24.364
33782W        W34646  20.253   5.114  25.081
33783W        W34647  20.004   6.238  22.715
33784W        W34648  20.770   5.527  25.557
33785W        W34649  20.362   3.659  23.866
33786W        W34650  18.858   4.707  23.776
33787W        W34651  18.504   5.788  24.617
33788W        W34652  20.408   6.907  23.512
33789W        W34653  21.663   4.640  24.231
33790W        W34654  20.266   6.986  24.874
33791W        W34655  21.456   5.688  22.056
33792W        W34656  20.117   5.347  23.194
33793W        W34657  21.844   3.824  24.840
33794W        W34658  19.992   5.876  24.566
33795W        W34659  20.241   4.725  23.963
33796W        W34660  20.800   5.020  22.525
33797W        W34661  21.294   4.903  22.387
33798W        W34662  21.311   6.672  22.935
33799W        W34663  20.987   6.114  23.560
33800W        W34664  20.676   5.513  22.395
33801W        W34665  20.289   5.561  23.633
33802W        W34666  21.331   5.424  23.654
33803W        W34667  18.683   4.422  24.172
33804W        W34668  21.216   5.388  24.890
33805W        W34669  21.655   7.008  24.099
33806W        W34670  19.516   6.516  23.476
33807W        W34671  20.704   7.039  24.576
33808W        W34672  20.697   4.462  24.464
33809W        W34673  19.793   7.018  24.607
33810W        W34674  21.377   4.120  23.019
33811W        W34675  21.433   5.122  24.383
33812W        W34676  18.304   4.615  24.457
33813W        W34677  21.160   4.612  23.506
33814W        W34678  21.470   4.549  25.179
33815W        W34679  20.435   6.347  23.444
33816W        W34680  19.773   6.892  23.215
33817W        W34681  18.827   3.819  22.405
33818W        W34682  19.965   3.892  24.156
33819W        W34683  18.780   7.158  22.179
33820W        W34684  19.479   5.533  22.494
33821W        W34685  19.971   6.087  25.036
33822W        W34686  20.080   4.003  23.083
33823W        W34687  21.300   3.692  23.412
33824W        W34688  20.866   7.157  23.728
33825W        W34689  20.241   7.001  23.999
33826W        W34690  19.667   5.820  24.024
33827W        W34691  21.530   6.551  24.355
33828W        W34692  19.322   4.012  23.018
33829W        W34693  19.652   6.318  23.931
33830W        W34694  19.143   4.233  21.891
33831W        W34695  19.979   4.882  24.449
33832W        W34696  20.824   3.720  24.176
33833W        W34697  18.218   5.613  24.240
33834W        W34698  19.856   5.388  22.149
33835W        W34699  19.201   3.750  22.049
33836W        W34700  19.994   4.840  23.146
33837W        W34701  20.777   3.947  24.678
33838W        W34702  19.526   5.868  24.823
33839W        W34703  20.367   5.609  25.236
33840W        W34704  20.876   5.759  25.107
33841W        W34705  20.128   3.873  25.550
33842W        W34706  19.349   4.552  23.903
33843W        W34707  18.933   4.231  23.321
33844W        W34708  18.431   7.105  23.127
33845W        W34709  20.202   6.536  25.122
33846W        W34710  19.175   6.044  22.340
33847W        W34711  20.811   5.555  23.652
33848W        W34712  21.023   5.308  24.061
33849W        W34713  20.178   5.758  24.103
33850W        W34714  20.631   6.055  22.018
33851W        W34715  20.497   4.103  23.409
33852W        W34716  21.674   4.403  22.703
33853W        W34717  18.618   6.842  25.011
33854W        W34718  18.667   6.229  24.364
33855W        W34719  18.098   7.121  22.686
33856W        W34720  20.163   4.398  24.375
33857W        W34721  19.403   6.517  22.460
33858W        W34722  21.444   6.707  22.387
33859W        W34723  20.288   5.187  22.352
33860W        W34724  19.739   4.373  23.135
33861W        W34725  20.092   4.369  21.999
33862W        W34726  20.501   6.113  25.140
33863W        W34727  21.005   4.149  22.650
33864W        W34728  18.380   3.668  22.200
33865W        W34729  19.606   6.186  24.428
33866W        W34730  19.271   6.038  23.710
33867W        W34731  19.334   6.356  21.949
33868W        W34732  18.311   6.674  22.850
33869W        W34733  18.972   5.318  25.163
33870W        W34734  19.631   3.932  25.377
33871W        W34735  20.249   3.972  24.659
33872W        W34736  19.676   3.731  23.289
33873W        W34737  20.962   3.674  22.456
33874W        W34738  18.587   3.912  24.077
33875W        W34739  18.450   4.734  23.434
33876W        W34740  21.276   3.809  23.927
33877W        W34741  18.895   4.207  22.780
33878W        W34742  21.179   4.086  24.365
33879W        W34743  21.598   5.190  22.041
33880W        W34744  18.994   4.191  23.832
33881W        W34745  20.136   4.631  24.860
33882W        W34746  18.261   4.180  22.192
33883W        W34747  18.984   5.713  24.799
33884W        W34748  20.515   5.159  23.873
33885W        W34749  20.164   7.148  22.277
33886W        W34750  18.428   5.569  21.938
33887W        W34751  19.175   6.026  25.170
33888W        W34752  18.637   5.290  24.751
33889W        W34753  19.711   5.470  24.425
33890W        W34754  21.272   3.724  24.734
33891W        W34755  21.727   5.370  24.767
33892W        W34756  21.506   5.391  22.512
33893W        W34757  20.436   5.970  22.528
33894W        W34758  21.115   7.214  21.980
33895W        W34759  20.362   5.197  25.574
33896W        W34760  18.710   6.139  25.414
33897W        W34761  21.919   4.261  25.533
33898W        W34762  21.347   4.941  23.896
33899W        W34763  19.910   7.161  25.464
33900W        W34764  19.680   3.645  22.208
33901W        W34765  21.030   6.402  21.991
33902W        W34766  19.067   4.556  25.112
33903W        W34767  19.512   6.380  24.958
33904W        W34768  21.605   4.252  24.600
33905W        W34769  21.116   7.259  22.493
33906W        W34770  21.037   5.826  24.033
33907W        W34771  19.266   4.236  24.745
33908W        W34772  19.844   5.252  25.388
33909W        W34773  19.092   6.291  22.819
33910W        W34774  20.813   5.774  22.828
33911W        W34775  18.770   4.507  24.696
33912W        W34776  19.947   6.315  23.254
33913W        W34777  21.720   5.061  23.529
33914W        W34778  19.981   3.755  25.063
33915W        W34779  20.884   6.327  24.051
33916W        W34780  21.214   6.734  23.979
33917W        W34781  20.194   6.671  22.022
33918W        W34782  18.322   6.452  25.202
33919W        W34783  19.147   4.593  24.369
33920W        W34784  19.193   3.810  23.486
33921W        W34785  20.854   4.795  24.047
33922W        W34786  19.590   5.837  22.084
33923W        W34787  21.577   5.790  23.975
33924W        W34788  18.987   6.501  25.135
33925W        W34789  21.374   7.227  22.960
33926W        W34790  19.528   4.180  23.576
33927W        W34791  18.838   5.728  23.604
33928W        W34792  19.540   7.160  24.194
33929W        W34793  21.307   7.268  25.224
33930W        W34794  20.573   5.473  24.278
33931W        W34795  18.562   5.045  21.935
33932W        W34796  21.628   6.898  23.277
33933W        W34797  21.334   4.400  22.320
33934W        W34798  19.503   3.795  24.893
33935W        W34799  21.287   6.533  23.478
33936W        W34800  21.285   5.062  23.256
33937W        W34801  19.668   4.706  23.533
33938W        W34802  19.794   5.089  24.871
33939W        W34803  20.844   6.161  24.744
33940W        W34804  19.513   4.673  24.829
33941W        W34805  19.326   7.033  23.488
33942W        W34806  19.026   6.977  25.361
33943W        W34807  18.988   6.768  21.904
33944W        W34808  21.249   6.165  23.089
33945W        W34809  19.063   4.952  24.766
33946W        W34810  21.656   4.654  21.981
33947W        W34811  19.540   6.027  22.692
33948W        W34812  20.677   5.337  24.894
33949W        W34813  20.474   4.957  24.368
33950W        W34814  19.018   5.348  24.405
33951W        W34815  21.137   7.139  24.297
33952W        W34816  20.942   4.005  25.182
33953W        W34817  18.676   4.091  25.022
33954W        W34818  19.177   5.027  24.031
33955W        W34819  19.512   4.624  21.934
33956W        W34820  18.351   6.496  24.694
33957W        W34821  20.078   5.257  24.114
33958W        W34822  19.638   4.137  22.067
33959W        W34823  19.311   5.603  23.425
33960W        W34824  18.565   7.031  24.486
33961W        W34825  21.099   5.333  22.201
33962W        W34826  21.455   4.055  25.086
33963W        W34827  20.859   6.478  23.160
33964W        W34828  18.346   5.272  25.209
33965W        W34829  21.427   3.922  22.458
33966W        W34830  21.075   6.276  22.603
33967W        W34831  19.906   5.235  22.707
33968W        W34832  20.992   4.065  22.119
33969W        W34833  21.184   4.659  24.428
33970W        W34834  18.496   5.332  23.459
33971W        W34835  18.960   6.154  23.304
33972W        W34836  20.846   4.867  23.077
33973W        W34837  19.857   4.362  23.932
33974W        W34838  21.705   6.082  24.564
33975W        W34839  21.663   4.153  24.038
33976W        W34840  18.230   7.026  23.576
33977W        W34841  18.548   6.202  22.927
33978W        W34842  18.735   4.017  25.552
33979W        W34843  19.907   6.651  25.551
33980W        W34844  21.808   5.588  23.518
33981W        W34845  21.030   5.861  22.287
33982W        W34846  20.229   7.274  24.453
33983W        W34847  21.247   5.885  25.463
33984W        W34848  19.783   3.634  22.743
33985W        W34849  20.651   4.562  23.612
33986W        W34850  18.248   6.209  23.937
33987W        W34851  19.689   4.128  22.667
33988W        W34852  19.449   5.585  25.257
33989W        W34853  20.425   4.533  23.115
33990W        W34854  20.587   6.005  24.317
33991W        W34855  18.875   6.628  24.626
33992W        W34856  19.404   6.634  25.392
33993W        W34857  19.244   4.159  22.395
33994W        W34858  20.690   4.553  22.683
33995W        W34859  20.689   6.630  24.915
33996W        W34860  19.628   5.341  23.835
33997W        W34861  19.082   7.071  24.444
33998W        W34862  21.620   7.069  22.010
33999W        W34863  18.587   5.712  25.133
34000W        W34864  20.559   5.984  23.811
34001W        W34865  19.142   5.786  22.954
34002W        W34866  19.404   6.657  24.447
34003W        W34867  20.010   3.957  23.617
34004W        W34868  18.081   6.213  22.653
34005W        W34869  19.957   4.885  22.017
34006W        W34870  18.621   5.736  23.137
34007W        W34871  19.797   4.215  24.788
34008W        W34872  21.470   3.929  21.927
34009W        W34873  21.637   5.622  25.218
34010W        W34874  20.370   6.968  25.374
34011W        W34875  21.744   6.137  25.089
34012W        W34876  21.096   6.781  25.285
34013W        W34877  19.074   7.152  23.926
34014W        W34878  21.735   5.928  23.033
34015W        W34879  20.444   4.974  23.382
34016W        W34880  20.346   3.617  23.350
34017W        W34881  19.161   6.689  23.144
34018W        W34882  19.646   4.495  24.373
34019W        W34883  19.576   3.710  23.825
34020W        W34884  18.343   6.866  22.309
34021W        W34885  20.113   5.859  23.072
34022W        W34886  19.277   6.858  24.897
34023W        W34887  18.357   5.757  22.650
34024W        W34888  18.490   4.296  23.695
34025W        W34889  20.064   6.094  23.720
34026W        W34890  18.434   4.021  22.672
34027W        W34891  20.937   5.114  24.522
34028W        W34892  20.882   4.584  22.180
34029W        W34893  21.374   6.255  23.925
34030W        W34894  19.992   6.620  23.672
34031W        W34895  19.448   6.981  22.784
34032W        W34896  20.562   3.784  21.990
34033W        W34897  18.560   7.089  23.963
34034W        W34898  20.419   4.697  25.339
34035W        W34899  18.626   4.506  25.436
34036W        W34900  18.353   4.918  22.946
34037W        W34901  19.555   5.014  22.324
34038W        W34902  20.803   5.054  25.315
34039W        W34903  19.177   5.550  23.939
34040W        W34904  20.890   3.832  23.152
34041W        W34905  19.788   7.083  23.731
34042W        W34906  21.002   6.600  24.474
34043W        W34907  20.821   6.635  23.648
34044W        W34908  20.592   5.865  23.296
34045W        W34909  20.070   3.970  22.361
34046W        W34910  21.768   3.739  23.182
34047W        W34911  19.370   5.349  21.953
34048W        W34912  21.560   4.612  23.201
34049W        W34913  20.271   5.692  22.125
34050W        W34914  21.315   5.911  24.887
34051W        W34915  20.738   6.872  22.043
34052W        W34916  19.534   4.404  25.254
34053W        W34917  19.472   5.010  24.444
34054W        W34918  21.354   6.438  24.843
34055W        W34919  20.557   4.327  24.959
34056W        W34920  18.256   4.942  24.833
34057W        W34921  20.199   5.339  24.613
34058W        W34922  18.459   6.134  23.446
34059W        W34923  18.667   5.274  23.981
34060W        W34924  20.928   5.683  24.572
34061W        W34925  20.770   7.128  25.074
34062W        W34926  20.627   4.823  24.855
34063W        W34927  21.059   6.959  23.292
34064W        W34928  19.906   6.524  24.670
34065W        W34929  19.389   6.749  23.932
34066W        W34930  21.221   6.126  24.407
34067W        W34931  20.180   6.191  25.540
34068W        W34932  18.769   6.176  23.853
34069W        W34933  21.117   5.683  23.245
34070W        W34934  20.727   6.844  24.109
34071W        W34935  18.879   6.701  24.112
34072W        W34936  19.901   4.757  25.301
34073W        W34937  19.922   6.755  22.689
34074W        W34938  19.646   6.189  25.438
34075W        W34939  19.574   6.480  22.943
34076W        W34940  18.964   4.711  21.909
34077W        W34941  18.383   7.306  28.844
34078W        W34942  18.720   6.176  28.523
34079W        W34943  21.533   5.872  26.281
34080W        W34944  21.600   6.989  28.126
34081W        W34945  19.459   7.006  25.724
34082W        W34946  19.448   5.193  26.600
34083W        W34947  19.078   4.942  26.903
34084W        W34948  19.903   5.621  26.384
34085W        W34949  19.751   6.888  28.361
34086W        W34950  18.521   4.490  28.528
34087W        W34951  19.000   3.641  28.234
34088W        W34952  20.882   4.086  27.271
34089W        W34953  20.492   4.794  25.904
34090W        W34954  21.022   4.312  28.747
34091W        W34955  18.532   4.125  28.105
34092W        W34956  18.520   6.743  28.927
34093W        W34957  19.912   5.956  25.954
34094W        W34958  18.511   4.860  27.567
34095W        W34959  19.207   4.903  28.809
34096W        W34960  21.629   4.698  27.379
34097W        W34961  21.494   5.705  27.985
34098W        W34962  19.928   5.126  27.309
34099W        W34963  20.473   6.476  27.583
34100W        W34964  18.808   5.820  27.862
34101W        W34965  18.201   5.268  27.425
34102W        W34966  19.246   5.246  28.412
34103W        W34967  21.618   5.145  28.715
34104W        W34968  19.091   6.419  27.134
34105W        W34969  20.325   6.291  28.226
34106W        W34970  19.671   4.711  27.511
34107W        W34971  19.792   5.646  27.213
34108W        W34972  20.430   6.554   0.090
34109W        W34973  19.857   5.689  28.952
34110W        W34974  19.965   5.466  28.490
34111W        W34975  18.187   4.715   0.057
34112W        W34976  20.976   6.365  28.840
34113W        W34977  18.802   3.901  26.661
34114W        W34978  19.224   6.235  27.687
34115W        W34979  21.736   6.147  27.097
34116W        W34980  21.050   4.395  27.642
34117W        W34981  21.449   4.415  25.687
34118W        W34982  21.913   5.153  27.920
34119W        W34983  19.745   6.939  27.624
34120W        W34984  21.683   6.389  26.280
34121W        W34985  18.795   7.321  26.270
34122W        W34986  19.123   7.126  26.610
34123W        W34987  19.069   4.029  27.900
34124W        W34988  21.638   4.896  28.267
34125W        W34989  20.839   5.342  26.793
34126W        W34990  20.891   5.128  25.847
34127W        W34991  20.125   6.142  27.739
34128W        W34992  19.973   4.479  27.063
34129W        W34993  20.589   6.691  28.037
34130W        W34994  21.346   5.451  26.799
34131W        W34995  20.482   4.062  26.438
34132W        W34996  18.830   6.806  26.275
34133W        W34997  18.473   4.285  26.763
34134W        W34998  20.746   5.065  27.236
34135W        W34999  18.546   6.426  27.160
34136W        W35000  19.842   6.921  26.051
34137W        W35001  21.257   4.870  25.517
34138W        W35002  18.346   6.716  27.966
34139W        W35003  19.112   6.342  28.196
34140W        W35004  19.537   5.692  26.759
34141W        W35005  19.629   4.074  27.837
34142W        W35006  21.833   3.853  27.423
34143W        W35007  18.995   5.693  25.533
34144W        W35008  18.735   4.626  25.937
34145W        W35009  18.780   6.474  26.688
34146W        W35010  19.643   6.195  26.785
34147W        W35011  21.150   6.778  28.573
34148W        W35012  20.221   4.505  26.241
34149W        W35013  21.492   7.167  27.111
34150W        W35014  21.167   5.062  28.439
34151W        W35015  21.962   6.469  26.767
34152W        W35016  20.469   5.764  28.264
34153W        W35017  18.168   5.393  26.475
34154W        W35018  19.311   5.866  28.044
34155W        W35019  20.382   4.939  26.455
34156W        W35020  20.351   5.426  26.609
34157W        W35021  18.908   4.901  27.905
34158W        W35022  18.685   4.818  28.914
34159W        W35023  18.673   3.855  27.148
34160W        W35024  20.508   4.220  27.598
34161W        W35025  20.049   4.314  28.822
34162W        W35026  20.593   4.267  25.958
34163W        W35027  21.711   6.647  28.711
34164W        W35028  20.577   3.750  28.618
34165W        W35029  21.495   6.194  28.864
34166W        W35030  21.222   4.537  28.336
34167W        W35031  20.843   4.258  26.779
34168W        W35032  21.208   5.365  28.936
34169W        W35033  18.845   6.861  27.171
34170W        W35034  19.741   4.614  26.126
34171W        W35035  19.158   3.956  28.624
34172W        W35036  21.189   4.599  26.615
34173W        W35037  21.509   5.014  26.502
34174W        W35038  19.354   7.032  28.816
34175W        W35039  19.244   3.765  26.184
34176W        W35040  21.598   4.221  27.145
34177W        W35041  21.898   6.536  25.814
34178W        W35042  18.497   5.668  27.272
34179W        W35043  20.539   4.213  25.463
34180W        W35044  21.766   6.579  27.358
34181W        W35045  21.695   3.814  27.925
34182W        W35046  20.388   4.720  28.882
34183W        W35047  20.023   6.136  26.440
34184W        W35048  20.739   5.520   0.118
34185W        W35049  20.551   3.719  27.406
34186W        W35050  18.952   4.690  27.344
34187W        W35051  18.436   5.854  28.228
34188W        W35052  20.339   6.957  27.011
34189W        W35053  21.445   4.649  27.868
34190W        W35054  20.252   6.904  28.339
34191W        W35055  21.505   5.591  25.837
34192W        W35056  19.900   5.288  26.818
34193W        W35057  21.877   3.791  28.411
34194W        W35058  19.976   5.787  28.069
34195W        W35059  20.201   4.713  27.471
34196W        W35060  20.994   4.996  26.349
34197W        W35061  21.379   5.024  25.987
34198W        W35062  21.305   6.702  26.443
34199W        W35063  20.815   6.115  27.370
34200W        W35064  20.766   5.455  26.277
34201W        W35065  20.321   5.419  27.133
34202W        W35066  21.309   5.386  27.329
34203W        W35067  18.741   4.432  27.735
34204W        W35068  21.343   5.533  28.447
34205W        W35069  21.718   7.023  27.597
34206W        W35070  19.591   6.579  27.126
34207W        W35071  20.739   7.076  28.462
34208W        W35072  20.714   4.410  28.054
34209W        W35073  19.947   7.233  28.036
34210W        W35074  21.534   4.218  26.590
34211W        W35075  21.373   5.203  27.939
34212W        W35076  18.444   4.684  28.067
34213W        W35077  21.159   4.504  27.133
34214W        W35078  21.611   4.601  28.675
34215W        W35079  20.415   6.338  27.081
34216W        W35080  19.659   6.938  26.657
34217W        W35081  18.865   4.116  26.050
34218W        W35082  20.072   3.770  27.561
34219W        W35083  18.927   7.175  25.813
34220W        W35084  19.446   5.496  26.176
34221W        W35085  20.052   5.978  28.525
34222W        W35086  19.992   4.161  26.604
34223W        W35087  21.244   3.909  26.938
34224W        W35088  21.013   7.233  27.299
34225W        W35089  20.275   6.955  27.682
34226W        W35090  19.663   5.895  27.659
34227W        W35091  21.495   6.596  27.811
34228W        W35092  19.180   4.178  26.487
34229W        W35093  19.694   6.412  27.605
34230W        W35094  19.113   4.389  25.595
34231W        W35095  19.944   5.015  27.832
34232W        W35096  20.879   3.901  27.800
34233W        W35097  18.278   5.644  27.795
34234W        W35098  19.863   5.444  25.873
34235W        W35099  19.233   3.907  25.700
34236W        W35100  19.909   4.707  26.611
34237W        W35101  20.914   4.031  28.329
34238W        W35102  19.560   5.775  28.495
34239W        W35103  20.357   5.624  28.785
34240W        W35104  20.849   5.605  28.608
34241W        W35105  20.189   3.863   0.069
34242W        W35106  19.500   4.253  27.338
34243W        W35107  18.977   4.375  26.924
34244W        W35108  18.609   6.992  26.724
34245W        W35109  20.053   6.504  28.645
34246W        W35110  19.071   5.847  26.057
34247W        W35111  20.799   5.578  27.283
34248W        W35112  20.907   5.288  27.717
34249W        W35113  20.065   5.551  27.625
34250W        W35114  20.735   6.031  25.588
34251W        W35115  20.350   4.100  27.102
34252W        W35116  21.902   4.678  26.434
34253W        W35117  18.332   6.944  28.484
34254W        W35118  18.630   6.282  28.014
34255W        W35119  18.310   7.276  26.409
34256W        W35120  20.198   4.431  27.945
34257W        W35121  19.546   6.474  25.885
34258W        W35122  21.548   7.027  26.088
34259W        W35123  20.314   5.291  26.081
34260W        W35124  19.363   4.685  26.532
34261W        W35125  20.124   4.453  25.705
34262W        W35126  20.594   6.081  28.642
34263W        W35127  21.090   4.191  26.264
34264W        W35128  18.379   3.729  25.826
34265W        W35129  19.701   6.216  28.120
34266W        W35130  19.403   6.012  27.206
34267W        W35131  19.166   6.201  25.658
34268W        W35132  18.290   6.727  26.335
34269W        W35133  18.831   5.301  28.710
34270W        W35134  19.675   3.960  28.847
34271W        W35135  20.383   4.005  28.193
34272W        W35136  19.554   3.796  26.644
34273W        W35137  20.787   3.803  26.079
34274W        W35138  18.616   3.935  27.652
34275W        W35139  18.586   4.750  26.951
34276W        W35140  21.335   3.961  27.511
34277W        W35141  18.833   4.569  26.462
34278W        W35142  21.310   4.145  28.006
34279W        W35143  21.690   5.189  25.598
34280W        W35144  19.005   4.174  27.398
34281W        W35145  20.137   4.628  28.420
34282W        W35146  18.369   4.248  25.855
34283W        W35147  18.954   5.717  28.395
34284W        W35148  20.401   5.173  27.604
34285W        W35149  20.247   7.369  26.097
34286W        W35150  18.469   5.541  25.638
34287W        W35151  19.203   6.106  28.660
34288W        W35152  18.641   5.344  28.213
34289W        W35153  19.617   5.432  28.100
34290W        W35154  21.318   3.705  28.282
34291W        W35155  21.843   5.496  28.322
34292W        W35156  21.855   5.212  26.106
34293W        W35157  20.371   5.800  26.251
34294W        W35158  21.186   7.121  25.710
34295W        W35159  20.340   5.185   0.110
34296W        W35160  18.820   5.976   0.011
34297W        W35161  21.886   4.192  28.842
34298W        W35162  21.164   4.896  27.501
34299W        W35163  19.856   6.933  28.873
34300W        W35164  19.716   3.771  25.874
34301W        W35165  21.549   6.122  25.826
34302W        W35166  19.018   4.447  28.696
34303W        W35167  19.491   6.497  28.514
34304W        W35168  21.720   4.368  28.235
34305W        W35169  21.030   7.093  26.227
34306W        W35170  21.120   5.782  27.620
34307W        W35171  19.387   4.228  28.263
34308W        W35172  19.582   5.276  28.788
34309W        W35173  19.149   6.362  26.248
34310W        W35174  21.063   5.816  26.558
34311W        W35175  18.924   4.435  28.198
34312W        W35176  20.006   6.564  26.812
34313W        W35177  21.789   5.139  26.929
34314W        W35178  20.065   3.759  28.572
34315W        W35179  20.972   6.504  27.687
34316W        W35180  21.272   6.787  27.381
34317W        W35181  20.057   6.446  26.008
34318W        W35182  18.349   6.204  28.888
34319W        W35183  19.260   4.498  27.777
34320W        W35184  19.203   3.897  27.013
34321W        W35185  20.677   4.738  27.638
34322W        W35186  19.476   5.790  25.740
34323W        W35187  21.623   5.811  27.482
34324W        W35188  18.995   6.585  28.745
34325W        W35189  21.412   7.223  26.563
34326W        W35190  19.541   4.305  26.826
34327W        W35191  19.023   5.638  27.051
34328W        W35192  19.380   7.176  27.911
34329W        W35193  21.514   7.122  28.676
34330W        W35194  20.554   5.654  27.757
34331W        W35195  18.530   5.007  25.605
34332W        W35196  21.794   6.874  26.505
34333W        W35197  21.462   4.555  26.191
34334W        W35198  19.548   3.738  28.393
34335W        W35199  21.519   6.680  26.917
34336W        W35200  21.233   4.989  26.977
34337W        W35201  19.589   4.830  26.998
34338W        W35202  19.773   5.002  28.343
34339W        W35203  20.908   6.388  28.291
34340W        W35204  19.323   4.732  28.336
34341W        W35205  19.326   7.009  27.066
34342W        W35206  18.834   7.097  28.665
34343W        W35207  19.074   6.681  25.820
34344W        W35208  21.425   6.200  26.688
34345W        W35209  18.842   4.889  28.415
34346W        W35210  21.806   4.757  25.869
34347W        W35211  19.519   5.997  26.311
34348W        W35212  20.317   5.103  28.540
34349W        W35213  20.431   4.873  28.063
34350W        W35214  19.104   5.396  27.957
34351W        W35215  21.266   7.193  27.761
34352W        W35216  21.081   3.793  28.768
34353W        W35217  18.663   3.986  28.570
34354W        W35218  19.126   5.148  27.494
34355W        W35219  19.509   4.758  25.651
34356W        W35220  18.294   6.419  28.385
34357W        W35221  19.589   5.360  27.602
34358W        W35222  19.630   4.270  25.754
34359W        W35223  18.985   5.073  26.405
34360W        W35224  18.552   7.191  28.077
34361W        W35225  21.285   5.427  26.284
34362W        W35226  21.456   4.095  28.583
34363W        W35227  21.096   6.410  27.042
34364W        W35228  18.392   5.243  28.965
34365W        W35229  21.566   4.058  26.070
34366W        W35230  21.182   6.234  26.211
34367W        W35231  19.873   5.112  26.297
34368W        W35232  21.037   4.091  25.703
34369W        W35233  20.986   4.857  28.009
34370W        W35234  18.702   5.191  27.187
34371W        W35235  19.147   6.080  26.720
34372W        W35236  20.767   4.823  26.789
34373W        W35237  19.983   4.258  27.513
34374W        W35238  21.748   6.151  27.898
34375W        W35239  21.784   4.289  27.711
34376W        W35240  18.318   6.906  27.170
34377W        W35241  18.719   5.996  26.401
34378W        W35242  18.861   3.818   0.030
34379W        W35243  19.909   6.509   0.177
34380W        W35244  21.763   5.646  27.020
34381W        W35245  21.043   5.779  25.960
34382W        W35246  20.501   7.252  28.035
34383W        W35247  21.097   5.876  28.977
34384W        W35248  19.941   3.679  26.329
34385W        W35249  20.621   4.534  27.183
34386W        W35250  18.430   6.086  27.582
34387W        W35251  19.626   4.124  26.247
34388W        W35252  19.209   5.627  28.861
34389W        W35253  20.375   4.481  26.733
34390W        W35254  20.696   6.120  27.900
34391W        W35255  18.735   6.689  28.321
34392W        W35256  19.417   6.566   0.020
34393W        W35257  19.242   4.484  26.073
34394W        W35258  20.727   4.553  26.354
34395W        W35259  20.573   6.601  28.597
34396W        W35260  19.424   5.309  27.105
34397W        W35261  18.959   6.887  27.909
34398W        W35262  21.677   6.955  25.583
34399W        W35263  18.491   5.703  28.714
34400W        W35264  20.346   5.888  27.336
34401W        W35265  19.078   5.594  26.535
34402W        W35266  19.463   6.662  27.984
34403W        W35267  19.846   3.956  27.072
34404W        W35268  18.290   5.765  26.100
34405W        W35269  19.979   4.943  25.806
34406W        W35270  18.602   5.483  26.766
34407W        W35271  19.892   4.173  28.326
34408W        W35272  21.552   3.908  25.571
34409W        W35273  21.696   5.667  28.796
34410W        W35274  20.363   7.008  28.842
34411W        W35275  21.675   5.995  28.399
34412W        W35276  21.325   6.676   0.051
34413W        W35277  19.022   7.235  27.504
34414W        W35278  21.904   5.983  26.615
34415W        W35279  20.278   4.923  26.979
34416W        W35280  20.196   3.708  26.782
34417W        W35281  19.275   6.610  26.693
34418W        W35282  19.717   4.572  28.030
34419W        W35283  19.563   3.735  27.429
34420W        W35284  18.451   7.043  25.947
34421W        W35285  20.084   5.819  26.841
34422W        W35286  19.210   6.901  28.353
34423W        W35287  18.671   5.462  26.249
34424W        W35288  18.517   4.347  27.275
34425W        W35289  19.920   6.156  27.222
34426W        W35290  18.428   4.009  26.322
34427W        W35291  20.729   5.259  28.238
34428W        W35292  21.009   4.610  25.913
34429W        W35293  21.358   6.247  27.458
34430W        W35294  20.063   6.647  27.329
34431W        W35295  19.349   6.867  26.220
34432W        W35296  20.646   3.725  25.580
34433W        W35297  18.572   7.002  27.595
34434W        W35298  20.794   4.548   0.128
34435W        W35299  18.637   4.289   0.005
34436W        W35300  18.480   4.984  26.488
34437W        W35301  19.398   4.990  26.102
34438W        W35302  20.764   5.119  28.798
34439W        W35303  19.198   5.675  27.542
34440W        W35304  20.719   3.763  26.896
34441W        W35305  19.845   7.084  27.122
34442W        W35306  21.100   6.814  28.071
34443W        W35307  20.757   6.750  27.244
34444W        W35308  20.609   5.823  26.871
34445W        W35309  20.110   4.061  26.038
34446W        W35310  21.783   3.820  26.863
34447W        W35311  19.387   5.277  25.666
34448W        W35312  21.632   4.653  26.870
34449W        W35313  20.325   5.703  25.747
34450W        W35314  21.169   6.011  28.486
34451W        W35315  21.361   6.608  25.883
34452W        W35316  19.556   4.461  28.714
34453W        W35317  19.424   4.985  27.907
34454W        W35318  21.445   6.455  28.311
34455W        W35319  20.518   4.286  28.600
34456W        W35320  18.344   4.978  28.501
34457W        W35321  20.241   5.348  28.074
34458W        W35322  18.666   6.001  26.910
34459W        W35323  18.675   5.343  27.679
34460W        W35324  20.971   5.700  28.103
34461W        W35325  20.844   6.882  28.965
34462W        W35326  20.745   4.732  28.469
34463W        W35327  21.074   6.959  26.866
34464W        W35328  20.008   6.622  27.969
34465W        W35329  19.265   6.750  27.510
34466W        W35330  21.228   6.148  27.965
34467W        W35331  20.184   6.102  28.991
34468W        W35332  18.879   6.028  27.371
34469W        W35333  21.244   5.876  27.098
34470W        W35334  20.794   6.994  27.689
34471W        W35335  18.790   6.518  27.589
34472W        W35336  19.891   4.859  28.838
34473W        W35337  20.142   6.954  26.479
34474W        W35338  19.694   6.164  28.841
34475W        W35339  19.681   6.509  26.377
34476W        W35340  19.019   4.894  25.520
34477W        W35341  18.414  10.820   3.294
34478W        W35342  18.737   9.839   2.892
34479W        W35343  21.412   9.469   0.806
34480W        W35344  21.759  10.531   2.650
34481W        W35345  19.598  10.601   0.341
34482W        W35346  19.437   8.710   1.128
34483W        W35347  18.981   8.541   1.447
34484W        W35348  19.988   9.343   0.714
34485W        W35349  19.877  10.580   3.002
34486W        W35350  18.220   8.124   2.968
34487W        W35351  18.881   7.360   2.807
34488W        W35352  20.805   7.671   1.777
34489W        W35353  20.492   8.456   0.467
34490W        W35354  20.848   8.202   3.247
34491W        W35355  18.228   7.929   2.488
34492W        W35356  18.503  10.392   3.570
34493W        W35357  19.859   9.705   0.357
34494W        W35358  18.577   8.560   1.853
34495W        W35359  19.365   8.552   3.139
34496W        W35360  21.691   8.163   1.768
34497W        W35361  21.503   9.349   2.478
34498W        W35362  19.793   8.781   1.521
34499W        W35363  20.444  10.053   2.013
34500W        W35364  18.776   9.390   2.137
34501W        W35365  18.288   9.028   1.854
34502W        W35366  19.378   8.981   2.852
34503W        W35367  21.549   8.738   3.176
34504W        W35368  19.112  10.282   1.676
34505W        W35369  20.343   9.907   2.681
34506W        W35370  19.454   8.316   2.016
34507W        W35371  19.658   9.281   1.637
34508W        W35372  20.589  10.130   3.376
34509W        W35373  19.945   9.314   3.449
34510W        W35374  19.861   9.120   2.979
34511W        W35375  18.163   8.448   3.358
34512W        W35376  21.057  10.083   3.137
34513W        W35377  18.639   7.483   0.956
34514W        W35378  19.269  10.049   2.133
34515W        W35379  21.722   9.578   1.606
34516W        W35380  21.263   7.870   1.857
34517W        W35381  21.474   8.011   0.012
34518W        W35382  21.738   8.867   2.380
34519W        W35383  19.968  10.614   2.173
34520W        W35384  21.623   9.932   0.792
34521W        W35385  18.918  10.985   0.571
34522W        W35386  19.098  10.886   1.056
34523W        W35387  18.719   7.796   2.548
34524W        W35388  21.374   8.563   2.591
34525W        W35389  20.854   8.914   1.280
34526W        W35390  20.907   8.705   0.299
34527W        W35391  20.135   9.732   2.247
34528W        W35392  20.002   8.327   1.627
34529W        W35393  20.583  10.364   2.398
34530W        W35394  21.321   9.014   1.031
34531W        W35395  20.324   7.753   0.992
34532W        W35396  18.948  10.482   0.687
34533W        W35397  18.354   7.836   1.222
34534W        W35398  21.091   8.356   1.750
34535W        W35399  18.603  10.219   1.585
34536W        W35400  19.916  10.358   0.728
34537W        W35401  21.209   8.452  28.944
34538W        W35402  18.356  10.335   2.297
34539W        W35403  19.258  10.019   2.649
34540W        W35404  19.406   9.249   1.181
34541W        W35405  19.107   7.556   2.308
34542W        W35406  21.844   7.310   1.664
34543W        W35407  18.936   9.086   0.273
34544W        W35408  18.627   8.248   0.466
34545W        W35409  18.630  10.248   1.061
34546W        W35410  19.661   9.685   1.300
34547W        W35411  21.334  10.506   2.959
34548W        W35412  20.148   8.211   0.755
34549W        W35413  21.441  10.641   1.508
34550W        W35414  21.055   8.599   2.990
34551W        W35415  21.826  10.023   1.307
34552W        W35416  20.485   9.412   2.695
34553W        W35417  18.369   8.845   1.045
34554W        W35418  19.157   9.568   2.420
34555W        W35419  20.516   8.613   0.961
34556W        W35420  20.403   9.109   1.079
34557W        W35421  18.679   8.678   2.346
34558W        W35422  18.616   8.555   3.113
34559W        W35423  18.605   7.413   1.466
34560W        W35424  20.431   7.690   2.135
34561W        W35425  20.064   7.856   3.198
34562W        W35426  20.673   7.703   0.580
34563W        W35427  21.774  10.310   3.163
34564W        W35428  20.398   7.441   3.200
34565W        W35429  21.503   9.859   3.265
34566W        W35430  21.036   7.961   2.790
34567W        W35431  20.704   7.864   1.314
34568W        W35432  21.142   8.994   3.376
34569W        W35433  18.825  10.670   1.437
34570W        W35434  19.617   8.325   0.762
34571W        W35435  19.088   7.636   3.212
34572W        W35436  21.230   8.216   0.912
34573W        W35437  21.637   8.597   0.903
34574W        W35438  19.453  10.694   3.298
34575W        W35439  19.405   7.341   0.727
34576W        W35440  21.604   7.720   1.500
34577W        W35441  21.787  10.163   0.308
34578W        W35442  18.526   9.461   1.708
34579W        W35443  20.588   7.825   0.093
34580W        W35444  21.698  10.251   1.773
34581W        W35445  21.610   7.390   2.400
34582W        W35446  20.159   8.720   3.186
34583W        W35447  19.927   9.843   0.840
34584W        W35448  20.710   9.242   3.530
34585W        W35449  20.376   7.408   1.635
34586W        W35450  18.950   8.195   1.826
34587W        W35451  18.518   9.438   2.612
34588W        W35452  20.346  10.583   1.450
34589W        W35453  21.262   8.166   2.273
34590W        W35454  20.420  10.762   2.722
34591W        W35455  21.537   9.390   0.320
34592W        W35456  19.889   9.096   1.141
34593W        W35457  21.720   7.452   2.896
34594W        W35458  19.992   9.359   2.554
34595W        W35459  20.231   8.203   2.077
34596W        W35460  21.003   8.658   0.824
34597W        W35461  21.364   8.506   0.459
34598W        W35462  21.394  10.264   1.117
34599W        W35463  20.874   9.745   1.789
34600W        W35464  20.697   9.056   0.644
34601W        W35465  20.161   9.178   1.576
34602W        W35466  21.163   8.893   1.736
34603W        W35467  18.565   8.121   2.155
34604W        W35468  21.283   9.032   2.822
34605W        W35469  21.681  10.664   2.072
34606W        W35470  19.596  10.162   1.569
34607W        W35471  20.940  10.770   2.766
34608W        W35472  20.474   8.049   2.507
34609W        W35473  19.943  10.910   2.588
34610W        W35474  21.535   7.760   0.989
34611W        W35475  21.220   8.954   2.285
34612W        W35476  18.190   8.435   2.355
34613W        W35477  21.187   8.002   1.371
34614W        W35478  21.478   8.245   3.001
34615W        W35479  20.420   9.871   1.539
34616W        W35480  19.827  10.558   1.214
34617W        W35481  18.755   7.745   0.486
34618W        W35482  20.004   7.406   2.046
34619W        W35483  19.014  10.572   0.178
34620W        W35484  19.202   9.126   0.724
34621W        W35485  20.059   9.605   3.005
34622W        W35486  19.840   8.091   1.176
34623W        W35487  21.140   7.481   1.415
34624W        W35488  20.824  10.830   1.708
34625W        W35489  20.438  10.583   1.959
34626W        W35490  19.631   9.636   2.226
34627W        W35491  21.458  10.231   2.278
34628W        W35492  19.120   7.684   0.988
34629W        W35493  19.789  10.124   2.162
34630W        W35494  19.215   7.856   0.127
34631W        W35495  19.830   8.350   2.365
34632W        W35496  20.811   7.341   2.179
34633W        W35497  18.267   9.450   2.154
34634W        W35498  19.961   9.034   0.271
34635W        W35499  19.299   7.346   0.225
34636W        W35500  19.961   8.588   1.056
34637W        W35501  20.716   7.588   2.623
34638W        W35502  19.533   9.523   2.792
34639W        W35503  20.352   9.197   3.171
34640W        W35504  20.845   9.220   3.017
34641W        W35505  20.097   7.560   3.621
34642W        W35506  19.295   7.828   1.873
34643W        W35507  18.872   7.885   1.411
34644W        W35508  18.600  10.779   0.965
34645W        W35509  20.113  10.126   3.104
34646W        W35510  18.976   9.559   0.523
34647W        W35511  20.608   8.961   1.745
34648W        W35512  20.834   8.661   2.104
34649W        W35513  19.964   9.257   2.050
34650W        W35514  20.701   9.711   0.118
34651W        W35515  20.333   7.919   1.670
34652W        W35516  21.856   8.115   0.792
34653W        W35517  18.515  10.667   2.792
34654W        W35518  18.689   9.852   2.354
34655W        W35519  18.198  10.936   0.671
34656W        W35520  19.997   7.846   2.369
34657W        W35521  19.501  10.112   0.546
34658W        W35522  21.427  10.414   0.595
34659W        W35523  20.202   8.863   0.668
34660W        W35524  19.190   8.218   1.093
34661W        W35525  20.207   8.165   0.130
34662W        W35526  20.572   9.662   3.157
34663W        W35527  21.031   7.709   0.942
34664W        W35528  18.371   7.416   0.339
34665W        W35529  19.822   9.922   2.642
34666W        W35530  19.405   9.712   1.765
34667W        W35531  19.360   9.731   0.239
34668W        W35532  18.531  10.192   0.549
34669W        W35533  18.974   8.943   3.183
34670W        W35534  19.615   7.623   3.426
34671W        W35535  20.209   7.595   2.747
34672W        W35536  19.583   7.319   1.221
34673W        W35537  20.332   7.316   0.671
34674W        W35538  18.425   7.562   2.183
34675W        W35539  18.536   8.291   1.381
34676W        W35540  21.311   7.351   1.909
34677W        W35541  18.723   8.017   0.928
34678W        W35542  21.167   7.667   2.326
34679W        W35543  21.682   8.884   0.255
34680W        W35544  18.829   7.631   1.878
34681W        W35545  20.064   8.177   2.792
34682W        W35546  18.275   7.910   0.236
34683W        W35547  19.008   9.375   2.890
34684W        W35548  20.160   8.745   1.922
34685W        W35549  20.128  10.655   0.341
34686W        W35550  18.442   9.258   0.228
34687W        W35551  19.213   9.799   3.132
34688W        W35552  18.619   8.965   2.796
34689W        W35553  19.539   9.168   2.403
34690W        W35554  21.206   7.394   2.761
34691W        W35555  21.798   9.098   2.835
34692W        W35556  21.747   9.089   0.716
34693W        W35557  20.498   9.542   0.807
34694W        W35558  21.209  10.833   0.245
34695W        W35559  20.310   8.918   3.633
34696W        W35560  18.810   9.915   3.454
34697W        W35561  21.843   7.837   3.205
34698W        W35562  21.468   8.573   2.031
34699W        W35563  19.924  10.722   3.492
34700W        W35564  19.790   7.426   0.400
34701W        W35565  21.341   9.874   0.351
34702W        W35566  18.961   8.168   3.047
34703W        W35567  19.576  10.167   3.024
34704W        W35568  21.538   7.864   2.638
34705W        W35569  20.879  11.048   0.692
34706W        W35570  20.898   9.279   2.015
34707W        W35571  19.191   7.811   2.749
34708W        W35572  19.704   8.848   3.398
34709W        W35573  19.056   9.987   0.812
34710W        W35574  20.943   9.371   1.014
34711W        W35575  18.600   8.285   2.667
34712W        W35576  20.025  10.081   1.282
34713W        W35577  21.753   8.612   1.517
34714W        W35578  19.904   7.372   3.094
34715W        W35579  20.953  10.120   2.120
34716W        W35580  21.189  10.521   1.933
34717W        W35581  20.320   9.927   0.488
34718W        W35582  18.346   9.974   3.280
34719W        W35583  19.052   8.231   2.371
34720W        W35584  19.125   7.433   1.474
34721W        W35585  20.777   8.095   2.086
34722W        W35586  19.555   9.301   0.409
34723W        W35587  21.413   9.316   1.955
34724W        W35588  18.712  10.314   3.110
34725W        W35589  21.384  10.769   1.000
34726W        W35590  19.444   7.827   1.378
34727W        W35591  19.039   9.410   1.531
34728W        W35592  19.485  10.924   2.329
34729W        W35593  21.621  10.805   3.268
34730W        W35594  20.443   9.092   2.255
34731W        W35595  18.487   8.765   0.518
34732W        W35596  21.860  10.356   0.888
34733W        W35597  21.439   7.981   0.515
34734W        W35598  19.413   7.327   2.761
34735W        W35599  21.222  10.127   1.582
34736W        W35600  21.288   8.585   1.308
34737W        W35601  19.483   8.348   1.505
34738W        W35602  19.788   8.639   2.817
34739W        W35603  20.835   9.829   2.753
34740W        W35604  19.458   8.250   2.730
34741W        W35605  19.379  10.672   1.466
34742W        W35606  18.939  10.763   3.233
34743W        W35607  18.941  10.045   0.246
34744W        W35608  21.392   9.742   1.241
34745W        W35609  19.011   8.605   2.759
34746W        W35610  21.892   8.454   0.418
34747W        W35611  19.448   9.633   0.797
34748W        W35612  20.294   8.930   2.742
34749W        W35613  20.398   8.568   2.391
34750W        W35614  19.036   9.052   2.467
34751W        W35615  21.315  10.701   2.422
34752W        W35616  20.891   7.552   3.159
34753W        W35617  18.610   7.762   3.062
34754W        W35618  19.087   8.679   1.993
34755W        W35619  19.441   8.325   0.260
34756W        W35620  18.335  10.170   2.786
34757W        W35621  19.607   8.849   1.988
34758W        W35622  19.752   7.899   0.186
34759W        W35623  18.963   8.971   1.155
34760W        W35624  18.698  10.742   2.313
34761W        W35625  21.233   9.032   0.529
34762W        W35626  21.356   7.752   3.130
34763W        W35627  20.882   9.833   1.284
34764W        W35628  18.362   8.958   3.323
34765W        W35629  21.503   7.476   0.546
34766W        W35630  21.102   9.901   0.816
34767W        W35631  19.678   8.877   0.699
34768W        W35632  21.084   7.673   0.249
34769W        W35633  20.876   8.376   2.537
34770W        W35634  18.778   8.993   1.662
34771W        W35635  19.168   9.881   1.335
34772W        W35636  20.829   8.379   1.291
34773W        W35637  19.813   7.909   1.885
34774W        W35638  21.739   9.809   2.384
34775W        W35639  21.701   7.802   2.126
34776W        W35640  18.309  10.595   1.361
34777W        W35641  18.585   9.752   0.821
34778W        W35642  18.661   7.632   3.590
34779W        W35643  19.646  10.262   3.517
34780W        W35644  21.584   9.110   1.447
34781W        W35645  20.990   9.496   0.497
34782W        W35646  20.363  10.998   2.258
34783W        W35647  21.057   9.575   3.337
34784W        W35648  19.868   7.100   0.774
34785W        W35649  20.552   8.408   1.730
34786W        W35650  18.385   9.915   1.941
34787W        W35651  19.835   7.629   0.889
34788W        W35652  19.448   9.305   3.248
34789W        W35653  20.335   8.223   1.245
34790W        W35654  20.678   9.693   2.288
34791W        W35655  18.800  10.286   2.598
34792W        W35656  19.153  10.289   3.368
34793W        W35657  19.118   8.102   0.594
34794W        W35658  20.692   8.136   0.855
34795W        W35659  20.612  10.300   2.898
34796W        W35660  19.290   8.927   1.576
34797W        W35661  19.166  10.524   2.346
34798W        W35662  21.714  10.672   0.210
34799W        W35663  18.540   9.427   3.150
34800W        W35664  20.419   9.484   1.898
34801W        W35665  18.986   9.503   1.031
34802W        W35666  19.618  10.449   2.560
34803W        W35667  19.940   7.652   1.446
34804W        W35668  18.269   9.706   0.423
34805W        W35669  19.918   8.527   0.364
34806W        W35670  18.563   9.278   1.242
34807W        W35671  19.709   7.776   2.816
34808W        W35672  21.519   7.490   0.032
34809W        W35673  21.512   9.320   3.212
34810W        W35674  20.371  10.600   3.253
34811W        W35675  21.764   9.611   2.859
34812W        W35676  21.344  10.390   3.458
34813W        W35677  19.028  10.764   1.901
34814W        W35678  21.857   9.452   1.115
34815W        W35679  20.304   8.718   1.411
34816W        W35680  20.144   7.277   1.170
34817W        W35681  19.116  10.363   1.161
34818W        W35682  19.495   7.909   2.340
34819W        W35683  19.568   7.424   1.745
34820W        W35684  18.544  10.696   0.376
34821W        W35685  20.156   9.553   1.216
34822W        W35686  19.194  10.484   2.880
34823W        W35687  18.676   9.195   0.739
34824W        W35688  18.416   7.873   1.719
34825W        W35689  19.946   9.736   1.750
34826W        W35690  18.281   7.775   0.718
34827W        W35691  20.793   8.872   2.616
34828W        W35692  20.957   8.167   0.400
34829W        W35693  21.430   9.832   1.945
34830W        W35694  20.061  10.278   1.757
34831W        W35695  19.452  10.583   0.837
34832W        W35696  20.683   7.316   0.208
34833W        W35697  18.517  10.647   1.850
34834W        W35698  20.358   8.322   3.458
34835W        W35699  18.591   8.145   3.416
34836W        W35700  18.769   8.529   0.935
34837W        W35701  19.205   8.616   0.673
34838W        W35702  20.673   8.759   3.295
34839W        W35703  19.246   9.242   1.987
34840W        W35704  20.665   7.361   1.183
34841W        W35705  19.891  10.768   1.680
34842W        W35706  21.047  10.279   2.602
34843W        W35707  20.742  10.286   1.662
34844W        W35708  20.628   9.394   1.439
34845W        W35709  20.173   7.775   0.477
34846W        W35710  21.790   7.339   1.147
34847W        W35711  19.414   8.843   0.239
34848W        W35712  21.638   8.199   1.250
34849W        W35713  20.336   9.392   0.339
34850W        W35714  21.253   9.580   2.873
34851W        W35715  20.903  10.154   0.330
34852W        W35716  19.431   8.029   3.196
34853W        W35717  19.405   8.662   2.425
34854W        W35718  21.471  10.046   2.778
34855W        W35719  20.529   7.914   2.989
34856W        W35720  18.177   8.643   2.849
34857W        W35721  19.947   8.856   2.380
34858W        W35722  18.643   9.784   1.330
34859W        W35723  20.970   9.342   2.523
34860W        W35724  20.893  10.572   3.245
34861W        W35725  20.513   8.447   2.902
34862W        W35726  20.981  10.566   1.289
34863W        W35727  20.116  10.357   2.605
34864W        W35728  19.505  10.516   1.955
34865W        W35729  21.210   9.781   2.402
34866W        W35730  20.193   9.774   3.491
34867W        W35731  18.892   9.821   1.825
34868W        W35732  21.137   9.372   1.511
34869W        W35733  20.846  10.787   2.238
34870W        W35734  18.801  10.277   2.071
34871W        W35735  19.838   8.336   3.236
34872W        W35736  20.306  10.641   0.938
34873W        W35737  19.693   9.768   3.340
34874W        W35738  19.549  10.121   1.054
34875W        W35739  18.956   8.572   0.228
34876W        W35740  18.270  10.945   7.130
34877W        W35741  18.720   9.884   6.570
34878W        W35742  21.452   9.453   4.446
34879W        W35743  21.558  10.641   6.314
34880W        W35744  19.319  10.579   3.798
34881W        W35745  19.542   8.774   4.514
34882W        W35746  18.924   8.571   5.074
34883W        W35747  19.921   9.166   4.402
34884W        W35748  19.727  10.603   6.682
34885W        W35749  18.309   7.978   6.678
34886W        W35750  18.966   7.412   6.423
34887W        W35751  20.861   7.714   5.411
34888W        W35752  20.408   8.512   3.982
34889W        W35753  20.885   8.119   7.006
34890W        W35754  18.467   7.571   6.239
34891W        W35755  18.491  10.473   7.203
34892W        W35756  19.792   9.910   3.867
34893W        W35757  18.766   8.280   5.516
34894W        W35758  19.470   8.661   6.815
34895W        W35759  21.563   8.192   5.468
34896W        W35760  21.499   9.418   6.319
34897W        W35761  19.879   8.803   5.332
34898W        W35762  20.455  10.127   5.558
34899W        W35763  18.892   9.522   5.897
34900W        W35764  18.271   9.086   5.419
34901W        W35765  19.391   9.067   6.453
34902W        W35766  21.589   8.653   6.918
34903W        W35767  19.066  10.337   5.233
34904W        W35768  20.286   9.940   6.334
34905W        W35769  19.605   8.408   5.606
34906W        W35770  19.659   9.286   5.319
34907W        W35771  20.546  10.402   7.025
34908W        W35772  19.971   9.396   7.094
34909W        W35773  19.881   9.233   6.588
34910W        W35774  17.959   8.264   7.028
34911W        W35775  20.962  10.143   6.777
34912W        W35776  18.609   7.475   4.738
34913W        W35777  19.245   9.885   5.840
34914W        W35778  21.626   9.673   5.261
34915W        W35779  21.181   7.967   5.733
34916W        W35780  21.074   7.844   3.559
34917W        W35781  21.837   8.715   6.118
34918W        W35782  19.947  10.475   5.756
34919W        W35783  21.730   9.881   4.437
34920W        W35784  18.605  10.941   4.242
34921W        W35785  19.218  10.915   4.636
34922W        W35786  19.142   7.600   5.941
34923W        W35787  21.496   8.528   6.442
34924W        W35788  20.731   8.952   4.994
34925W        W35789  20.798   8.815   3.805
34926W        W35790  20.085   9.962   5.858
34927W        W35791  19.771   8.111   5.183
34928W        W35792  20.432  10.324   6.033
34929W        W35793  21.189   9.110   4.784
34930W        W35794  20.351   7.730   4.674
34931W        W35795  18.971  10.548   4.269
34932W        W35796  18.294   7.873   4.855
34933W        W35797  20.784   8.626   5.377
34934W        W35798  18.584  10.309   5.358
34935W        W35799  19.806  10.495   3.944
34936W        W35800  21.189   8.489   3.485
34937W        W35801  18.437  10.340   5.874
34938W        W35802  19.185   9.967   6.329
34939W        W35803  19.310   9.232   4.686
34940W        W35804  19.661   7.690   6.015
34941W        W35805  21.803   7.455   5.362
34942W        W35806  18.988   9.429   3.443
34943W        W35807  18.614   8.058   3.925
34944W        W35808  18.671  10.284   4.849
34945W        W35809  19.542   9.631   4.892
34946W        W35810  21.100  10.576   6.556
34947W        W35811  20.105   8.145   4.417
34948W        W35812  21.489  10.885   5.282
34949W        W35813  21.036   8.533   6.690
34950W        W35814  21.775  10.077   4.946
34951W        W35815  20.505   9.456   6.414
34952W        W35816  18.110   9.070   4.526
34953W        W35817  19.378   9.430   6.058
34954W        W35818  20.419   8.565   4.507
34955W        W35819  20.278   9.015   4.731
34956W        W35820  18.921   8.489   6.002
34957W        W35821  18.672   8.366   6.561
34958W        W35822  18.601   7.353   5.241
34959W        W35823  20.441   7.741   5.706
34960W        W35824  20.154   7.913   6.851
34961W        W35825  20.340   8.016   3.930
34962W        W35826  21.570  10.489   6.819
34963W        W35827  20.527   7.557   6.886
34964W        W35828  21.398  10.016   7.022
34965W        W35829  21.084   7.779   6.658
34966W        W35830  20.758   7.912   4.938
34967W        W35831  21.223   8.991   7.083
34968W        W35832  18.832  10.751   4.991
34969W        W35833  19.718   8.236   4.093
34970W        W35834  19.150   7.658   6.854
34971W        W35835  21.069   8.203   4.600
34972W        W35836  21.332   8.647   4.474
34973W        W35837  19.262  10.777   6.887
34974W        W35838  19.137   7.338   4.186
34975W        W35839  21.366   7.763   5.251
34976W        W35840  21.738  10.135   3.664
34977W        W35841  18.615   9.474   5.462
34978W        W35842  20.549   7.839   3.496
34979W        W35843  21.707  10.216   5.453
34980W        W35844  21.643   7.410   6.145
34981W        W35845  20.329   8.657   6.683
34982W        W35846  19.761   9.674   4.397
34983W        W35847  20.826   9.151   7.401
34984W        W35848  20.476   7.242   5.550
34985W        W35849  19.227   8.216   5.289
34986W        W35850  18.498   9.496   6.222
34987W        W35851  20.209  10.423   4.861
34988W        W35852  21.473   8.347   5.968
34989W        W35853  20.234  10.730   6.403
34990W        W35854  21.209   9.334   3.776
34991W        W35855  19.770   9.050   4.887
34992W        W35856  21.769   7.360   6.644
34993W        W35857  20.076   9.505   6.125
34994W        W35858  20.115   8.379   5.485
34995W        W35859  20.878   8.542   4.236
34996W        W35860  21.293   8.309   3.979
34997W        W35861  21.437  10.271   4.587
34998W        W35862  20.753   9.758   5.371
34999W        W35863  20.735   8.989   4.492
35000W        W35864  20.195   9.198   5.209
35001W        W35865  21.138   9.004   5.313
35002W        W35866  18.800   7.973   5.937
35003W        W35867  21.255   8.988   6.551
35004W        W35868  21.669  10.673   5.741
35005W        W35869  19.522  10.147   5.120
35006W        W35870  20.725  10.772   6.215
35007W        W35871  20.745   7.926   6.085
35008W        W35872  19.764  10.780   6.188
35009W        W35873  21.325   7.768   4.703
35010W        W35874  21.397   8.989   6.043
35011W        W35875  18.371   8.101   6.187
35012W        W35876  21.060   8.198   5.278
35013W        W35877  21.383   8.183   6.832
35014W        W35878  20.352   9.897   5.087
35015W        W35879  19.700  10.501   4.796
35016W        W35880  18.658   7.562   4.113
35017W        W35881  20.026   7.414   5.752
35018W        W35882  18.825  10.763   3.776
35019W        W35883  19.457   9.192   4.184
35020W        W35884  19.976   9.726   6.660
35021W        W35885  19.856   7.801   4.762
35022W        W35886  21.027   7.474   4.980
35023W        W35887  20.958  10.867   5.363
35024W        W35888  20.374  10.583   5.342
35025W        W35889  19.729   9.580   5.731
35026W        W35890  21.449  10.261   5.965
35027W        W35891  19.055   7.657   4.580
35028W        W35892  19.654  10.067   5.617
35029W        W35893  19.060   7.995   3.582
35030W        W35894  20.001   8.679   5.909
35031W        W35895  20.865   7.450   5.866
35032W        W35896  18.191   9.473   5.773
35033W        W35897  19.883   9.052   3.891
35034W        W35898  19.164   7.492   3.693
35035W        W35899  19.962   8.581   4.753
35036W        W35900  20.743   7.518   6.399
35037W        W35901  19.484   9.588   6.546
35038W        W35902  20.361   9.155   6.807
35039W        W35903  20.880   9.283   6.779
35040W        W35904  20.109   7.547   7.236
35041W        W35905  19.458   7.865   5.569
35042W        W35906  18.815   7.924   4.977
35043W        W35907  18.368  10.661   4.611
35044W        W35908  20.120  10.265   6.735
35045W        W35909  18.822   9.758   3.989
35046W        W35910  20.681   9.246   5.417
35047W        W35911  20.941   8.982   5.788
35048W        W35912  20.025   9.175   5.700
35049W        W35913  20.697   9.727   3.690
35050W        W35914  20.191   7.769   5.216
35051W        W35915  21.565   8.153   4.439
35052W        W35916  18.384  10.725   6.671
35053W        W35917  18.734   9.976   6.054
35054W        W35918  18.103  10.786   4.142
35055W        W35919  20.339   8.233   5.931
35056W        W35920  19.372  10.148   4.102
35057W        W35921  21.349  10.328   3.989
35058W        W35922  20.353   8.986   4.154
35059W        W35923  19.611   8.230   4.615
35060W        W35924  19.915   8.041   3.645
35061W        W35925  20.496   9.896   6.811
35062W        W35926  20.844   7.637   4.502
35063W        W35927  18.315   7.257   3.900
35064W        W35928  19.681   9.862   6.157
35065W        W35929  19.360   9.717   5.363
35066W        W35930  19.284   9.883   3.661
35067W        W35931  18.068  10.326   4.359
35068W        W35932  19.019   9.060   6.795
35069W        W35933  19.594   7.478   7.095
35070W        W35934  20.237   7.777   6.186
35071W        W35935  19.486   7.379   4.750
35072W        W35936  20.393   7.540   4.194
35073W        W35937  18.605   7.521   5.753
35074W        W35938  18.471   8.304   5.090
35075W        W35939  21.401   7.483   5.690
35076W        W35940  18.627   7.926   4.461
35077W        W35941  21.206   7.681   6.149
35078W        W35942  21.307   8.821   3.852
35079W        W35943  18.958   7.791   5.464
35080W        W35944  20.146   8.237   6.436
35081W        W35945  18.195   7.753   3.910
35082W        W35946  19.004   9.466   6.404
35083W        W35947  20.371   8.851   5.559
35084W        W35948  20.271  10.730   3.893
35085W        W35949  18.428   9.607   3.643
35086W        W35950  19.166  10.076   6.820
35087W        W35951  18.738   9.028   6.344
35088W        W35952  19.758   9.092   6.116
35089W        W35953  21.258   7.307   6.484
35090W        W35954  21.781   9.038   6.539
35091W        W35955  21.642   9.154   4.078
35092W        W35956  20.409   9.419   4.432
35093W        W35957  21.197  10.794   3.749
35094W        W35958  20.342   8.938   7.288
35095W        W35959  18.752   9.982   7.113
35096W        W35960  21.910   7.778   7.212
35097W        W35961  21.252   8.596   5.592
35098W        W35962  19.690  10.823   7.162
35099W        W35963  19.615   7.362   3.982
35100W        W35964  21.194   9.934   3.684
35101W        W35965  19.151   8.170   6.728
35102W        W35966  19.627  10.108   6.604
35103W        W35967  21.571   7.852   6.450
35104W        W35968  21.157  10.667   4.384
35105W        W35969  20.990   9.512   5.750
35106W        W35970  19.316   7.810   6.388
35107W        W35971  19.928   8.889   6.968
35108W        W35972  18.913  10.058   4.427
35109W        W35973  20.936   9.488   4.540
35110W        W35974  18.803   7.890   6.456
35111W        W35975  19.916   9.996   4.823
35112W        W35976  21.606   8.649   5.199
35113W        W35977  20.034   7.402   6.745
35114W        W35978  20.982  10.055   5.712
35115W        W35979  21.252  10.462   5.522
35116W        W35980  20.154  10.276   3.619
35117W        W35981  18.345  10.121   6.845
35118W        W35982  19.308   8.133   5.982
35119W        W35983  19.060   7.467   5.058
35120W        W35984  20.838   8.345   5.801
35121W        W35985  19.541   9.443   3.741
35122W        W35986  21.438   9.305   5.622
35123W        W35987  18.779  10.400   6.702
35124W        W35988  21.411  10.960   4.736
35125W        W35989  19.368   7.869   4.934
35126W        W35990  18.997   9.439   5.099
35127W        W35991  19.318  10.820   5.936
35128W        W35992  21.347  10.956   6.871
35129W        W35993  20.514   9.261   5.915
35130W        W35994  18.517   8.591   3.690
35131W        W35995  21.750  10.601   4.853
35132W        W35996  21.212   7.849   4.207
35133W        W35997  19.511   7.373   6.604
35134W        W35998  21.244  10.017   5.253
35135W        W35999  21.158   8.622   4.967
35136W        W36000  19.528   8.554   5.036
35137W        W36001  19.857   8.709   6.461
35138W        W36002  20.785   9.883   6.383
35139W        W36003  19.587   8.267   6.485
35140W        W36004  19.357  10.731   5.095
35141W        W36005  18.773  10.856   6.993
35142W        W36006  18.923  10.245   3.846
35143W        W36007  21.366   9.790   4.807
35144W        W36008  19.099   8.642   6.461
35145W        W36009  21.521   8.092   3.512
35146W        W36010  19.235   9.652   4.354
35147W        W36011  20.726   8.916   6.460
35148W        W36012  20.546   8.729   6.005
35149W        W36013  19.121   8.985   6.001
35150W        W36014  21.184  10.745   5.953
35151W        W36015  21.006   7.583   7.124
35152W        W36016  18.556   7.510   6.753
35153W        W36017  19.133   8.671   5.554
35154W        W36018  19.478   8.340   3.614
35155W        W36019  18.381  10.302   6.371
35156W        W36020  19.547   8.939   5.687
35157W        W36021  19.488   7.856   3.849
35158W        W36022  18.850   9.019   4.811
35159W        W36023  18.401  10.798   6.148
35160W        W36024  21.165   9.083   4.256
35161W        W36025  21.502   7.697   6.932
35162W        W36026  20.867   9.890   4.892
35163W        W36027  18.548   8.824   6.777
35164W        W36028  21.391   7.381   4.055
35165W        W36029  21.214   9.892   4.291
35166W        W36030  19.974   8.656   4.243
35167W        W36031  20.782   7.760   3.963
35168W        W36032  21.141   8.162   6.327
35169W        W36033  18.781   9.005   5.328
35170W        W36034  19.081   9.920   4.926
35171W        W36035  20.708   8.413   4.902
35172W        W36036  19.960   7.916   5.644
35173W        W36037  21.745   9.851   6.129
35174W        W36038  21.685   7.877   5.907
35175W        W36039  18.322  10.697   5.135
35176W        W36040  18.388   9.955   4.574
35177W        W36041  18.628   7.482   7.268
35178W        W36042  19.519  10.334   7.089
35179W        W36043  21.578   9.174   5.130
35180W        W36044  20.756   9.304   4.047
35181W        W36045  20.352  10.785   5.829
35182W        W36046  21.135   9.534   7.153
35183W        W36047  19.896   7.372   4.423
35184W        W36048  20.551   8.145   5.369
35185W        W36049  18.371   9.918   5.597
35186W        W36050  19.512   7.745   4.367
35187W        W36051  19.499   9.245   6.936
35188W        W36052  20.245   8.180   4.919
35189W        W36053  20.581   9.784   5.929
35190W        W36054  18.832  10.487   6.190
35191W        W36055  19.008  10.429   7.154
35192W        W36056  19.060   7.864   4.106
35193W        W36057  20.620   8.090   4.366
35194W        W36058  20.587  10.364   6.516
35195W        W36059  19.277   8.984   5.148
35196W        W36060  18.846  11.001   5.952
35197W        W36061  21.707  10.677   3.765
35198W        W36062  18.616   9.391   6.732
35199W        W36063  20.291   9.593   5.547
35200W        W36064  18.784   9.581   4.637
35201W        W36065  19.471  10.328   6.032
35202W        W36066  19.697   7.576   5.216
35203W        W36067  18.307   9.944   4.052
35204W        W36068  19.958   8.546   3.725
35205W        W36069  18.471   9.314   4.983
35206W        W36070  19.820   7.799   6.484
35207W        W36071  21.533   7.590   3.604
35208W        W36072  21.506   9.353   6.845
35209W        W36073  20.172  10.784   6.914
35210W        W36074  21.709   9.776   6.630
35211W        W36075  21.065  10.557   7.066
35212W        W36076  19.020  10.814   5.483
35213W        W36077  21.829   9.530   4.825
35214W        W36078  20.319   8.662   5.100
35215W        W36079  20.050   7.349   4.918
35216W        W36080  19.159  10.420   4.735
35217W        W36081  19.823   8.198   6.040
35218W        W36082  19.519   7.357   5.649
35219W        W36083  18.495  10.444   4.088
35220W        W36084  20.050   9.494   4.817
35221W        W36085  19.260  10.476   6.478
35222W        W36086  18.384   9.489   4.288
35223W        W36087  18.448   7.845   5.365
35224W        W36088  19.885   9.737   5.267
35225W        W36089  18.201   7.522   4.407
35226W        W36090  21.060   8.642   6.165
35227W        W36091  20.803   8.254   3.772
35228W        W36092  21.447   9.823   5.696
35229W        W36093  20.008  10.229   5.296
35230W        W36094  19.488  10.598   4.333
35231W        W36095  20.563   7.358   3.693
35232W        W36096  18.525  10.748   5.611
35233W        W36097  20.415   8.389   7.119
35234W        W36098  18.733   7.947   6.965
35235W        W36099  18.474   8.407   4.582
35236W        W36100  19.520   8.705   3.981
35237W        W36101  20.740   8.805   6.999
35238W        W36102  19.177   9.275   5.564
35239W        W36103  20.541   7.429   5.076
35240W        W36104  19.858  10.720   5.272
35241W        W36105  20.962  10.303   6.152
35242W        W36106  20.818  10.304   5.245
35243W        W36107  20.582   9.443   4.941
35244W        W36108  19.938   7.755   4.086
35245W        W36109  21.517   7.356   4.950
35246W        W36110  19.262   8.987   3.621
35247W        W36111  21.460   8.198   4.955
35248W        W36112  20.287   9.399   3.840
35249W        W36113  21.182   9.688   6.642
35250W        W36114  20.887  10.376   3.724
35251W        W36115  19.602   7.961   6.925
35252W        W36116  19.488   8.620   6.096
35253W        W36117  21.376  10.147   6.470
35254W        W36118  20.593   7.967   6.595
35255W        W36119  18.152   8.464   6.582
35256W        W36120  20.240   9.018   6.291
35257W        W36121  18.592   9.814   5.066
35258W        W36122  18.621   9.096   5.830
35259W        W36123  20.983   9.323   6.237
35260W        W36124  20.715  10.860   6.751
35261W        W36125  20.655   8.391   6.351
35262W        W36126  21.249  10.512   5.007
35263W        W36127  19.947  10.309   6.248
35264W        W36128  19.459  10.524   5.543
35265W        W36129  21.206   9.804   6.130
35266W        W36130  20.076   9.913   7.129
35267W        W36131  18.890   9.902   5.475
35268W        W36132  21.134   9.491   5.164
35269W        W36133  20.775  10.536   5.714
35270W        W36134  18.990  10.348   5.736
35271W        W36135  19.920   8.381   6.890
35272W        W36136  19.875  10.232   4.369
35273W        W36137  19.582   9.789   7.012
35274W        W36138  19.458  10.050   4.598
35275W        W36139  18.988   8.501   3.478
35276W        W36140  18.343  10.863  10.656
35277W        W36141  18.618   9.770  10.135
35278W        W36142  21.558   9.366   8.262
35279W        W36143  21.596  10.630  10.049
35280W        W36144  19.294  10.652   7.497
35281W        W36145  19.720   8.795   8.260
35282W        W36146  19.039   8.921   9.096
35283W        W36147  20.053   9.186   8.170
35284W        W36148  19.778  10.563  10.379
35285W        W36149  18.253   7.981  10.251
35286W        W36150  18.938   7.149  10.159
35287W        W36151  20.907   7.726   9.104
35288W        W36152  20.353   8.272   7.622
35289W        W36153  20.993   8.210  10.607
35290W        W36154  18.352   7.682   9.826
35291W        W36155  18.520  10.440  10.840
35292W        W36156  19.709  10.028   7.483
35293W        W36157  18.265   8.451   9.331
35294W        W36158  19.442   8.523  10.315
35295W        W36159  21.685   8.312   9.109
35296W        W36160  21.569   9.377   9.890
35297W        W36161  20.058   8.618   9.123
35298W        W36162  20.485  10.143   9.380
35299W        W36163  18.989   9.338   9.399
35300W        W36164  18.114   8.935   9.263
35301W        W36165  19.461   9.037  10.290
35302W        W36166  21.586   8.839  10.532
35303W        W36167  19.131  10.112   8.965
35304W        W36168  20.261  10.002  10.030
35305W        W36169  19.595   8.572   9.307
35306W        W36170  19.793   9.350   8.985
35307W        W36171  20.559  10.230  10.835
35308W        W36172  19.890   9.357  10.790
35309W        W36173  20.006   9.195  10.312
35310W        W36174  18.323   8.317  10.643
35311W        W36175  21.007  10.032  10.596
35312W        W36176  18.689   7.477   8.392
35313W        W36177  19.247   9.801   9.434
35314W        W36178  21.751   9.765   9.005
35315W        W36179  21.369   7.933   9.239
35316W        W36180  21.281   7.971   7.331
35317W        W36181  22.001   8.911   9.788
35318W        W36182  19.655  10.671   9.557
35319W        W36183  21.858   9.828   8.341
35320W        W36184  18.686  10.931   8.012
35321W        W36185  18.992  10.847   8.420
35322W        W36186  18.973   7.512   9.773
35323W        W36187  21.471   8.823   9.992
35324W        W36188  20.869   9.039   8.652
35325W        W36189  20.711   8.649   7.532
35326W        W36190  20.047   9.921   9.552
35327W        W36191  20.166   8.124   8.953
35328W        W36192  20.576  10.366   9.840
35329W        W36193  21.214   8.969   8.237
35330W        W36194  20.494   7.680   8.285
35331W        W36195  18.864  10.450   8.100
35332W        W36196  18.292   7.861   8.499
35333W        W36197  20.871   8.647   8.998
35334W        W36198  18.575  10.207   9.061
35335W        W36199  19.748  10.521   7.695
35336W        W36200  21.161   8.499   7.218
35337W        W36201  18.421  10.234   9.569
35338W        W36202  19.099   9.877   9.957
35339W        W36203  19.635   9.246   8.510
35340W        W36204  19.328   7.745   9.453
35341W        W36205  21.744   7.578   9.123
35342W        W36206  19.089   9.582   6.908
35343W        W36207  18.677   7.952   7.485
35344W        W36208  18.726  10.188   8.558
35345W        W36209  19.440   9.880   8.602
35346W        W36210  21.149  10.530  10.335
35347W        W36211  20.211   8.063   8.071
35348W        W36212  21.286  10.904   9.011
35349W        W36213  21.113   8.709  10.418
35350W        W36214  21.910  10.211   8.715
35351W        W36215  20.464   9.445  10.128
35352W        W36216  18.358   9.035   8.612
35353W        W36217  19.304   9.429   9.796
35354W        W36218  20.527   8.491   8.051
35355W        W36219  20.440   8.889   8.364
35356W        W36220  18.629   8.433   9.714
35357W        W36221  18.652   8.374  10.242
35358W        W36222  18.716   7.333   8.902
35359W        W36223  20.465   7.860   9.338
35360W        W36224  20.095   7.910  10.395
35361W        W36225  20.542   7.801   7.771
35362W        W36226  21.621  10.508  10.587
35363W        W36227  20.467   7.498  10.410
35364W        W36228  21.517   9.954  10.690
35365W        W36229  21.088   8.026  10.145
35366W        W36230  20.932   7.885   8.587
35367W        W36231  21.222   9.067  10.816
35368W        W36232  18.889  10.589   8.880
35369W        W36233  19.829   8.216   7.757
35370W        W36234  19.059   7.612  10.399
35371W        W36235  21.238   8.237   8.360
35372W        W36236  21.524   8.583   8.106
35373W        W36237  19.320  10.786  10.787
35374W        W36238  19.165   7.347   7.865
35375W        W36239  21.619   7.930   8.783
35376W        W36240  21.725  10.217   7.401
35377W        W36241  18.487   9.362   9.401
35378W        W36242  20.508   7.893   7.273
35379W        W36243  21.755  10.244   9.210
35380W        W36244  21.651   7.530   9.731
35381W        W36245  20.270   8.717  10.460
35382W        W36246  19.782   9.667   8.254
35383W        W36247  20.746   9.204  10.954
35384W        W36248  20.449   7.356   9.180
35385W        W36249  18.772   8.335   9.184
35386W        W36250  18.772   9.346   9.856
35387W        W36251  20.096  10.465   8.680
35388W        W36252  21.565   8.387   9.727
35389W        W36253  20.258  10.658  10.150
35390W        W36254  21.484   9.267   7.433
35391W        W36255  20.014   8.924   8.678
35392W        W36256  21.792   7.531  10.251
35393W        W36257  20.005   9.553   9.913
35394W        W36258  20.451   8.382   9.372
35395W        W36259  21.028   8.513   7.978
35396W        W36260  21.386   8.363   7.654
35397W        W36261  21.539  10.238   8.354
35398W        W36262  20.926  10.053   9.110
35399W        W36263  20.779   8.965   7.961
35400W        W36264  20.295   9.211   9.006
35401W        W36265  21.242   8.974   9.135
35402W        W36266  18.482   7.989   9.432
35403W        W36267  21.271   9.180  10.300
35404W        W36268  21.711  10.686   9.508
35405W        W36269  19.596  10.320   8.865
35406W        W36270  20.760  10.798  10.083
35407W        W36271  20.616   8.109   9.824
35408W        W36272  19.831  10.878   9.981
35409W        W36273  21.416   7.755   8.356
35410W        W36274  21.208   9.131   9.630
35411W        W36275  18.173   8.209   9.783
35412W        W36276  21.197   8.240   8.871
35413W        W36277  21.482   8.359  10.320
35414W        W36278  20.463  10.044   8.857
35415W        W36279  19.666  10.639   8.461
35416W        W36280  18.687   7.538   7.810
35417W        W36281  20.062   7.562   9.473
35418W        W36282  18.776  10.811   7.507
35419W        W36283  19.592   9.233   7.948
35420W        W36284  20.047   9.704  10.396
35421W        W36285  20.051   7.835   8.513
35422W        W36286  21.273   7.552   8.809
35423W        W36287  20.793  11.030   9.164
35424W        W36288  20.182  10.589   9.502
35425W        W36289  19.705   9.509   9.468
35426W        W36290  21.559  10.244   9.704
35427W        W36291  19.121   7.715   8.256
35428W        W36292  19.596  10.193   9.427
35429W        W36293  19.159   8.009   7.236
35430W        W36294  20.018   8.593   9.653
35431W        W36295  20.826   7.458   9.533
35432W        W36296  18.281   9.258   9.858
35433W        W36297  19.907   9.086   7.533
35434W        W36298  19.142   7.487   7.359
35435W        W36299  20.111   8.486   8.365
35436W        W36300  20.781   7.637  10.004
35437W        W36301  19.584   9.548  10.232
35438W        W36302  20.378   9.394  10.640
35439W        W36303  20.859   9.476  10.481
35440W        W36304  20.167   7.599  10.814
35441W        W36305  19.287   8.172   9.151
35442W        W36306  18.793   7.918   8.649
35443W        W36307  18.515  10.700   8.531
35444W        W36308  20.151  10.220  10.484
35445W        W36309  18.962   9.811   7.760
35446W        W36310  20.785   9.182   9.159
35447W        W36311  20.877   8.768   9.489
35448W        W36312  20.232   9.418   9.480
35449W        W36313  20.897   9.988   7.250
35450W        W36314  20.487   7.724   8.806
35451W        W36315  21.698   8.114   8.149
35452W        W36316  18.511  10.599  10.258
35453W        W36317  18.699   9.800   9.631
35454W        W36318  18.209  10.959   8.188
35455W        W36319  20.108   8.079   9.667
35456W        W36320  19.296  10.229   7.783
35457W        W36321  21.739  10.073   7.893
35458W        W36322  20.369   9.189   7.750
35459W        W36323  19.719   8.147   8.275
35460W        W36324  20.006   8.061   7.304
35461W        W36325  20.530   9.865  10.453
35462W        W36326  20.977   7.590   8.152
35463W        W36327  18.270   7.245   7.562
35464W        W36328  19.602   9.870   9.822
35465W        W36329  19.638   9.845   9.072
35466W        W36330  19.218   9.972   7.335
35467W        W36331  18.337  10.366   8.210
35468W        W36332  18.977   8.772  10.331
35469W        W36333  19.667   7.463  10.788
35470W        W36334  20.255   7.662   9.958
35471W        W36335  19.686   7.432   8.577
35472W        W36336  20.557   7.314   7.910
35473W        W36337  18.598   7.479   9.406
35474W        W36338  18.364   8.234   8.871
35475W        W36339  21.309   7.433   9.337
35476W        W36340  18.564   7.944   8.080
35477W        W36341  21.188   7.800   9.695
35478W        W36342  21.633   8.742   7.424
35479W        W36343  18.913   7.798   9.149
35480W        W36344  20.233   8.321  10.116
35481W        W36345  18.232   7.751   7.690
35482W        W36346  19.076   9.402  10.255
35483W        W36347  20.396   8.895   9.390
35484W        W36348  20.104  10.888   7.454
35485W        W36349  18.377   9.170   7.138
35486W        W36350  19.241   9.913  10.456
35487W        W36351  18.570   8.855  10.021
35488W        W36352  19.716   9.138   9.856
35489W        W36353  21.288   7.515  10.111
35490W        W36354  21.855   9.143  10.226
35491W        W36355  21.625   9.027   7.880
35492W        W36356  20.553   9.367   8.235
35493W        W36357  20.989  11.069   7.215
35494W        W36358  20.310   8.948  10.905
35495W        W36359  18.674   9.981  10.975
35496W        W36360  21.911   7.895  10.661
35497W        W36361  21.270   8.497   9.318
35498W        W36362  19.823  10.771  10.841
35499W        W36363  19.639   7.329   7.598
35500W        W36364  21.383   9.805   7.531
35501W        W36365  19.105   8.136  10.402
35502W        W36366  19.692  10.074  10.279
35503W        W36367  21.589   7.951  10.014
35504W        W36368  21.583  10.563   7.790
35505W        W36369  21.025   9.582   9.483
35506W        W36370  19.274   7.886   9.989
35507W        W36371  19.806   8.854  10.672
35508W        W36372  19.096   9.997   8.220
35509W        W36373  21.055   9.447   8.390
35510W        W36374  18.759   7.922  10.037
35511W        W36375  19.946   9.971   8.661
35512W        W36376  21.699   8.803   8.955
35513W        W36377  19.938   7.424  10.355
35514W        W36378  20.967  10.102   9.604
35515W        W36379  21.281  10.445   9.309
35516W        W36380  20.008  10.414   7.234
35517W        W36381  18.346   9.956  10.555
35518W        W36382  18.969   8.067   9.589
35519W        W36383  19.186   7.556   8.774
35520W        W36384  20.919   8.148   9.416
35521W        W36385  19.557   9.472   7.423
35522W        W36386  21.498   9.400   9.289
35523W        W36387  18.790  10.192  10.449
35524W        W36388  21.310  10.931   8.447
35525W        W36389  19.611   7.898   8.801
35526W        W36390  19.284   9.481   9.010
35527W        W36391  19.387  11.056   9.777
35528W        W36392  21.330  10.924  10.626
35529W        W36393  20.672   9.229   9.662
35530W        W36394  18.451   8.375   7.033
35531W        W36395  21.585  10.598   8.736
35532W        W36396  21.253   7.959   7.909
35533W        W36397  19.456   7.405  10.120
35534W        W36398  21.373  10.154   8.869
35535W        W36399  21.275   8.709   8.672
35536W        W36400  19.762   8.421   8.752
35537W        W36401  19.887   8.726  10.137
35538W        W36402  20.897   9.976  10.096
35539W        W36403  19.740   8.190  10.061
35540W        W36404  19.357  10.816   8.811
35541W        W36405  18.851  10.751  10.598
35542W        W36406  18.819  10.285   7.596
35543W        W36407  21.438   9.724   8.607
35544W        W36408  19.089   8.400   9.963
35545W        W36409  21.884   8.405   7.752
35546W        W36410  19.470   9.756   7.858
35547W        W36411  20.664   9.021  10.411
35548W        W36412  20.518   8.634   9.824
35549W        W36413  19.091   8.951   9.863
35550W        W36414  21.181  10.949   9.532
35551W        W36415  20.971   7.635  10.499
35552W        W36416  18.561   7.503  10.287
35553W        W36417  19.108   8.580   9.486
35554W        W36418  19.555   8.343   7.275
35555W        W36419  18.293  10.165  10.077
35556W        W36420  19.904   9.030   9.380
35557W        W36421  19.579   7.831   7.471
35558W        W36422  19.118   9.179   8.635
35559W        W36423  18.494  10.818   9.805
35560W        W36424  21.186   8.862   7.635
35561W        W36425  21.425   7.870  10.513
35562W        W36426  20.956   9.920   8.614
35563W        W36427  18.479   8.795  10.534
35564W        W36428  21.451   7.483   7.914
35565W        W36429  21.345   9.804   8.097
35566W        W36430  20.123   8.741   7.882
35567W        W36431  21.002   7.603   7.636
35568W        W36432  21.055   8.441   9.849
35569W        W36433  18.541   8.781   9.025
35570W        W36434  18.963   9.715   8.658
35571W        W36435  20.832   8.529   8.474
35572W        W36436  19.778   7.959   9.284
35573W        W36437  21.847   9.819   9.748
35574W        W36438  21.810   7.971   9.516
35575W        W36439  18.255  10.644   8.966
35576W        W36440  18.379   9.861   8.275
35577W        W36441  18.622   7.586  10.920
35578W        W36442  19.555  10.312  10.793
35579W        W36443  21.400   9.216   8.724
35580W        W36444  21.197   9.343   7.867
35581W        W36445  20.498  10.993   9.623
35582W        W36446  21.197   9.583  10.829
35583W        W36447  19.906   7.316   8.094
35584W        W36448  20.689   8.173   8.959
35585W        W36449  18.301   9.807   9.258
35586W        W36450  19.573   7.700   7.986
35587W        W36451  19.366   9.412  10.686
35588W        W36452  20.472   8.151   8.503
35589W        W36453  20.586   9.751   9.724
35590W        W36454  18.799  10.309   9.936
35591W        W36455  19.046  10.354  10.877
35592W        W36456  19.121   7.846   7.741
35593W        W36457  20.800   8.073   8.119
35594W        W36458  20.647  10.364  10.351
35595W        W36459  19.541   8.913   8.924
35596W        W36460  19.032  10.690   9.648
35597W        W36461  21.524  10.688   7.294
35598W        W36462  18.533   9.287  10.327
35599W        W36463  20.609   9.662   9.215
35600W        W36464  19.263   9.515   8.267
35601W        W36465  19.357  10.342   9.876
35602W        W36466  20.029   7.599   8.967
35603W        W36467  17.987   9.564   7.972
35604W        W36468  19.993   8.579   7.391
35605W        W36469  18.707   9.298   8.931
35606W        W36470  19.727   7.740   9.808
35607W        W36471  21.476   7.503   7.403
35608W        W36472  21.636   9.391  10.614
35609W        W36473  20.308  10.690  10.669
35610W        W36474  21.808   9.734  10.258
35611W        W36475  21.174  10.458  10.854
35612W        W36476  18.990  11.020   9.248
35613W        W36477  21.888   9.412   8.658
35614W        W36478  20.416   8.586   8.780
35615W        W36479  20.218   7.334   8.554
35616W        W36480  19.215  10.391   8.519
35617W        W36481  19.474   8.198   9.633
35618W        W36482  19.586   7.445   9.133
35619W        W36483  18.386  10.527   7.726
35620W        W36484  20.127   9.469   8.597
35621W        W36485  19.248  10.450  10.381
35622W        W36486  18.634   9.417   8.408
35623W        W36487  18.433   7.751   8.981
35624W        W36488  20.131   9.718   9.076
35625W        W36489  18.241   7.501   8.142
35626W        W36490  20.925   8.920   9.992
35627W        W36491  20.877   8.160   7.587
35628W        W36492  21.381   9.915   9.331
35629W        W36493  20.029  10.229   9.136
35630W        W36494  19.365  10.657   8.054
35631W        W36495  20.596   7.362   7.375
35632W        W36496  18.631  10.653   9.327
35633W        W36497  20.400   8.277  10.687
35634W        W36498  18.657   7.939  10.550
35635W        W36499  18.375   8.368   8.365
35636W        W36500  19.627   8.698   7.755
35637W        W36501  20.739   8.673  10.784
35638W        W36502  19.402   9.045   9.443
35639W        W36503  20.809   7.376   8.600
35640W        W36504  19.837  10.726   9.067
35641W        W36505  21.134  10.527   9.827
35642W        W36506  20.451  10.544   9.046
35643W        W36507  20.640   9.507   8.732
35644W        W36508  20.030   7.704   7.723
35645W        W36509  21.758   7.449   8.611
35646W        W36510  19.515   8.867   7.283
35647W        W36511  21.668   8.398   8.598
35648W        W36512  19.956   9.556   7.760
35649W        W36513  21.296   9.681  10.323
35650W        W36514  21.231  10.302   7.488
35651W        W36515  19.564   7.851  10.441
35652W        W36516  19.512   8.670   9.811
35653W        W36517  21.453  10.149  10.211
35654W        W36518  20.599   7.984  10.323
35655W        W36519  18.168   8.515  10.206
35656W        W36520  20.221   9.052   9.861
35657W        W36521  18.457   9.747   8.774
35658W        W36522  18.686   8.906   9.513
35659W        W36523  20.978   9.463   9.983
35660W        W36524  20.821  10.791  10.616
35661W        W36525  20.697   8.480  10.272
35662W        W36526  20.956  10.527   8.909
35663W        W36527  19.898  10.342   9.879
35664W        W36528  19.279  10.549   9.227
35665W        W36529  21.326   9.815   9.834
35666W        W36530  20.182   9.835  10.872
35667W        W36531  18.815   9.752   9.147
35668W        W36532  21.104   9.567   8.975
35669W        W36533  20.795  10.581   9.427
35670W        W36534  18.940  10.219   9.441
35671W        W36535  19.893   8.371  10.515
35672W        W36536  20.026  10.474   8.142
35673W        W36537  19.680   9.822  10.733
35674W        W36538  19.595  10.178   8.207
35675W        W36539  18.959   8.564   6.977
35676W        W36540  18.299  11.015  14.375
35677W        W36541  18.620   9.886  13.840
35678W        W36542  21.519   9.390  11.616
35679W        W36543  21.700  10.579  13.674
35680W        W36544  19.208  10.693  11.271
35681W        W36545  19.766   8.947  12.066
35682W        W36546  19.004   8.648  12.594
35683W        W36547  20.101   9.311  11.661
35684W        W36548  19.721  10.582  13.872
35685W        W36549  18.282   7.840  14.006
35686W        W36550  19.056   7.193  13.821
35687W        W36551  20.879   7.765  12.697
35688W        W36552  20.476   8.592  11.262
35689W        W36553  20.896   8.269  14.287
35690W        W36554  18.397   7.685  13.530
35691W        W36555  18.445  10.519  14.455
35692W        W36556  19.706  10.007  11.221
35693W        W36557  18.294   8.529  13.106
35694W        W36558  19.448   8.551  14.034
35695W        W36559  21.585   8.374  12.686
35696W        W36560  21.502   9.451  13.349
35697W        W36561  19.979   8.770  12.513
35698W        W36562  20.533  10.130  12.918
35699W        W36563  18.754   9.330  13.183
35700W        W36564  18.121   8.984  12.921
35701W        W36565  19.407   8.989  13.755
35702W        W36566  21.625   8.819  14.179
35703W        W36567  19.143  10.128  12.606
35704W        W36568  20.328   9.922  13.603
35705W        W36569  19.591   8.492  12.839
35706W        W36570  19.793   9.226  12.637
35707W        W36571  20.504  10.161  14.369
35708W        W36572  19.998   9.379  14.338
35709W        W36573  19.907   9.183  13.847
35710W        W36574  17.870   8.230  14.310
35711W        W36575  21.041  10.101  14.116
35712W        W36576  18.680   7.574  12.136
35713W        W36577  19.378   9.944  13.014
35714W        W36578  21.757   9.736  12.624
35715W        W36579  21.155   8.260  12.974
35716W        W36580  21.551   8.147  10.942
35717W        W36581  22.025   8.746  13.308
35718W        W36582  19.830  10.642  13.101
35719W        W36583  21.641   9.927  11.661
35720W        W36584  18.618  10.794  11.575
35721W        W36585  19.122  10.870  12.089
35722W        W36586  18.886   7.558  13.390
35723W        W36587  21.279   8.360  13.563
35724W        W36588  20.827   8.937  12.162
35725W        W36589  20.942   8.815  11.250
35726W        W36590  20.210   9.798  13.111
35727W        W36591  20.050   8.052  12.391
35728W        W36592  20.522  10.372  13.377
35729W        W36593  21.438   9.005  11.954
35730W        W36594  20.289   7.794  11.612
35731W        W36595  19.031  10.519  11.724
35732W        W36596  18.324   7.950  12.159
35733W        W36597  20.914   8.541  12.617
35734W        W36598  18.617  10.210  12.716
35735W        W36599  19.675  10.513  11.272
35736W        W36600  21.260   8.564  10.887
35737W        W36601  18.458  10.290  13.211
35738W        W36602  19.203   9.886  13.490
35739W        W36603  19.418   9.331  12.289
35740W        W36604  19.291   7.735  13.079
35741W        W36605  21.841   7.429  12.835
35742W        W36606  18.812   9.668  10.603
35743W        W36607  18.539   8.095  11.049
35744W        W36608  18.789  10.184  12.237
35745W        W36609  19.467   9.789  12.054
35746W        W36610  21.259  10.563  13.935
35747W        W36611  20.235   8.306  11.605
35748W        W36612  21.369  10.873  12.485
35749W        W36613  21.174   8.664  13.976
35750W        W36614  21.903  10.172  12.390
35751W        W36615  20.508   9.419  13.649
35752W        W36616  18.274   8.996  12.047
35753W        W36617  19.257   9.458  13.171
35754W        W36618  20.550   8.671  11.798
35755W        W36619  20.581   9.374  11.915
35756W        W36620  18.721   8.548  13.408
35757W        W36621  18.807   8.451  13.926
35758W        W36622  18.597   7.376  12.591
35759W        W36623  20.248   7.860  12.846
35760W        W36624  20.124   7.824  14.166
35761W        W36625  20.316   8.064  11.158
35762W        W36626  21.714  10.434  14.189
35763W        W36627  20.574   7.410  13.960
35764W        W36628  21.526   9.940  14.300
35765W        W36629  21.083   7.994  13.853
35766W        W36630  20.859   7.852  12.155
35767W        W36631  21.200   9.059  14.367
35768W        W36632  18.942  10.593  12.520
35769W        W36633  19.809   8.179  11.350
35770W        W36634  19.249   7.580  14.079
35771W        W36635  21.237   8.172  11.884
35772W        W36636  21.581   8.549  11.772
35773W        W36637  19.307  10.773  14.240
35774W        W36638  19.271   7.230  11.695
35775W        W36639  21.623   7.864  12.555
35776W        W36640  21.706  10.243  11.061
35777W        W36641  18.487   9.346  12.750
35778W        W36642  20.633   7.839  10.818
35779W        W36643  21.769  10.176  12.907
35780W        W36644  21.604   7.478  13.306
35781W        W36645  20.307   8.706  13.922
35782W        W36646  19.863   9.788  11.712
35783W        W36647  20.749   9.205  14.551
35784W        W36648  20.519   7.395  12.822
35785W        W36649  18.722   8.319  12.871
35786W        W36650  18.490   9.434  13.620
35787W        W36651  20.489  10.597  12.401
35788W        W36652  21.592   8.468  13.184
35789W        W36653  20.239  10.665  13.748
35790W        W36654  21.614   9.290  11.108
35791W        W36655  20.269   9.002  12.066
35792W        W36656  21.772   7.485  13.792
35793W        W36657  20.048   9.486  13.466
35794W        W36658  20.103   8.365  12.801
35795W        W36659  21.066   8.660  11.761
35796W        W36660  21.252   8.398  11.369
35797W        W36661  21.262  10.233  11.865
35798W        W36662  20.942   9.866  12.757
35799W        W36663  20.994   9.155  11.705
35800W        W36664  20.327   9.177  12.536
35801W        W36665  21.242   9.083  12.434
35802W        W36666  18.430   8.019  13.145
35803W        W36667  21.359   9.142  13.861
35804W        W36668  21.798  10.624  13.154
35805W        W36669  19.636  10.274  12.542
35806W        W36670  20.777  10.727  13.689
35807W        W36671  20.350   8.005  13.326
35808W        W36672  19.878  10.984  13.486
35809W        W36673  21.591   7.790  12.034
35810W        W36674  21.569   8.966  13.253
35811W        W36675  18.381   8.190  13.617
35812W        W36676  21.186   8.124  12.439
35813W        W36677  21.494   8.274  14.048
35814W        W36678  20.528   9.890  12.446
35815W        W36679  19.774  10.560  12.122
35816W        W36680  19.083   7.624  11.384
35817W        W36681  20.034   7.390  13.016
35818W        W36682  18.766  10.827  11.086
35819W        W36683  19.587   9.348  11.784
35820W        W36684  19.959   9.713  13.910
35821W        W36685  20.034   7.631  12.052
35822W        W36686  21.256   7.555  12.348
35823W        W36687  20.872  10.909  12.622
35824W        W36688  20.340  10.612  12.913
35825W        W36689  19.743   9.567  13.011
35826W        W36690  21.457  10.284  13.318
35827W        W36691  19.185   7.669  11.968
35828W        W36692  19.847  10.139  12.991
35829W        W36693  19.022   7.963  10.898
35830W        W36694  19.956   8.359  13.304
35831W        W36695  20.910   7.424  13.171
35832W        W36696  18.229   9.428  13.182
35833W        W36697  19.903   9.011  11.193
35834W        W36698  19.160   7.471  10.890
35835W        W36699  20.107   8.501  12.077
35836W        W36700  20.750   7.701  13.569
35837W        W36701  19.512   9.517  13.739
35838W        W36702  20.392   9.176  14.096
35839W        W36703  20.881   9.321  14.030
35840W        W36704  20.126   7.514  14.593
35841W        W36705  19.214   8.133  12.749
35842W        W36706  18.816   8.003  12.404
35843W        W36707  18.665  10.649  12.073
35844W        W36708  20.089  10.210  13.994
35845W        W36709  18.822   9.853  11.455
35846W        W36710  20.810   9.041  12.720
35847W        W36711  20.868   8.689  13.123
35848W        W36712  20.167   9.274  13.016
35849W        W36713  20.696   9.718  10.924
35850W        W36714  20.419   7.691  12.393
35851W        W36715  21.871   8.090  11.725
35852W        W36716  18.444  10.847  13.894
35853W        W36717  18.708   9.826  13.327
35854W        W36718  18.205  10.653  11.843
35855W        W36719  19.811   7.778  13.324
35856W        W36720  19.240  10.200  11.354
35857W        W36721  21.611  10.426  11.527
35858W        W36722  20.521   9.061  11.460
35859W        W36723  19.849   8.080  11.885
35860W        W36724  19.887   8.012  10.862
35861W        W36725  20.436   9.705  14.092
35862W        W36726  21.163   7.672  11.766
35863W        W36727  18.290   7.288  11.202
35864W        W36728  19.726   9.867  13.410
35865W        W36729  19.560   9.755  12.561
35866W        W36730  19.212   9.860  10.974
35867W        W36731  18.560  10.249  11.756
35868W        W36732  19.077   8.903  14.153
35869W        W36733  19.679   7.402  14.324
35870W        W36734  20.218   7.674  13.685
35871W        W36735  19.572   7.359  12.163
35872W        W36736  20.759   7.792  11.328
35873W        W36737  18.465   7.487  13.078
35874W        W36738  18.431   8.364  12.462
35875W        W36739  21.329   7.527  12.865
35876W        W36740  18.779   7.886  11.727
35877W        W36741  21.186   7.835  13.267
35878W        W36742  21.718   8.804  11.017
35879W        W36743  18.825   7.800  12.876
35880W        W36744  20.204   8.214  13.774
35881W        W36745  18.167   7.805  11.264
35882W        W36746  19.014   9.412  13.630
35883W        W36747  20.399   8.793  12.919
35884W        W36748  20.151  10.814  11.234
35885W        W36749  18.244   9.076  10.918
35886W        W36750  19.119   9.783  13.984
35887W        W36751  18.752   8.974  13.749
35888W        W36752  19.670   9.177  13.354
35889W        W36753  21.235   7.495  13.688
35890W        W36754  21.831   9.203  13.662
35891W        W36755  21.908   9.050  11.460
35892W        W36756  20.701   9.538  11.424
35893W        W36757  21.055  10.942  11.062
35894W        W36758  20.350   8.858  14.515
35895W        W36759  18.787  10.015  14.320
35896W        W36760  21.818   8.040  14.407
35897W        W36761  21.310   8.785  12.848
35898W        W36762  19.816  10.734  14.380
35899W        W36763  19.520   7.362  11.271
35900W        W36764  21.486   9.772  11.202
35901W        W36765  19.210   8.093  14.010
35902W        W36766  19.575  10.073  13.834
35903W        W36767  21.549   7.923  13.598
35904W        W36768  21.175  10.706  11.512
35905W        W36769  21.074   9.414  13.002
35906W        W36770  19.299   7.810  13.587
35907W        W36771  19.913   8.848  14.223
35908W        W36772  19.079  10.030  11.845
35909W        W36773  21.229   9.466  12.048
35910W        W36774  18.805   7.938  13.743
35911W        W36775  19.913   9.981  12.209
35912W        W36776  21.719   8.777  12.339
35913W        W36777  20.076   7.300  14.029
35914W        W36778  20.999  10.211  13.119
35915W        W36779  21.328  10.579  12.908
35916W        W36780  20.056  10.331  10.978
35917W        W36781  18.287  10.121  14.167
35918W        W36782  18.953   8.087  13.278
35919W        W36783  19.155   7.583  12.504
35920W        W36784  20.587   8.296  12.971
35921W        W36785  19.768   9.503  11.280
35922W        W36786  21.564   9.273  12.833
35923W        W36787  18.730  10.447  14.036
35924W        W36788  21.355  10.909  11.961
35925W        W36789  19.568   7.861  12.299
35926W        W36790  18.998   9.232  12.688
35927W        W36791  19.397  10.860  13.323
35928W        W36792  21.412  10.887  14.282
35929W        W36793  20.644   9.165  13.211
35930W        W36794  18.384   8.605  11.052
35931W        W36795  21.583  10.501  12.175
35932W        W36796  21.450   7.938  11.412
35933W        W36797  19.578   7.118  13.848
35934W        W36798  21.378  10.163  12.567
35935W        W36799  21.260   8.600  12.237
35936W        W36800  19.663   8.379  12.339
35937W        W36801  19.850   8.659  13.730
35938W        W36802  20.813   9.811  13.767
35939W        W36803  19.670   8.154  13.728
35940W        W36804  19.440  10.746  12.473
35941W        W36805  18.809  10.910  14.262
35942W        W36806  18.765  10.367  11.306
35943W        W36807  21.543   9.872  12.164
35944W        W36808  19.196   8.415  13.600
35945W        W36809  21.787   8.397  11.320
35946W        W36810  19.364   9.740  11.527
35947W        W36811  20.696   8.942  13.693
35948W        W36812  20.440   8.541  13.412
35949W        W36813  19.082   8.965  13.353
35950W        W36814  21.234  10.731  13.421
35951W        W36815  20.993   7.637  14.231
35952W        W36816  18.638   7.474  13.910
35953W        W36817  19.131   8.537  13.079
35954W        W36818  19.444   8.261  10.769
35955W        W36819  18.335  10.349  13.703
35956W        W36820  19.908   8.838  13.030
35957W        W36821  19.470   7.848  11.106
35958W        W36822  19.026   9.004  12.211
35959W        W36823  18.395  10.797  13.393
35960W        W36824  21.408   8.908  11.430
35961W        W36825  21.477   7.761  14.104
35962W        W36826  21.026   9.932  12.242
35963W        W36827  18.548   8.819  14.212
35964W        W36828  21.752   7.580  11.592
35965W        W36829  21.147   9.752  11.618
35966W        W36830  20.077   8.792  11.624
35967W        W36831  21.133   7.865  10.969
35968W        W36832  20.834   8.187  13.398
35969W        W36833  18.531   8.889  12.497
35970W        W36834  19.035   9.694  12.350
35971W        W36835  20.817   8.380  12.123
35972W        W36836  19.722   7.968  12.818
35973W        W36837  21.758   9.894  13.392
35974W        W36838  21.678   7.952  13.074
35975W        W36839  18.354  10.584  12.461
35976W        W36840  18.657   9.776  11.970
35977W        W36841  18.836   7.430  14.371
35978W        W36842  19.684  10.237  14.304
35979W        W36843  21.687   9.311  12.323
35980W        W36844  21.138   9.334  11.263
35981W        W36845  20.398  10.897  13.331
35982W        W36846  21.107   9.614  14.400
35983W        W36847  19.778   7.102  11.644
35984W        W36848  20.564   8.157  12.500
35985W        W36849  18.318   9.861  12.949
35986W        W36850  19.648   7.612  11.706
35987W        W36851  19.525   9.204  14.215
35988W        W36852  20.407   8.075  12.021
35989W        W36853  20.725   9.757  13.260
35990W        W36854  18.854  10.263  13.583
35991W        W36855  19.205  10.272  14.119
35992W        W36856  19.361   8.017  11.597
35993W        W36857  20.768   8.236  11.614
35994W        W36858  20.582  10.284  13.887
35995W        W36859  19.463   8.845  12.469
35996W        W36860  18.898  10.719  13.332
35997W        W36861  21.540  10.736  11.097
35998W        W36862  18.737   9.394  14.075
35999W        W36863  20.570   9.526  12.830
36000W        W36864  19.070   9.472  11.889
36001W        W36865  19.469  10.330  13.383
36002W        W36866  19.922   7.563  12.545
36003W        W36867  18.308   9.799  11.591
36004W        W36868  20.054   8.502  10.992
36005W        W36869  18.644   9.334  12.251
36006W        W36870  19.719   7.623  13.824
36007W        W36871  21.594   7.628  11.002
36008W        W36872  21.572   9.406  14.255
36009W        W36873  20.299  10.629  14.248
36010W        W36874  21.812   9.706  13.888
36011W        W36875  21.284  10.392  14.458
36012W        W36876  19.053  10.939  12.889
36013W        W36877  21.896   9.561  11.933
36014W        W36878  20.466   8.662  12.414
36015W        W36879  20.258   7.214  12.327
36016W        W36880  19.281  10.372  12.163
36017W        W36881  19.475   8.177  13.237
36018W        W36882  19.534   7.376  12.839
36019W        W36883  18.270  10.478  11.359
36020W        W36884  19.932   9.443  12.170
36021W        W36885  19.209  10.608  13.742
36022W        W36886  18.543   9.340  11.734
36023W        W36887  18.373   7.849  12.658
36024W        W36888  20.085   9.672  12.625
36025W        W36889  18.307   7.673  11.739
36026W        W36890  21.153   8.854  13.499
36027W        W36891  20.823   8.263  11.089
36028W        W36892  21.406   9.827  12.985
36029W        W36893  20.153  10.237  12.589
36030W        W36894  19.498  10.747  11.708
36031W        W36895  20.584   7.336  10.945
36032W        W36896  18.593  10.682  12.907
36033W        W36897  20.386   8.336  14.265
36034W        W36898  18.732   7.940  14.249
36035W        W36899  18.336   8.477  11.972
36036W        W36900  19.579   8.604  11.133
36037W        W36901  20.747   8.801  14.201
36038W        W36902  19.401   8.998  12.946
36039W        W36903  20.783   7.340  12.365
36040W        W36904  19.945  10.729  12.597
36041W        W36905  21.008  10.276  13.613
36042W        W36906  20.900  10.383  12.650
36043W        W36907  20.817   9.436  12.382
36044W        W36908  19.930   7.685  11.265
36045W        W36909  21.901   7.482  12.320
36046W        W36910  19.291   8.779  10.736
36047W        W36911  21.651   8.266  12.196
36048W        W36912  20.275   9.403  11.154
36049W        W36913  21.284   9.651  13.907
36050W        W36914  21.213  10.196  11.311
36051W        W36915  19.626   7.906  14.240
36052W        W36916  19.537   8.683  13.339
36053W        W36917  21.488  10.117  13.809
36054W        W36918  20.595   7.935  14.003
36055W        W36919  18.342   8.667  13.760
36056W        W36920  20.198   8.988  13.461
36057W        W36921  18.534   9.774  12.474
36058W        W36922  18.713   8.854  12.977
36059W        W36923  21.013   9.368  13.527
36060W        W36924  20.829  10.629  14.206
36061W        W36925  20.728   8.422  13.833
36062W        W36926  21.022  10.601  12.202
36063W        W36927  19.988  10.306  13.480
36064W        W36928  19.359  10.512  12.915
36065W        W36929  21.207   9.848  13.442
36066W        W36930  20.054   9.882  14.412
36067W        W36931  18.891   9.737  12.857
36068W        W36932  21.288   9.586  12.536
36069W        W36933  20.828  10.708  13.101
36070W        W36934  18.964  10.239  13.090
36071W        W36935  19.889   8.331  14.169
36072W        W36936  20.002  10.499  11.661
36073W        W36937  19.574   9.735  14.237
36074W        W36938  19.565  10.220  11.750
36075W        W36939  18.830   8.433  10.730
36076W        W36940  18.375  10.852  18.100
36077W        W36941  18.901   9.867  17.643
36078W        W36942  21.514   9.636  15.308
36079W        W36943  21.657  10.618  17.394
36080W        W36944  19.096  10.682  14.982
36081W        W36945  19.662   9.074  15.916
36082W        W36946  19.125   8.398  16.333
36083W        W36947  20.225   9.217  15.323
36084W        W36948  19.786  10.563  17.674
36085W        W36949  18.264   8.069  17.622
36086W        W36950  18.911   7.429  17.444
36087W        W36951  20.745   7.855  16.219
36088W        W36952  20.445   8.376  14.763
36089W        W36953  20.885   8.137  17.922
36090W        W36954  18.431   7.567  17.268
36091W        W36955  18.564  10.382  18.207
36092W        W36956  19.709  10.034  14.798
36093W        W36957  18.267   8.479  16.701
36094W        W36958  19.428   8.648  17.778
36095W        W36959  21.592   8.346  16.321
36096W        W36960  21.449   9.377  17.105
36097W        W36961  19.993   8.891  16.285
36098W        W36962  20.499  10.155  16.683
36099W        W36963  18.809   9.471  16.896
36100W        W36964  18.066   9.000  16.715
36101W        W36965  19.453   9.062  17.467
36102W        W36966  21.540   8.824  17.788
36103W        W36967  19.169  10.282  16.354
36104W        W36968  20.364   9.993  17.467
36105W        W36969  19.564   8.469  16.616
36106W        W36970  19.757   9.277  16.508
36107W        W36971  20.697  10.329  18.178
36108W        W36972  20.017   9.357  18.148
36109W        W36973  19.953   9.165  17.618
36110W        W36974  17.996   8.327  18.000
36111W        W36975  21.103  10.085  17.916
36112W        W36976  18.674   7.403  15.741
36113W        W36977  19.341  10.108  16.836
36114W        W36978  21.566   9.771  16.200
36115W        W36979  21.126   8.174  16.519
36116W        W36980  21.307   8.048  14.497
36117W        W36981  21.982   8.809  17.096
36118W        W36982  19.978  10.651  16.812
36119W        W36983  21.577  10.154  15.225
36120W        W36984  18.689  10.845  15.276
36121W        W36985  19.122  10.862  15.751
36122W        W36986  18.891   7.782  17.000
36123W        W36987  21.497   8.733  17.271
36124W        W36988  20.963   9.006  15.985
36125W        W36989  20.825   8.711  14.704
36126W        W36990  20.182   9.888  16.990
36127W        W36991  19.929   8.144  16.032
36128W        W36992  20.554  10.356  17.160
36129W        W36993  21.401   9.098  15.740
36130W        W36994  20.402   7.632  15.449
36131W        W36995  18.930  10.434  15.469
36132W        W36996  18.299   7.777  16.046
36133W        W36997  20.891   8.536  16.228
36134W        W36998  18.653  10.242  16.440
36135W        W36999  19.453  10.500  14.666
36136W        W37000  21.274   8.559  14.485
36137W        W37001  18.456  10.344  16.956
36138W        W37002  19.249  10.128  17.366
36139W        W37003  19.362   9.420  16.168
36140W        W37004  19.512   7.676  16.914
36141W        W37005  21.710   7.507  16.463
36142W        W37006  19.146   9.504  14.417
36143W        W37007  18.674   7.725  14.746
36144W        W37008  18.783  10.281  15.947
36145W        W37009  19.550   9.878  15.892
36146W        W37010  21.217  10.546  17.669
36147W        W37011  20.100   8.278  15.114
36148W        W37012  21.416  10.941  16.197
36149W        W37013  21.061   8.689  17.565
36150W        W37014  21.899  10.216  15.973
36151W        W37015  20.432   9.482  17.351
36152W        W37016  18.030   9.074  15.805
36153W        W37017  19.280   9.674  17.107
36154W        W37018  20.407   8.766  15.509
36155W        W37019  20.659   9.200  15.627
36156W        W37020  18.622   8.504  17.096
36157W        W37021  18.654   8.426  17.602
36158W        W37022  18.617   7.393  16.262
36159W        W37023  20.247   7.930  16.402
36160W        W37024  20.064   7.885  17.787
36161W        W37025  20.558   8.025  15.146
36162W        W37026  21.662  10.495  17.920
36163W        W37027  20.495   7.415  17.629
36164W        W37028  21.584   9.950  18.025
36165W        W37029  21.019   7.995  17.452
36166W        W37030  20.755   7.951  15.690
36167W        W37031  21.188   9.084  18.060
36168W        W37032  18.883  10.703  16.211
36169W        W37033  19.633   8.071  15.109
36170W        W37034  19.062   7.719  17.850
36171W        W37035  21.156   8.262  15.457
36172W        W37036  21.541   8.646  15.445
36173W        W37037  19.449  10.755  18.025
36174W        W37038  19.180   7.250  15.145
36175W        W37039  21.523   7.863  16.159
36176W        W37040  21.735  10.251  14.697
36177W        W37041  18.395   9.379  16.577
36178W        W37042  20.561   7.897  14.536
36179W        W37043  21.696  10.234  16.484
36180W        W37044  21.539   7.526  16.958
36181W        W37045  20.272   8.763  17.708
36182W        W37046  19.873   9.522  15.585
36183W        W37047  20.730   9.249  18.272
36184W        W37048  20.369   7.440  16.311
36185W        W37049  18.739   8.214  16.673
36186W        W37050  18.593   9.656  17.311
36187W        W37051  20.514  10.651  16.063
36188W        W37052  21.486   8.543  16.784
36189W        W37053  20.347  10.683  17.542
36190W        W37054  21.493   9.427  14.780
36191W        W37055  20.172   9.138  15.839
36192W        W37056  21.717   7.490  17.460
36193W        W37057  19.924   9.545  17.278
36194W        W37058  20.070   8.417  16.463
36195W        W37059  21.038   8.837  15.439
36196W        W37060  21.235   8.563  15.022
36197W        W37061  21.190  10.380  15.532
36198W        W37062  21.037   9.837  16.343
36199W        W37063  20.673   9.034  15.108
36200W        W37064  20.303   9.290  16.337
36201W        W37065  21.235   9.347  16.282
36202W        W37066  18.422   8.014  17.038
36203W        W37067  21.262   9.163  17.550
36204W        W37068  21.727  10.667  16.775
36205W        W37069  19.668  10.303  16.220
36206W        W37070  20.838  10.772  17.380
36207W        W37071  20.626   8.135  17.115
36208W        W37072  19.942  10.863  17.273
36209W        W37073  21.422   7.826  15.595
36210W        W37074  21.307   9.061  16.726
36211W        W37075  18.096   8.361  17.188
36212W        W37076  21.125   8.133  15.989
36213W        W37077  21.414   8.323  17.609
36214W        W37078  20.533   9.955  16.199
36215W        W37079  19.737  10.612  15.806
36216W        W37080  18.722   7.540  15.220
36217W        W37081  19.973   7.537  16.664
36218W        W37082  18.679  10.867  14.751
36219W        W37083  19.730   9.246  15.161
36220W        W37084  20.113   9.653  17.749
36221W        W37085  19.919   7.799  15.584
36222W        W37086  21.129   7.604  15.964
36223W        W37087  20.899  10.908  16.395
36224W        W37088  20.435  10.673  16.576
36225W        W37089  19.729   9.677  16.809
36226W        W37090  21.505  10.261  17.007
36227W        W37091  19.143   7.588  15.543
36228W        W37092  19.834  10.175  16.707
36229W        W37093  19.177   7.873  14.499
36230W        W37094  20.174   8.482  16.971
36231W        W37095  20.635   7.772  16.713
36232W        W37096  18.293   9.339  17.066
36233W        W37097  19.873   9.032  14.710
36234W        W37098  19.269   7.367  14.631
36235W        W37099  20.095   8.604  15.882
36236W        W37100  20.726   7.624  17.205
36237W        W37101  19.505   9.654  17.569
36238W        W37102  20.414   9.251  17.840
36239W        W37103  20.881   9.428  17.783
36240W        W37104  20.039   7.568  18.183
36241W        W37105  19.243   8.070  16.724
36242W        W37106  18.784   7.893  16.261
36243W        W37107  18.610  10.756  15.772
36244W        W37108  20.238  10.290  17.876
36245W        W37109  19.541   9.749  15.226
36246W        W37110  20.817   9.102  16.472
36247W        W37111  20.973   8.659  16.709
36248W        W37112  20.154   9.372  16.835
36249W        W37113  20.582   9.689  14.589
36250W        W37114  20.315   7.819  15.919
36251W        W37115  21.725   8.162  15.328
36252W        W37116  18.551  10.711  17.639
36253W        W37117  18.862  10.001  17.053
36254W        W37118  18.216  10.735  15.442
36255W        W37119  20.178   7.973  16.893
36256W        W37120  19.306  10.215  15.090
36257W        W37121  21.531  10.663  15.278
36258W        W37122  20.221   8.784  15.023
36259W        W37123  19.810   8.329  15.542
36260W        W37124  20.050   8.034  14.629
36261W        W37125  20.583   9.863  17.939
36262W        W37126  20.990   7.748  15.287
36263W        W37127  18.370   7.282  14.898
36264W        W37128  19.700   9.997  17.181
36265W        W37129  19.494   9.858  16.403
36266W        W37130  19.258  10.014  14.558
36267W        W37131  18.416  10.278  15.584
36268W        W37132  19.084   9.062  17.842
36269W        W37133  19.528   7.486  18.006
36270W        W37134  20.220   7.644  17.273
36271W        W37135  19.602   7.378  15.735
36272W        W37136  20.543   7.550  14.955
36273W        W37137  18.531   7.487  16.762
36274W        W37138  18.318   8.291  16.206
36275W        W37139  21.181   7.634  16.491
36276W        W37140  18.401   7.828  15.539
36277W        W37141  21.094   7.878  16.945
36278W        W37142  21.595   8.902  14.706
36279W        W37143  19.047   7.570  16.570
36280W        W37144  20.130   8.189  17.378
36281W        W37145  18.213   7.748  15.044
36282W        W37146  19.050   9.408  17.470
36283W        W37147  20.395   8.831  16.641
36284W        W37148  20.091  10.850  14.819
36285W        W37149  18.113   9.016  14.539
36286W        W37150  19.331  10.105  17.872
36287W        W37151  18.670   9.109  17.318
36288W        W37152  19.617   9.223  17.016
36289W        W37153  21.201   7.499  17.371
36290W        W37154  21.772   9.152  17.440
36291W        W37155  21.541   9.120  15.222
36292W        W37156  20.614   9.542  15.226
36293W        W37157  21.061  10.819  14.639
36294W        W37158  20.305   8.926  18.218
36295W        W37159  18.898   9.975  18.178
36296W        W37160  21.830   7.918  18.087
36297W        W37161  21.340   8.809  16.305
36298W        W37162  19.924  10.763  18.194
36299W        W37163  19.718   7.229  14.874
36300W        W37164  21.342   9.930  14.806
36301W        W37165  19.115   8.221  17.700
36302W        W37166  19.832  10.058  17.652
36303W        W37167  21.489   7.956  17.250
36304W        W37168  21.137  10.976  15.119
36305W        W37169  21.059   9.511  16.767
36306W        W37170  19.251   7.840  17.371
36307W        W37171  19.846   8.835  18.015
36308W        W37172  19.153   9.957  15.552
36309W        W37173  21.087   9.340  15.361
36310W        W37174  18.750   7.952  17.453
36311W        W37175  20.041   9.994  15.967
36312W        W37176  21.729   8.718  15.982
36313W        W37177  19.959   7.401  17.680
36314W        W37178  21.019  10.139  16.772
36315W        W37179  21.280  10.563  16.546
36316W        W37180  20.072  10.360  14.628
36317W        W37181  18.441   9.961  17.915
36318W        W37182  19.080   8.278  17.172
36319W        W37183  19.101   7.425  16.062
36320W        W37184  20.574   8.307  16.619
36321W        W37185  19.638   9.516  14.700
36322W        W37186  21.633   9.422  16.601
36323W        W37187  18.860  10.337  17.799
36324W        W37188  21.297  10.980  15.625
36325W        W37189  19.335   7.866  16.241
36326W        W37190  18.881   9.233  16.434
36327W        W37191  19.600  11.014  16.942
36328W        W37192  21.439  10.971  17.939
36329W        W37193  20.634   9.200  16.942
36330W        W37194  18.364   8.315  14.149
36331W        W37195  21.573  10.588  15.828
36332W        W37196  21.341   8.030  15.021
36333W        W37197  19.442   7.384  17.508
36334W        W37198  21.327  10.242  16.143
36335W        W37199  21.243   8.607  15.852
36336W        W37200  19.619   8.573  16.115
36337W        W37201  19.858   8.691  17.399
36338W        W37202  20.868   9.884  17.517
36339W        W37203  19.547   8.285  17.446
36340W        W37204  19.385  10.737  16.199
36341W        W37205  18.942  10.825  17.955
36342W        W37206  18.958  10.479  14.521
36343W        W37207  21.480   9.996  15.718
36344W        W37208  19.033   8.731  17.431
36345W        W37209  21.660   8.365  14.786
36346W        W37210  19.358   9.464  15.653
36347W        W37211  20.677   9.027  17.468
36348W        W37212  20.633   8.662  17.097
36349W        W37213  19.116   9.088  17.045
36350W        W37214  21.294  10.723  17.047
36351W        W37215  20.930   7.615  17.819
36352W        W37216  18.536   7.628  17.774
36353W        W37217  19.023   8.631  16.790
36354W        W37218  19.552   8.242  14.614
36355W        W37219  18.445  10.154  17.441
36356W        W37220  19.884   8.853  16.792
36357W        W37221  19.640   7.723  14.731
36358W        W37222  19.190   8.918  16.147
36359W        W37223  18.575  10.862  17.140
36360W        W37224  21.141   9.059  14.901
36361W        W37225  21.417   7.820  17.759
36362W        W37226  20.948  10.041  15.867
36363W        W37227  18.601   8.899  17.773
36364W        W37228  21.447   7.542  15.110
36365W        W37229  21.078   9.884  15.358
36366W        W37230  19.893   8.853  15.476
36367W        W37231  21.013   7.700  14.764
36368W        W37232  21.113   8.389  17.133
36369W        W37233  18.655   8.691  16.393
36370W        W37234  19.071   9.864  16.063
36371W        W37235  20.763   8.479  15.729
36372W        W37236  19.748   7.986  16.525
36373W        W37237  21.749   9.809  17.122
36374W        W37238  21.596   7.995  16.724
36375W        W37239  18.371  10.604  16.191
36376W        W37240  18.643   9.825  15.745
36377W        W37241  18.650   7.606  18.264
36378W        W37242  19.770  10.258  18.113
36379W        W37243  21.719   9.192  16.160
36380W        W37244  20.999   9.551  14.897
36381W        W37245  20.422  10.865  17.056
36382W        W37246  21.213   9.596  18.138
36383W        W37247  19.992   7.297  15.343
36384W        W37248  20.451   8.292  16.099
36385W        W37249  18.486   9.860  16.732
36386W        W37250  19.579   7.569  15.243
36387W        W37251  19.558   9.252  17.937
36388W        W37252  20.320   8.222  15.585
36389W        W37253  20.698   9.840  17.048
36390W        W37254  18.846  10.455  17.299
36391W        W37255  19.130  10.431  18.242
36392W        W37256  19.163   7.743  14.996
36393W        W37257  20.724   8.509  15.191
36394W        W37258  20.720  10.353  17.668
36395W        W37259  19.388   8.945  16.619
36396W        W37260  19.169  10.802  17.098
36397W        W37261  21.561  10.733  14.765
36398W        W37262  18.600   9.427  17.775
36399W        W37263  20.589   9.621  16.599
36400W        W37264  18.897   9.394  15.932
36401W        W37265  19.575  10.500  17.169
36402W        W37266  19.868   7.647  16.142
36403W        W37267  18.223   9.768  15.433
36404W        W37268  19.977   8.533  14.628
36405W        W37269  18.460   9.169  16.116
36406W        W37270  19.754   7.809  17.384
36407W        W37271  21.528   7.603  14.603
36408W        W37272  21.623   9.355  17.906
36409W        W37273  20.416  10.751  18.055
36410W        W37274  21.849   9.748  17.623
36411W        W37275  21.199  10.531  18.180
36412W        W37276  19.085  10.953  16.617
36413W        W37277  21.725   9.527  15.772
36414W        W37278  20.493   8.838  16.113
36415W        W37279  20.137   7.347  15.826
36416W        W37280  19.286  10.357  15.853
36417W        W37281  19.721   8.176  16.998
36418W        W37282  19.518   7.399  16.425
36419W        W37283  18.365  10.514  14.989
36420W        W37284  19.879   9.520  16.092
36421W        W37285  19.258  10.591  17.585
36422W        W37286  18.468   9.329  15.614
36423W        W37287  18.333   7.905  16.546
36424W        W37288  20.108   9.794  16.472
36425W        W37289  18.268   7.349  15.412
36426W        W37290  21.053   8.952  17.131
36427W        W37291  20.919   8.207  14.804
36428W        W37292  21.431   9.863  16.690
36429W        W37293  20.166  10.329  16.331
36430W        W37294  19.401  10.635  15.395
36431W        W37295  20.632   7.366  14.487
36432W        W37296  18.586  10.741  16.628
36433W        W37297  20.435   8.398  18.082
36434W        W37298  18.680   8.078  17.978
36435W        W37299  18.110   8.564  15.744
36436W        W37300  19.706   8.618  15.045
36437W        W37301  20.738   8.821  17.951
36438W        W37302  19.287   9.441  16.668
36439W        W37303  20.662   7.440  15.863
36440W        W37304  19.899  10.797  16.312
36441W        W37305  21.051  10.308  17.256
36442W        W37306  20.839  10.361  16.345
36443W        W37307  20.744   9.470  16.100
36444W        W37308  20.058   7.745  15.067
36445W        W37309  21.692   7.437  15.864
36446W        W37310  19.489   8.749  14.508
36447W        W37311  21.600   8.254  15.813
36448W        W37312  20.308   9.292  14.812
36449W        W37313  21.324   9.664  17.625
36450W        W37314  21.199  10.415  14.975
36451W        W37315  19.549   7.980  17.859
36452W        W37316  19.450   8.676  17.087
36453W        W37317  21.490  10.135  17.524
36454W        W37318  20.534   7.922  17.591
36455W        W37319  18.185   8.614  17.618
36456W        W37320  20.224   8.994  17.192
36457W        W37321  18.602   9.708  16.244
36458W        W37322  18.620   8.975  16.822
36459W        W37323  20.945   9.439  17.270
36460W        W37324  20.921  10.898  17.889
36461W        W37325  20.626   8.423  17.563
36462W        W37326  21.054  10.645  15.965
36463W        W37327  20.057  10.353  17.255
36464W        W37328  19.476  10.583  16.669
36465W        W37329  21.229   9.844  17.152
36466W        W37330  20.139   9.887  18.226
36467W        W37331  18.983   9.843  16.572
36468W        W37332  21.194   9.576  15.820
36469W        W37333  20.852  10.618  16.843
36470W        W37334  18.965  10.449  16.794
36471W        W37335  19.918   8.374  17.818
36472W        W37336  19.772  10.499  15.063
36473W        W37337  19.681   9.748  18.044
36474W        W37338  19.643  10.190  15.495
36475W        W37339  19.082   8.408  14.387
36476W        W37340  18.267  11.033  21.656
36477W        W37341  18.707   9.864  21.174
36478W        W37342  21.413   9.483  19.008
36479W        W37343  21.720  10.600  20.910
36480W        W37344  19.170  10.690  18.704
36481W        W37345  19.551   8.999  19.337
36482W        W37346  19.092   8.840  20.013
36483W        W37347  19.979   9.260  19.105
36484W        W37348  19.721  10.643  21.397
36485W        W37349  18.324   8.082  21.263
36486W        W37350  18.987   7.466  21.084
36487W        W37351  20.879   7.727  20.000
36488W        W37352  20.509   8.617  18.563
36489W        W37353  20.914   8.230  21.576
36490W        W37354  18.374   7.758  20.843
36491W        W37355  18.423  10.557  21.833
36492W        W37356  19.836  10.071  18.629
36493W        W37357  18.454   8.468  20.283
36494W        W37358  19.505   8.716  21.457
36495W        W37359  21.670   8.184  20.024
36496W        W37360  21.497   9.431  20.782
36497W        W37361  20.047   8.604  19.914
36498W        W37362  20.562  10.149  20.289
36499W        W37363  18.913   9.430  20.516
36500W        W37364  18.161   8.912  20.201
36501W        W37365  19.453   9.098  21.101
36502W        W37366  21.565   8.784  21.541
36503W        W37367  19.162  10.117  19.931
36504W        W37368  20.103  10.152  20.950
36505W        W37369  19.673   8.554  20.277
36506W        W37370  19.736   9.335  19.843
36507W        W37371  20.704  10.430  21.763
36508W        W37372  19.971   9.440  21.767
36509W        W37373  19.945   9.281  21.251
36510W        W37374  18.139   8.401  21.643
36511W        W37375  21.034  10.082  21.299
36512W        W37376  18.742   7.503  19.424
36513W        W37377  19.237   9.868  20.408
36514W        W37378  21.542   9.778  19.872
36515W        W37379  21.249   8.028  20.277
36516W        W37380  21.336   8.093  18.188
36517W        W37381  21.890   8.730  20.704
36518W        W37382  19.824  10.520  20.379
36519W        W37383  21.713  10.111  18.920
36520W        W37384  18.763  10.910  18.938
36521W        W37385  19.151  10.872  19.351
36522W        W37386  19.131   7.729  20.641
36523W        W37387  21.429   8.718  20.978
36524W        W37388  20.906   9.040  19.583
36525W        W37389  20.968   8.808  18.434
36526W        W37390  20.142   9.904  20.470
36527W        W37391  19.932   8.113  19.778
36528W        W37392  20.498  10.431  20.746
36529W        W37393  21.390   9.071  19.340
36530W        W37394  20.452   7.993  19.172
36531W        W37395  18.958  10.450  19.101
36532W        W37396  18.415   7.887  19.520
36533W        W37397  20.855   8.673  19.948
36534W        W37398  18.615  10.215  19.952
36535W        W37399  19.585  10.511  18.496
36536W        W37400  21.178   8.550  18.037
36537W        W37401  18.396  10.247  20.416
36538W        W37402  19.148   9.877  20.896
36539W        W37403  19.607   9.525  19.356
36540W        W37404  19.662   7.750  20.688
36541W        W37405  21.754   7.547  20.085
36542W        W37406  19.177   9.589  17.974
36543W        W37407  18.691   8.071  18.502
36544W        W37408  18.847  10.172  19.510
36545W        W37409  19.549   9.816  19.776
36546W        W37410  21.275  10.669  21.163
36547W        W37411  20.192   8.344  18.900
36548W        W37412  21.466  10.792  19.775
36549W        W37413  21.091   8.676  21.375
36550W        W37414  21.908  10.126  19.626
36551W        W37415  20.501   9.487  20.983
36552W        W37416  18.252   9.050  19.401
36553W        W37417  19.388   9.445  20.705
36554W        W37418  20.448   8.736  19.126
36555W        W37419  20.462   9.196  19.335
36556W        W37420  18.760   8.542  20.777
36557W        W37421  18.717   8.462  21.311
36558W        W37422  18.650   7.469  19.931
36559W        W37423  20.407   7.845  20.216
36560W        W37424  20.108   7.924  21.592
36561W        W37425  20.465   8.089  18.557
36562W        W37426  21.683  10.539  21.508
36563W        W37427  20.523   7.465  21.432
36564W        W37428  21.507  10.029  21.636
36565W        W37429  21.061   7.998  21.152
36566W        W37430  20.871   7.885  19.468
36567W        W37431  21.151   9.045  21.727
36568W        W37432  18.985  10.595  19.807
36569W        W37433  19.729   8.194  18.716
36570W        W37434  19.135   7.676  21.537
36571W        W37435  21.147   8.233  19.184
36572W        W37436  21.512   8.614  19.162
36573W        W37437  19.272  10.894  21.524
36574W        W37438  19.257   7.378  18.815
36575W        W37439  21.388   7.789  19.827
36576W        W37440  21.778  10.264  18.405
36577W        W37441  18.318   9.292  19.873
36578W        W37442  20.480   7.852  18.100
36579W        W37443  21.723  10.173  20.147
36580W        W37444  21.636   7.486  20.737
36581W        W37445  20.349   8.764  21.409
36582W        W37446  20.001   9.781  19.087
36583W        W37447  20.783   9.379  21.840
36584W        W37448  20.404   7.290  20.172
36585W        W37449  18.918   8.334  20.060
36586W        W37450  18.510   9.437  20.868
36587W        W37451  20.499  10.543  19.817
36588W        W37452  21.536   8.392  20.561
36589W        W37453  20.206  10.694  21.086
36590W        W37454  21.515   9.287  18.444
36591W        W37455  20.008   8.986  19.547
36592W        W37456  21.772   7.470  21.249
36593W        W37457  20.013   9.603  20.864
36594W        W37458  20.232   8.336  20.334
36595W        W37459  20.982   8.757  19.149
36596W        W37460  21.239   8.477  18.744
36597W        W37461  21.336  10.351  19.185
36598W        W37462  21.026   9.729  20.051
36599W        W37463  20.728   9.062  18.810
36600W        W37464  20.284   9.234  19.916
36601W        W37465  21.265   9.027  19.991
36602W        W37466  18.779   8.103  20.515
36603W        W37467  21.294   9.150  21.248
36604W        W37468  21.782  10.629  20.385
36605W        W37469  19.657  10.327  19.834
36606W        W37470  20.824  10.829  20.930
36607W        W37471  20.680   8.065  20.772
36608W        W37472  19.919  11.057  20.819
36609W        W37473  21.362   7.781  19.297
36610W        W37474  21.445   8.966  20.534
36611W        W37475  18.331   8.261  20.753
36612W        W37476  21.045   8.201  19.833
36613W        W37477  21.441   8.315  21.294
36614W        W37478  20.505   9.998  19.777
36615W        W37479  19.830  10.630  19.442
36616W        W37480  18.794   7.618  18.751
36617W        W37481  20.067   7.522  20.474
36618W        W37482  18.781  10.788  18.426
36619W        W37483  19.517   9.226  18.880
36620W        W37484  20.051   9.799  21.339
36621W        W37485  19.993   7.785  19.364
36622W        W37486  21.098   7.436  19.606
36623W        W37487  20.961  10.839  19.957
36624W        W37488  20.328  10.629  20.305
36625W        W37489  19.746   9.524  20.358
36626W        W37490  21.490  10.262  20.619
36627W        W37491  19.172   7.686  19.226
36628W        W37492  19.681  10.034  20.241
36629W        W37493  19.148   8.090  18.212
36630W        W37494  20.048   8.704  20.626
36631W        W37495  20.778   7.487  20.479
36632W        W37496  18.405   9.341  20.382
36633W        W37497  19.786   9.055  18.475
36634W        W37498  19.151   7.577  18.346
36635W        W37499  19.735   8.518  19.490
36636W        W37500  20.775   7.607  20.995
36637W        W37501  19.542   9.621  21.167
36638W        W37502  20.397   9.433  21.486
36639W        W37503  20.890   9.597  21.376
36640W        W37504  20.123   7.564  21.949
36641W        W37505  19.385   8.101  20.346
36642W        W37506  18.912   7.976  19.644
36643W        W37507  18.667  10.722  19.420
36644W        W37508  20.128  10.314  21.465
36645W        W37509  19.025   9.804  18.799
36646W        W37510  20.777   9.184  20.069
36647W        W37511  20.976   8.794  20.420
36648W        W37512  20.223   9.362  20.456
36649W        W37513  20.992   9.962  18.420
36650W        W37514  20.390   7.867  19.688
36651W        W37515  21.649   8.123  19.027
36652W        W37516  18.486  10.683  21.196
36653W        W37517  18.684   9.878  20.645
36654W        W37518  18.285  10.822  19.100
36655W        W37519  20.190   7.967  20.686
36656W        W37520  19.335  10.225  18.840
36657W        W37521  21.648  10.613  18.866
36658W        W37522  20.224   9.015  18.727
36659W        W37523  19.529   8.020  19.430
36660W        W37524  20.034   8.106  18.259
36661W        W37525  20.537   9.974  21.505
36662W        W37526  20.858   7.875  18.865
36663W        W37527  18.390   7.271  18.614
36664W        W37528  19.650   9.924  20.743
36665W        W37529  19.291   9.476  20.105
36666W        W37530  19.377   9.989  18.389
36667W        W37531  18.449  10.312  19.155
36668W        W37532  19.044   9.014  21.431
36669W        W37533  19.617   7.526  21.745
36670W        W37534  20.273   7.569  20.989
36671W        W37535  19.581   7.481  19.486
36672W        W37536  20.527   7.576  18.570
36673W        W37537  18.664   7.592  20.453
36674W        W37538  18.503   8.334  19.759
36675W        W37539  21.291   7.468  20.298
36676W        W37540  18.745   7.971  19.126
36677W        W37541  21.169   7.764  20.702
36678W        W37542  21.489   8.766  18.381
36679W        W37543  19.002   7.832  20.136
36680W        W37544  20.189   8.363  21.025
36681W        W37545  18.288   7.763  18.609
36682W        W37546  19.001   9.403  21.057
36683W        W37547  20.428   8.819  20.225
36684W        W37548  20.253  10.911  18.581
36685W        W37549  18.356   9.087  18.186
36686W        W37550  19.191   9.972  21.382
36687W        W37551  18.674   8.958  21.061
36688W        W37552  19.819   9.148  20.732
36689W        W37553  21.259   7.489  21.135
36690W        W37554  21.779   9.090  21.068
36691W        W37555  21.750   9.110  18.917
36692W        W37556  20.413   9.476  18.898
36693W        W37557  21.152  11.001  18.400
36694W        W37558  20.370   9.053  21.877
36695W        W37559  18.780   9.949  21.696
36696W        W37560  21.890   7.811  21.769
36697W        W37561  21.322   8.540  20.121
36698W        W37562  19.894  10.778  21.859
36699W        W37563  19.714   7.399  18.550
36700W        W37564  21.484   9.804  18.551
36701W        W37565  19.162   8.189  21.354
36702W        W37566  19.649  10.156  21.224
36703W        W37567  21.568   7.929  20.984
36704W        W37568  21.134  10.746  18.857
36705W        W37569  21.127   9.359  20.410
36706W        W37570  19.383   7.807  21.101
36707W        W37571  19.921   8.940  21.636
36708W        W37572  19.256   9.934  19.277
36709W        W37573  20.948   9.355  19.180
36710W        W37574  18.804   7.990  21.035
36711W        W37575  19.993  10.032  19.571
36712W        W37576  21.687   8.645  19.746
36713W        W37577  20.000   7.437  21.418
36714W        W37578  21.053  10.116  20.399
36715W        W37579  21.321  10.513  20.183
36716W        W37580  20.202  10.386  18.394
36717W        W37581  18.346  10.160  21.452
36718W        W37582  19.219   8.218  20.816
36719W        W37583  19.130   7.522  19.756
36720W        W37584  20.798   8.297  20.312
36721W        W37585  19.464   9.465  18.415
36722W        W37586  21.606   9.360  20.218
36723W        W37587  18.839  10.368  21.400
36724W        W37588  21.413  10.886  19.262
36725W        W37589  19.511   7.824  19.907
36726W        W37590  18.817   9.288  20.025
36727W        W37591  19.493  10.897  20.547
36728W        W37592  21.374  10.937  21.592
36729W        W37593  20.669   9.169  20.582
36730W        W37594  18.436   8.539  18.108
36731W        W37595  21.770  10.552  19.388
36732W        W37596  21.329   7.921  18.679
36733W        W37597  19.453   7.325  21.295
36734W        W37598  21.422  10.278  19.713
36735W        W37599  21.209   8.629  19.587
36736W        W37600  19.423   8.338  19.877
36737W        W37601  19.893   8.783  21.124
36738W        W37602  20.632   9.986  20.986
36739W        W37603  19.603   8.334  21.139
36740W        W37604  19.474  10.806  19.791
36741W        W37605  18.773  10.851  21.592
36742W        W37606  18.848  10.268  18.633
36743W        W37607  21.530   9.885  19.350
36744W        W37608  19.152   8.640  21.100
36745W        W37609  21.680   8.287  18.525
36746W        W37610  19.528   9.741  18.878
36747W        W37611  20.763   9.090  21.366
36748W        W37612  20.558   8.590  20.680
36749W        W37613  19.088   8.997  20.741
36750W        W37614  21.274  10.750  20.646
36751W        W37615  21.006   7.614  21.619
36752W        W37616  18.560   7.617  21.324
36753W        W37617  19.158   8.572  20.444
36754W        W37618  19.583   8.386  18.221
36755W        W37619  18.355  10.215  20.935
36756W        W37620  19.929   9.014  20.220
36757W        W37621  19.596   7.856  18.361
36758W        W37622  19.234   9.218  19.670
36759W        W37623  18.482  10.704  20.683
36760W        W37624  21.258   9.015  18.813
36761W        W37625  21.464   7.826  21.484
36762W        W37626  21.053   9.925  19.560
36763W        W37627  18.437   8.866  21.532
36764W        W37628  21.589   7.349  18.724
36765W        W37629  21.161   9.918  18.953
36766W        W37630  19.922   8.751  19.057
36767W        W37631  20.944   7.781  18.324
36768W        W37632  21.069   8.394  20.781
36769W        W37633  18.585   8.840  19.885
36770W        W37634  19.033   9.688  19.675
36771W        W37635  20.742   8.409  19.454
36772W        W37636  19.876   7.962  20.263
36773W        W37637  21.767   9.871  20.822
36774W        W37638  21.735   7.925  20.478
36775W        W37639  18.362  10.648  19.810
36776W        W37640  18.705   9.768  19.224
36777W        W37641  18.679   7.549  21.844
36778W        W37642  19.744  10.295  21.842
36779W        W37643  21.720   9.161  19.777
36780W        W37644  21.050   9.468  18.636
36781W        W37645  20.401  10.988  20.662
36782W        W37646  21.289   9.540  21.733
36783W        W37647  19.779   7.236  19.048
36784W        W37648  20.488   8.317  19.895
36785W        W37649  18.286   9.793  20.160
36786W        W37650  19.630   7.729  18.976
36787W        W37651  19.519   9.274  21.582
36788W        W37652  20.225   8.379  19.438
36789W        W37653  20.770   9.710  20.571
36790W        W37654  18.851  10.315  20.889
36791W        W37655  19.319  10.398  21.601
36792W        W37656  19.214   7.924  18.728
36793W        W37657  20.735   8.362  18.924
36794W        W37658  20.639  10.439  21.251
36795W        W37659  19.583   8.851  19.858
36796W        W37660  19.004  10.729  20.624
36797W        W37661  21.632  10.765  18.375
36798W        W37662  18.569   9.373  21.375
36799W        W37663  20.520   9.638  20.143
36800W        W37664  19.119   9.437  19.195
36801W        W37665  19.342  10.320  20.667
36802W        W37666  19.999   7.584  19.934
36803W        W37667  18.268   9.549  18.729
36804W        W37668  20.003   8.581  18.468
36805W        W37669  18.711   9.301  19.525
36806W        W37670  19.905   7.911  21.119
36807W        W37671  21.458   7.604  18.273
36808W        W37672  21.723   9.311  21.526
36809W        W37673  20.348  10.783  21.588
36810W        W37674  21.884   9.795  21.332
36811W        W37675  21.194  10.448  21.618
36812W        W37676  19.097  10.955  20.172
36813W        W37677  21.782   9.440  19.370
36814W        W37678  20.459   8.795  19.666
36815W        W37679  20.065   7.274  19.526
36816W        W37680  19.330  10.408  19.458
36817W        W37681  19.775   8.256  20.677
36818W        W37682  19.583   7.474  20.267
36819W        W37683  18.424  10.560  18.685
36820W        W37684  20.116   9.525  19.527
36821W        W37685  19.259  10.551  21.116
36822W        W37686  18.601   9.284  19.028
36823W        W37687  18.481   7.946  20.092
36824W        W37688  20.040   9.726  19.991
36825W        W37689  18.387   7.593  19.075
36826W        W37690  20.928   8.879  20.927
36827W        W37691  20.902   8.293  18.411
36828W        W37692  21.448   9.798  20.395
36829W        W37693  20.120  10.234  20.043
36830W        W37694  19.530  10.711  19.046
36831W        W37695  20.547   7.338  18.121
36832W        W37696  18.660  10.669  20.209
36833W        W37697  20.423   8.327  21.688
36834W        W37698  18.742   8.016  21.583
36835W        W37699  18.409   8.552  19.299
36836W        W37700  19.537   8.676  18.704
36837W        W37701  20.750   8.715  21.759
36838W        W37702  19.436   9.042  20.357
36839W        W37703  20.576   7.389  19.697
36840W        W37704  19.988  10.725  19.923
36841W        W37705  21.006  10.350  20.856
36842W        W37706  20.933  10.283  19.929
36843W        W37707  20.703   9.518  19.668
36844W        W37708  20.053   7.785  18.672
36845W        W37709  21.805   7.398  19.582
36846W        W37710  19.364   8.871  18.242
36847W        W37711  21.501   8.211  19.542
36848W        W37712  19.941   9.526  18.636
36849W        W37713  21.398   9.664  21.246
36850W        W37714  21.315  10.307  18.633
36851W        W37715  19.599   7.994  21.542
36852W        W37716  19.535   8.706  20.761
36853W        W37717  21.507  10.188  21.143
36854W        W37718  20.516   7.973  21.275
36855W        W37719  18.250   8.580  21.148
36856W        W37720  20.330   9.005  20.945
36857W        W37721  18.520   9.748  19.709
36858W        W37722  18.720   8.914  20.389
36859W        W37723  21.001   9.396  20.916
36860W        W37724  20.873  10.858  21.470
36861W        W37725  20.689   8.449  21.160
36862W        W37726  21.044  10.605  19.517
36863W        W37727  19.742  10.562  20.889
36864W        W37728  19.340  10.513  20.200
36865W        W37729  21.193   9.874  20.837
36866W        W37730  20.109   9.927  21.849
36867W        W37731  18.808   9.783  20.146
36868W        W37732  21.235   9.438  19.653
36869W        W37733  20.841  10.591  20.398
36870W        W37734  18.916  10.263  20.374
36871W        W37735  19.953   8.419  21.500
36872W        W37736  19.966  10.548  18.839
36873W        W37737  19.628   9.823  21.634
36874W        W37738  19.712  10.200  19.167
36875W        W37739  18.956   8.580  18.019
36876W        W37740  18.516  10.828  25.458
36877W        W37741  18.708   9.767  24.892
36878W        W37742  21.547   9.374  22.935
36879W        W37743  21.734  10.557  24.741
36880W        W37744  19.381  10.725  21.999
36881W        W37745  19.548   8.714  23.197
36882W        W37746  19.079   8.385  23.675
36883W        W37747  19.934   9.349  22.757
36884W        W37748  19.722  10.585  24.846
36885W        W37749  18.278   8.087  25.042
36886W        W37750  18.949   7.265  24.954
36887W        W37751  20.775   7.686  23.696
36888W        W37752  20.536   8.663  22.233
36889W        W37753  20.977   8.104  25.273
36890W        W37754  18.348   7.744  24.661
36891W        W37755  18.612  10.328  25.497
36892W        W37756  19.768  10.039  22.295
36893W        W37757  18.122   8.343  24.048
36894W        W37758  19.348   8.563  25.202
36895W        W37759  21.594   8.280  23.759
36896W        W37760  21.393   9.310  24.483
36897W        W37761  19.882   8.787  23.617
36898W        W37762  20.549  10.105  23.963
36899W        W37763  18.809   9.337  24.141
36900W        W37764  18.030   8.862  23.905
36901W        W37765  19.345   8.977  24.891
36902W        W37766  21.560   8.847  25.180
36903W        W37767  19.140  10.169  23.652
36904W        W37768  20.261   9.953  24.708
36905W        W37769  19.469   8.394  24.049
36906W        W37770  19.672   9.256  23.763
36907W        W37771  20.309  10.260  25.521
36908W        W37772  19.834   9.333  25.525
36909W        W37773  19.838   9.224  25.005
36910W        W37774  17.997   8.409  25.353
36911W        W37775  21.037  10.151  25.180
36912W        W37776  18.683   7.558  23.042
36913W        W37777  19.266   9.938  24.229
36914W        W37778  21.781   9.724  23.699
36915W        W37779  21.253   7.996  24.044
36916W        W37780  21.240   8.025  21.902
36917W        W37781  21.881   8.740  24.407
36918W        W37782  19.807  10.601  24.033
36919W        W37783  21.761   9.831  22.860
36920W        W37784  18.767  10.935  22.686
36921W        W37785  19.063  10.868  23.117
36922W        W37786  18.786   7.498  24.529
36923W        W37787  21.427   8.744  24.679
36924W        W37788  20.798   8.991  23.255
36925W        W37789  20.927   8.972  22.197
36926W        W37790  20.130   9.883  24.215
36927W        W37791  19.949   8.044  23.423
36928W        W37792  20.556  10.272  24.446
36929W        W37793  21.296   9.011  23.168
36930W        W37794  20.433   7.635  22.853
36931W        W37795  18.928  10.461  22.824
36932W        W37796  18.307   7.882  23.227
36933W        W37797  20.753   8.613  23.639
36934W        W37798  18.574  10.268  23.730
36935W        W37799  19.735  10.565  22.342
36936W        W37800  21.229   8.552  21.896
36937W        W37801  18.394  10.338  24.232
36938W        W37802  19.175   9.974  24.727
36939W        W37803  19.463   9.447  23.332
36940W        W37804  19.216   7.553  24.257
36941W        W37805  21.737   7.477  23.863
36942W        W37806  19.060   9.519  21.557
36943W        W37807  18.698   8.004  22.102
36944W        W37808  18.787  10.225  23.271
36945W        W37809  19.515   9.961  23.299
36946W        W37810  21.293  10.589  25.021
36947W        W37811  20.196   8.449  22.532
36948W        W37812  21.530  10.822  23.516
36949W        W37813  20.904   8.548  24.906
36950W        W37814  21.916  10.050  23.312
36951W        W37815  20.421   9.475  24.821
36952W        W37816  18.197   9.020  23.068
36953W        W37817  19.188   9.488  24.481
36954W        W37818  20.435   8.705  22.914
36955W        W37819  20.327   9.191  23.066
36956W        W37820  18.629   8.570  24.436
36957W        W37821  18.632   8.475  25.138
36958W        W37822  18.500   7.471  23.526
36959W        W37823  20.235   7.882  23.838
36960W        W37824  20.083   7.923  25.209
36961W        W37825  20.529   7.896  22.359
36962W        W37826  21.741  10.435  25.256
36963W        W37827  20.378   7.470  25.164
36964W        W37828  21.487   9.980  25.410
36965W        W37829  20.989   7.973  24.760
36966W        W37830  20.848   7.829  23.179
36967W        W37831  21.119   9.070  25.463
36968W        W37832  18.926  10.635  23.565
36969W        W37833  19.842   8.088  22.575
36970W        W37834  19.244   7.669  25.140
36971W        W37835  21.118   8.196  22.917
36972W        W37836  21.459   8.603  22.903
36973W        W37837  19.423  10.871  25.174
36974W        W37838  19.108   7.359  22.579
36975W        W37839  21.487   7.818  23.585
36976W        W37840  21.764  10.261  22.045
36977W        W37841  18.404   9.371  23.810
36978W        W37842  20.582   7.858  21.817
36979W        W37843  21.793  10.182  23.940
36980W        W37844  21.550   7.463  24.350
36981W        W37845  20.187   8.873  25.117
36982W        W37846  19.998   9.889  22.761
36983W        W37847  20.638   9.119  25.683
36984W        W37848  20.348   7.390  23.696
36985W        W37849  18.641   8.342  23.958
36986W        W37850  18.564   9.376  24.602
36987W        W37851  20.546  10.505  23.619
36988W        W37852  21.522   8.382  24.294
36989W        W37853  20.288  10.692  24.733
36990W        W37854  21.441   9.001  22.141
36991W        W37855  19.851   9.123  23.238
36992W        W37856  21.720   7.462  24.898
36993W        W37857  19.978   9.531  24.587
36994W        W37858  19.983   8.374  23.906
36995W        W37859  20.956   8.692  22.861
36996W        W37860  21.228   8.609  22.427
36997W        W37861  21.356  10.134  23.012
36998W        W37862  20.882   9.733  23.840
36999W        W37863  20.729   9.126  22.731
37000W        W37864  20.174   9.265  23.601
37001W        W37865  21.193   8.931  23.689
37002W        W37866  18.657   7.940  24.281
37003W        W37867  21.211   9.152  24.957
37004W        W37868  21.818  10.613  24.228
37005W        W37869  19.636  10.361  23.596
37006W        W37870  20.767  10.729  24.538
37007W        W37871  20.490   8.149  24.549
37008W        W37872  19.910  10.892  24.460
37009W        W37873  21.372   7.754  23.044
37010W        W37874  21.346   8.887  24.186
37011W        W37875  18.228   8.214  24.522
37012W        W37876  21.062   8.112  23.554
37013W        W37877  21.362   8.291  24.916
37014W        W37878  20.372   9.893  23.514
37015W        W37879  19.751  10.643  23.167
37016W        W37880  18.673   7.607  22.424
37017W        W37881  19.944   7.482  24.051
37018W        W37882  18.877  10.870  22.104
37019W        W37883  19.477   9.143  22.889
37020W        W37884  19.955   9.731  25.075
37021W        W37885  19.928   7.727  23.006
37022W        W37886  21.155   7.461  23.402
37023W        W37887  21.050  10.869  23.706
37024W        W37888  20.315  10.600  24.104
37025W        W37889  19.635   9.574  24.194
37026W        W37890  21.496  10.230  24.378
37027W        W37891  19.181   7.685  22.991
37028W        W37892  19.694  10.100  24.045
37029W        W37893  19.193   8.049  21.879
37030W        W37894  20.058   8.542  24.398
37031W        W37895  20.640   7.359  24.145
37032W        W37896  18.197   9.234  24.280
37033W        W37897  19.914   9.088  22.151
37034W        W37898  19.178   7.450  22.015
37035W        W37899  20.022   8.500  23.202
37036W        W37900  20.660   7.532  24.711
37037W        W37901  19.500   9.580  24.871
37038W        W37902  20.299   9.344  25.316
37039W        W37903  20.799   9.417  25.189
37040W        W37904  20.169   7.603  25.638
37041W        W37905  19.182   7.944  23.921
37042W        W37906  18.774   7.942  23.547
37043W        W37907  18.572  10.716  23.188
37044W        W37908  20.082  10.284  25.054
37045W        W37909  19.308   9.881  22.468
37046W        W37910  20.675   9.135  23.747
37047W        W37911  20.808   8.803  24.103
37048W        W37912  20.048   9.273  24.138
37049W        W37913  21.004   9.971  21.801
37050W        W37914  20.363   7.771  23.344
37051W        W37915  21.602   8.108  22.736
37052W        W37916  18.617  10.579  25.004
37053W        W37917  18.793   9.812  24.390
37054W        W37918  18.267  10.788  22.768
37055W        W37919  20.035   8.020  24.298
37056W        W37920  19.227  10.401  22.379
37057W        W37921  21.603  10.371  22.558
37058W        W37922  20.279   9.025  22.508
37059W        W37923  19.632   8.178  23.045
37060W        W37924  20.125   8.096  22.094
37061W        W37925  20.450   9.863  25.190
37062W        W37926  20.935   7.736  22.683
37063W        W37927  18.280   7.357  22.171
37064W        W37928  19.695   9.952  24.552
37065W        W37929  19.420   9.746  23.761
37066W        W37930  19.300  10.039  21.970
37067W        W37931  18.419  10.300  22.906
37068W        W37932  18.937   8.893  25.227
37069W        W37933  19.709   7.633  25.392
37070W        W37934  20.174   7.730  24.725
37071W        W37935  19.558   7.371  23.158
37072W        W37936  20.607   7.389  22.431
37073W        W37937  18.377   7.484  24.226
37074W        W37938  18.276   8.288  23.560
37075W        W37939  21.221   7.496  23.918
37076W        W37940  18.548   7.999  22.754
37077W        W37941  21.007   7.666  24.345
37078W        W37942  21.689   8.538  22.182
37079W        W37943  18.798   7.580  23.939
37080W        W37944  19.969   8.213  24.792
37081W        W37945  18.225   7.846  22.314
37082W        W37946  18.975   9.326  24.934
37083W        W37947  20.286   8.840  23.966
37084W        W37948  20.180  10.863  22.304
37085W        W37949  18.016   9.288  21.976
37086W        W37950  19.133   9.741  25.204
37087W        W37951  18.602   8.910  24.830
37088W        W37952  19.645   9.156  24.521
37089W        W37953  21.215   7.474  24.761
37090W        W37954  21.780   9.123  24.769
37091W        W37955  21.712   8.914  22.572
37092W        W37956  20.407   9.536  22.685
37093W        W37957  21.050  10.810  21.967
37094W        W37958  20.177   8.899  25.620
37095W        W37959  18.636   9.803  25.407
37096W        W37960  21.886   7.871  25.471
37097W        W37961  21.159   8.480  23.918
37098W        W37962  19.865  10.732  25.384
37099W        W37963  19.672   7.342  22.229
37100W        W37964  21.433   9.855  22.141
37101W        W37965  19.048   8.155  25.097
37102W        W37966  19.579  10.099  25.029
37103W        W37967  21.490   7.912  24.590
37104W        W37968  21.247  10.780  22.448
37105W        W37969  20.993   9.305  24.133
37106W        W37970  19.131   7.855  24.676
37107W        W37971  19.714   8.871  25.367
37108W        W37972  19.123   9.991  22.945
37109W        W37973  21.034   9.435  23.027
37110W        W37974  18.695   8.165  24.732
37111W        W37975  19.984  10.173  23.245
37112W        W37976  21.618   8.685  23.433
37113W        W37977  19.901   7.358  24.980
37114W        W37978  21.000  10.116  24.203
37115W        W37979  21.369  10.510  23.945
37116W        W37980  20.230  10.421  21.989
37117W        W37981  18.370  10.118  25.072
37118W        W37982  19.068   8.266  24.362
37119W        W37983  19.039   7.488  23.472
37120W        W37984  20.489   8.372  24.072
37121W        W37985  19.572   9.577  22.084
37122W        W37986  21.470   9.374  23.958
37123W        W37987  18.895  10.178  25.109
37124W        W37988  21.380  10.896  22.952
37125W        W37989  19.450   7.845  23.421
37126W        W37990  19.115   9.330  23.709
37127W        W37991  19.475  10.950  24.205
37128W        W37992  21.647  10.938  25.154
37129W        W37993  20.535   9.200  24.337
37130W        W37994  18.600   8.445  21.835
37131W        W37995  21.688  10.513  23.114
37132W        W37996  21.177   8.100  22.409
37133W        W37997  19.408   7.366  24.717
37134W        W37998  21.486  10.232  23.516
37135W        W37999  21.138   8.556  23.321
37136W        W38000  19.583   8.353  23.556
37137W        W38001  19.776   8.701  24.843
37138W        W38002  20.784   9.892  24.804
37139W        W38003  19.444   8.280  24.768
37140W        W38004  19.418  10.828  23.528
37141W        W38005  18.996  10.653  25.351
37142W        W38006  18.922  10.403  21.924
37143W        W38007  21.475   9.722  23.301
37144W        W38008  19.013   8.579  24.795
37145W        W38009  21.665   8.009  22.214
37146W        W38010  19.545   9.670  22.876
37147W        W38011  20.634   9.014  24.908
37148W        W38012  20.538   8.675  24.523
37149W        W38013  18.976   9.011  24.506
37150W        W38014  21.286  10.728  24.415
37151W        W38015  20.915   7.609  25.158
37152W        W38016  18.730   7.738  24.995
37153W        W38017  19.020   8.704  24.087
37154W        W38018  19.625   8.367  21.897
37155W        W38019  18.354   9.984  24.582
37156W        W38020  19.754   8.843  24.107
37157W        W38021  19.650   7.865  22.130
37158W        W38022  19.148   9.038  23.288
37159W        W38023  18.553  10.823  24.518
37160W        W38024  21.233   9.094  22.636
37161W        W38025  21.411   7.806  25.185
37162W        W38026  20.986   9.874  23.340
37163W        W38027  18.338   8.884  25.266
37164W        W38028  21.436   7.660  22.517
37165W        W38029  21.282   9.729  22.662
37166W        W38030  19.919   8.824  22.816
37167W        W38031  20.968   7.678  22.163
37168W        W38032  21.009   8.411  24.418
37169W        W38033  18.429   8.931  23.540
37170W        W38034  19.040   9.749  23.391
37171W        W38035  20.694   8.340  23.174
37172W        W38036  19.708   7.933  23.873
37173W        W38037  21.685   9.738  24.280
37174W        W38038  21.749   7.930  24.140
37175W        W38039  18.276  10.677  23.626
37176W        W38040  18.638   9.797  23.033
37177W        W38041  18.838   7.546  25.442
37178W        W38042  19.796  10.226  25.493
37179W        W38043  21.628   9.205  23.507
37180W        W38044  21.139   9.434  22.230
37181W        W38045  20.394  11.066  24.331
37182W        W38046  21.159   9.591  25.534
37183W        W38047  19.887   7.264  22.743
37184W        W38048  20.359   8.304  23.558
37185W        W38049  18.414   9.859  24.039
37186W        W38050  19.560   7.646  22.636
37187W        W38051  19.379   9.285  25.289
37188W        W38052  20.271   8.126  22.944
37189W        W38053  20.637   9.744  24.342
37190W        W38054  18.766  10.295  24.613
37191W        W38055  19.282  10.206  25.428
37192W        W38056  19.151   7.833  22.360
37193W        W38057  20.701   8.308  22.622
37194W        W38058  20.598  10.345  24.961
37195W        W38059  19.377   8.822  23.715
37196W        W38060  19.042  10.701  24.389
37197W        W38061  21.592  10.747  22.036
37198W        W38062  18.489   9.357  25.130
37199W        W38063  20.418   9.561  23.924
37200W        W38064  19.064   9.464  22.971
37201W        W38065  19.477  10.408  24.422
37202W        W38066  19.885   7.559  23.533
37203W        W38067  17.764   9.500  22.371
37204W        W38068  20.094   8.607  21.979
37205W        W38069  18.717   9.342  23.360
37206W        W38070  19.660   7.801  24.846
37207W        W38071  21.473   7.580  21.996
37208W        W38072  21.575   9.378  25.262
37209W        W38073  20.359  10.715  25.245
37210W        W38074  21.670   9.633  24.802
37211W        W38075  21.299  10.462  25.525
37212W        W38076  19.061  10.983  23.918
37213W        W38077  21.950   9.494  23.254
37214W        W38078  20.349   8.820  23.424
37215W        W38079  20.150   7.281  23.200
37216W        W38080  19.281  10.415  23.213
37217W        W38081  19.520   7.969  24.355
37218W        W38082  19.448   7.482  23.794
37219W        W38083  18.623  10.526  22.395
37220W        W38084  19.961   9.631  23.233
37221W        W38085  19.200  10.506  24.862
37222W        W38086  18.415   9.400  22.775
37223W        W38087  18.365   7.877  23.853
37224W        W38088  19.936   9.716  23.758
37225W        W38089  18.239   7.594  22.786
37226W        W38090  20.983   8.940  24.546
37227W        W38091  20.805   8.256  22.081
37228W        W38092  21.356   9.907  23.909
37229W        W38093  20.100  10.235  23.781
37230W        W38094  19.413  10.689  22.775
37231W        W38095  20.615   7.360  21.923
37232W        W38096  18.644  10.707  24.000
37233W        W38097  20.395   8.299  25.492
37234W        W38098  18.640   8.036  25.417
37235W        W38099  18.335   8.427  23.061
37236W        W38100  19.741   8.617  22.354
37237W        W38101  20.659   8.727  25.347
37238W        W38102  19.318   9.132  24.132
37239W        W38103  20.665   7.342  23.278
37240W        W38104  20.058  10.710  23.594
37241W        W38105  21.051  10.313  24.668
37242W        W38106  20.995  10.245  23.699
37243W        W38107  20.633   9.477  23.378
37244W        W38108  20.074   7.649  22.454
37245W        W38109  21.679   7.409  23.351
37246W        W38110  19.493   8.874  21.940
37247W        W38111  21.509   8.212  23.253
37248W        W38112  20.052   9.582  22.289
37249W        W38113  21.211   9.679  25.027
37250W        W38114  21.255  10.349  22.120
37251W        W38115  19.552   8.095  25.253
37252W        W38116  19.397   8.697  24.457
37253W        W38117  21.482  10.116  24.900
37254W        W38118  20.549   7.951  25.019
37255W        W38119  18.194   8.576  24.879
37256W        W38120  20.143   9.023  24.618
37257W        W38121  18.549   9.802  23.540
37258W        W38122  18.530   8.898  24.056
37259W        W38123  20.904   9.424  24.652
37260W        W38124  20.831  10.825  25.038
37261W        W38125  20.398   8.438  24.978
37262W        W38126  21.144  10.561  23.292
37263W        W38127  20.011  10.349  24.450
37264W        W38128  19.302  10.533  23.955
37265W        W38129  21.233   9.807  24.530
37266W        W38130  20.097   9.779  25.564
37267W        W38131  18.910   9.778  23.893
37268W        W38132  21.134   9.404  23.536
37269W        W38133  20.829  10.576  24.062
37270W        W38134  18.896  10.263  24.118
37271W        W38135  19.943   8.428  25.284
37272W        W38136  20.024  10.451  22.767
37273W        W38137  19.568   9.764  25.472
37274W        W38138  19.574  10.201  22.809
37275W        W38139  19.092   8.551  21.704
37276W        W38140  18.366  10.868  28.857
37277W        W38141  18.747   9.814  28.604
37278W        W38142  21.423   9.388  26.322
37279W        W38143  21.650  10.580  28.223
37280W        W38144  19.413  10.642  25.667
37281W        W38145  19.372   8.713  26.656
37282W        W38146  18.896   8.542  26.846
37283W        W38147  19.886   9.283  26.332
37284W        W38148  19.654  10.513  28.164
37285W        W38149  18.556   8.107  28.481
37286W        W38150  19.013   7.371  28.248
37287W        W38151  20.838   7.710  27.260
37288W        W38152  20.489   8.525  25.973
37289W        W38153  21.001   7.966  28.796
37290W        W38154  18.614   7.722  28.116
37291W        W38155  18.558  10.375  28.971
37292W        W38156  19.767   9.635  25.951
37293W        W38157  18.414   8.450  27.560
37294W        W38158  19.322   8.552  28.809
37295W        W38159  21.681   8.213  27.343
37296W        W38160  21.478   9.371  28.095
37297W        W38161  19.852   8.633  27.084
37298W        W38162  20.454  10.204  27.646
37299W        W38163  18.918   9.410  27.987
37300W        W38164  18.133   8.957  27.503
37301W        W38165  19.430   8.997  28.463
37302W        W38166  21.670   8.734  28.764
37303W        W38167  19.028  10.095  27.149
37304W        W38168  20.297  10.008  28.235
37305W        W38169  19.656   8.368  27.514
37306W        W38170  19.713   9.330  27.229
37307W        W38171  20.436  10.265   0.091
37308W        W38172  19.845   9.390  28.940
37309W        W38173  19.961   9.163  28.482
37310W        W38174  18.335   8.317  28.918
37311W        W38175  20.993  10.037  28.824
37312W        W38176  18.670   7.524  26.722
37313W        W38177  19.207   9.791  27.753
37314W        W38178  21.619   9.768  27.155
37315W        W38179  20.946   8.041  27.637
37316W        W38180  21.354   8.090  25.647
37317W        W38181  21.938   8.768  28.029
37318W        W38182  19.698  10.618  27.654
37319W        W38183  21.649   9.894  26.378
37320W        W38184  18.785  11.008  26.293
37321W        W38185  19.176  10.872  26.580
37322W        W38186  19.093   7.658  27.829
37323W        W38187  21.563   8.430  28.088
37324W        W38188  20.788   8.918  26.765
37325W        W38189  20.938   8.709  25.799
37326W        W38190  20.207   9.762  27.736
37327W        W38191  19.864   8.119  27.107
37328W        W38192  20.598  10.409  28.100
37329W        W38193  21.295   9.132  26.781
37330W        W38194  20.386   7.750  26.441
37331W        W38195  18.885  10.511  26.310
37332W        W38196  18.384   7.949  26.730
37333W        W38197  20.865   8.607  27.323
37334W        W38198  18.469  10.130  27.104
37335W        W38199  19.853  10.557  25.896
37336W        W38200  21.171   8.558  25.357
37337W        W38201  18.388  10.328  27.967
37338W        W38202  19.148   9.821  28.260
37339W        W38203  19.380   9.367  26.832
37340W        W38204  19.628   7.613  27.834
37341W        W38205  21.810   7.471  27.367
37342W        W38206  18.902   9.354  25.484
37343W        W38207  18.615   8.104  25.923
37344W        W38208  18.741  10.173  26.688
37345W        W38209  19.632   9.816  26.830
37346W        W38210  21.213  10.464  28.575
37347W        W38211  20.124   8.250  26.324
37348W        W38212  21.456  10.872  27.238
37349W        W38213  21.265   8.624  28.457
37350W        W38214  21.881  10.135  26.900
37351W        W38215  20.434   9.396  28.287
37352W        W38216  18.084   9.047  26.594
37353W        W38217  19.418   9.419  28.055
37354W        W38218  20.461   8.591  26.489
37355W        W38219  20.255   9.017  26.654
37356W        W38220  18.844   8.551  27.863
37357W        W38221  18.814   8.441  28.765
37358W        W38222  18.616   7.326  27.178
37359W        W38223  20.467   7.813  27.612
37360W        W38224  20.073   7.797  28.773
37361W        W38225  20.358   8.022  25.927
37362W        W38226  21.712  10.385  28.728
37363W        W38227  20.525   7.487  28.710
37364W        W38228  21.490   9.911  28.857
37365W        W38229  21.203   8.094  28.309
37366W        W38230  20.752   7.890  26.793
37367W        W38231  21.253   8.995   0.010
37368W        W38232  18.783  10.542  27.149
37369W        W38233  19.631   8.245  26.173
37370W        W38234  19.195   7.519  28.727
37371W        W38235  21.177   8.146  26.597
37372W        W38236  21.461   8.648  26.493
37373W        W38237  19.370  10.672  28.801
37374W        W38238  19.308   7.381  26.154
37375W        W38239  21.581   7.817  27.040
37376W        W38240  21.781  10.286  25.758
37377W        W38241  18.462   9.298  27.261
37378W        W38242  20.606   7.827  25.512
37379W        W38243  21.695  10.218  27.401
37380W        W38244  21.688   7.471  27.873
37381W        W38245  20.266   8.488  28.730
37382W        W38246  19.978   9.793  26.421
37383W        W38247  20.782   9.189   0.139
37384W        W38248  20.504   7.318  27.377
37385W        W38249  18.896   8.328  27.332
37386W        W38250  18.505   9.513  28.270
37387W        W38251  20.442  10.574  27.258
37388W        W38252  21.433   8.071  27.763
37389W        W38253  20.150  10.535  28.315
37390W        W38254  21.482   9.248  25.793
37391W        W38255  19.762   9.038  26.773
37392W        W38256  21.802   7.422  28.373
37393W        W38257  19.953   9.483  28.087
37394W        W38258  20.172   8.374  27.429
37395W        W38259  20.961   8.579  26.383
37396W        W38260  21.304   8.430  26.036
37397W        W38261  21.324  10.262  26.513
37398W        W38262  20.731   9.770  27.506
37399W        W38263  20.705   8.988  26.207
37400W        W38264  20.140   9.065  27.155
37401W        W38265  21.236   8.992  27.338
37402W        W38266  18.694   8.041  27.715
37403W        W38267  21.299   9.135  28.514
37404W        W38268  21.702  10.669  27.677
37405W        W38269  19.530  10.259  27.110
37406W        W38270  20.802  10.755  28.450
37407W        W38271  20.709   8.056  28.102
37408W        W38272  19.911  10.945  28.027
37409W        W38273  21.497   7.735  26.519
37410W        W38274  21.327   8.895  28.008
37411W        W38275  18.393   8.320  28.049
37412W        W38276  21.151   8.135  27.144
37413W        W38277  21.618   8.242  28.572
37414W        W38278  20.383  10.016  27.170
37415W        W38279  19.638  10.632  26.676
37416W        W38280  18.947   7.696  25.942
37417W        W38281  20.019   7.386  27.547
37418W        W38282  18.946  10.848  25.833
37419W        W38283  19.387   9.129  26.339
37420W        W38284  20.067   9.673  28.542
37421W        W38285  19.935   7.842  26.672
37422W        W38286  21.178   7.540  26.914
37423W        W38287  20.929  10.817  27.253
37424W        W38288  20.227  10.659  27.731
37425W        W38289  19.685   9.604  27.665
37426W        W38290  21.489  10.215  27.870
37427W        W38291  19.014   7.770  26.445
37428W        W38292  19.587  10.101  27.596
37429W        W38293  19.141   7.969  25.555
37430W        W38294  19.994   8.573  27.868
37431W        W38295  20.854   7.508  27.739
37432W        W38296  18.419   9.353  27.787
37433W        W38297  19.726   8.992  25.908
37434W        W38298  19.294   7.470  25.625
37435W        W38299  19.726   8.322  26.672
37436W        W38300  20.877   7.660  28.386
37437W        W38301  19.573   9.520  28.516
37438W        W38302  20.353   9.336  28.831
37439W        W38303  20.823   9.290  28.632
37440W        W38304  20.190   7.421   0.095
37441W        W38305  19.487   7.886  27.410
37442W        W38306  18.889   8.010  26.895
37443W        W38307  18.591  10.726  26.708
37444W        W38308  20.084  10.191  28.692
37445W        W38309  19.014   9.488  26.155
37446W        W38310  20.727   9.136  27.286
37447W        W38311  20.873   8.905  27.746
37448W        W38312  20.051   9.246  27.642
37449W        W38313  20.618   9.633  25.635
37450W        W38314  20.332   7.750  27.097
37451W        W38315  21.648   8.190  26.332
37452W        W38316  18.479  10.541  28.453
37453W        W38317  18.686   9.856  27.928
37454W        W38318  18.288  10.897  26.313
37455W        W38319  20.218   8.110  27.947
37456W        W38320  19.494  10.118  25.904
37457W        W38321  21.611  10.610  26.190
37458W        W38322  20.208   8.924  26.137
37459W        W38323  19.233   8.234  26.548
37460W        W38324  19.897   8.054  25.671
37461W        W38325  20.603   9.766  28.600
37462W        W38326  20.978   7.583  26.448
37463W        W38327  18.475   7.543  25.803
37464W        W38328  19.643   9.903  28.107
37465W        W38329  19.343   9.697  27.254
37466W        W38330  19.093   9.814  25.728
37467W        W38331  18.382  10.374  26.377
37468W        W38332  18.979   8.933  28.768
37469W        W38333  19.693   7.429  28.896
37470W        W38334  20.352   7.693  28.252
37471W        W38335  19.538   7.413  26.788
37472W        W38336  20.720   7.670  26.006
37473W        W38337  18.613   7.528  27.651
37474W        W38338  18.457   8.335  27.050
37475W        W38339  21.317   7.642  27.472
37476W        W38340  18.727   8.214  26.431
37477W        W38341  21.243   7.678  28.015
37478W        W38342  21.505   8.745  25.695
37479W        W38343  18.992   7.812  27.363
37480W        W38344  20.020   8.168  28.413
37481W        W38345  18.159   8.009  25.678
37482W        W38346  19.052   9.376  28.496
37483W        W38347  20.377   8.845  27.557
37484W        W38348  20.352  11.157  25.921
37485W        W38349  18.350   9.266  25.638
37486W        W38350  19.225   9.800  28.765
37487W        W38351  18.748   9.009  28.278
37488W        W38352  19.730   9.017  28.022
37489W        W38353  21.197   7.261  28.302
37490W        W38354  21.812   9.101  28.384
37491W        W38355  21.732   8.958  26.165
37492W        W38356  20.403   9.405  26.352
37493W        W38357  21.201  10.980  25.397
37494W        W38358  20.410   8.830   0.103
37495W        W38359  18.865   9.541   0.026
37496W        W38360  21.863   7.772  28.778
37497W        W38361  21.367   8.560  27.584
37498W        W38362  19.878  10.629  28.882
37499W        W38363  19.749   7.410  25.871
37500W        W38364  21.536   9.745  25.892
37501W        W38365  19.084   8.029  28.640
37502W        W38366  19.471  10.188  28.520
37503W        W38367  21.690   7.907  28.188
37504W        W38368  21.235  11.106  25.960
37505W        W38369  21.064   9.390  27.647
37506W        W38370  19.340   7.800  28.248
37507W        W38371  19.759   8.848  28.844
37508W        W38372  19.099  10.026  26.252
37509W        W38373  20.932   9.370  26.495
37510W        W38374  18.949   8.129  28.156
37511W        W38375  19.973  10.204  26.855
37512W        W38376  21.668   8.714  27.164
37513W        W38377  20.053   7.321  28.550
37514W        W38378  20.940  10.166  27.788
37515W        W38379  21.249  10.468  27.493
37516W        W38380  20.013  10.081  25.973
37517W        W38381  18.333   9.679  28.899
37518W        W38382  19.213   8.181  27.724
37519W        W38383  19.091   7.469  27.013
37520W        W38384  20.590   8.413  27.734
37521W        W38385  19.366   9.364  25.799
37522W        W38386  21.566   9.512  27.603
37523W        W38387  19.001  10.265  28.737
37524W        W38388  21.469  10.984  26.529
37525W        W38389  19.418   7.899  26.903
37526W        W38390  18.962   9.194  27.137
37527W        W38391  19.313  10.851  27.906
37528W        W38392  21.479  10.856  28.777
37529W        W38393  20.549   9.327  27.762
37530W        W38394  18.426   8.491  25.620
37531W        W38395  21.674  10.566  26.741
37532W        W38396  21.170   7.948  26.122
37533W        W38397  19.527   7.334  28.392
37534W        W38398  21.337  10.202  27.030
37535W        W38399  21.212   8.641  26.942
37536W        W38400  19.363   8.385  27.079
37537W        W38401  19.885   8.660  28.373
37538W        W38402  20.958  10.093  28.303
37539W        W38403  19.496   8.287  28.403
37540W        W38404  19.270  10.708  27.062
37541W        W38405  18.853  10.758  28.711
37542W        W38406  19.009  10.339  25.838
37543W        W38407  21.282   9.751  26.731
37544W        W38408  19.076   8.601  28.344
37545W        W38409  21.799   8.313  25.825
37546W        W38410  19.466   9.636  26.368
37547W        W38411  20.415   8.930  28.539
37548W        W38412  20.400   8.508  28.220
37549W        W38413  19.183   8.969  27.993
37550W        W38414  21.229  10.926  27.719
37551W        W38415  21.041   7.362  28.808
37552W        W38416  18.711   7.621  28.600
37553W        W38417  19.216   8.692  27.535
37554W        W38418  19.482   8.383  25.684
37555W        W38419  18.338  10.025  28.392
37556W        W38420  19.715   8.880  27.527
37557W        W38421  19.485   7.845  25.899
37558W        W38422  18.925   8.852  26.429
37559W        W38423  18.445  10.862  28.057
37560W        W38424  21.223   8.950  26.145
37561W        W38425  21.388   7.682  28.564
37562W        W38426  20.840   9.811  27.001
37563W        W38427  18.500   8.808  28.980
37564W        W38428  21.334   7.477  26.084
37565W        W38429  21.135   9.804  26.237
37566W        W38430  19.800   8.723  26.356
37567W        W38431  21.093   7.660  25.642
37568W        W38432  21.042   8.452  27.982
37569W        W38433  18.640   8.781  27.254
37570W        W38434  19.129   9.819  26.722
37571W        W38435  20.790   8.391  26.828
37572W        W38436  19.970   7.904  27.556
37573W        W38437  21.763   9.799  28.019
37574W        W38438  21.905   7.885  27.667
37575W        W38439  18.237  10.637  27.130
37576W        W38440  18.650   9.739  26.422
37577W        W38441  18.821   7.440   0.075
37578W        W38442  19.920  10.200   0.214
37579W        W38443  21.667   9.241  27.156
37580W        W38444  20.992   9.371  25.967
37581W        W38445  20.444  10.915  28.124
37582W        W38446  21.166   9.514  28.977
37583W        W38447  19.806   7.353  26.369
37584W        W38448  20.605   8.168  27.248
37585W        W38449  18.407   9.790  27.496
37586W        W38450  19.511   7.793  26.406
37587W        W38451  19.331   9.284  28.933
37588W        W38452  20.303   8.188  26.808
37589W        W38453  20.688   9.764  28.017
37590W        W38454  18.816  10.213  28.261
37591W        W38455  19.402  10.224   0.053
37592W        W38456  19.117   8.183  26.042
37593W        W38457  20.702   8.139  26.316
37594W        W38458  20.588  10.281  28.594
37595W        W38459  19.399   8.923  27.122
37596W        W38460  18.865  10.592  27.910
37597W        W38461  21.659  10.790  25.693
37598W        W38462  18.582   9.255  28.709
37599W        W38463  20.332   9.513  27.301
37600W        W38464  18.911   9.350  26.645
37601W        W38465  19.258  10.247  27.976
37602W        W38466  19.839   7.617  27.132
37603W        W38467  18.140   9.502  26.266
37604W        W38468  19.967   8.515  25.884
37605W        W38469  18.576   9.000  26.810
37606W        W38470  19.848   7.713  28.286
37607W        W38471  21.573   7.473  25.619
37608W        W38472  21.690   9.251  28.860
37609W        W38473  20.385  10.699  28.787
37610W        W38474  21.713   9.620  28.498
37611W        W38475  21.329  10.350   0.080
37612W        W38476  18.959  10.901  27.487
37613W        W38477  21.731   9.514  26.726
37614W        W38478  20.408   8.650  27.045
37615W        W38479  20.136   7.380  26.777
37616W        W38480  19.212  10.346  26.695
37617W        W38481  19.699   8.104  27.964
37618W        W38482  19.498   7.359  27.406
37619W        W38483  18.496  10.616  25.933
37620W        W38484  20.039   9.478  26.839
37621W        W38485  19.164  10.587  28.342
37622W        W38486  18.544   9.196  26.323
37623W        W38487  18.509   7.850  27.230
37624W        W38488  19.905   9.823  27.261
37625W        W38489  18.515   7.750  26.278
37626W        W38490  20.836   8.850  28.260
37627W        W38491  20.853   8.188  25.790
37628W        W38492  21.240   9.916  27.462
37629W        W38493  20.008  10.316  27.375
37630W        W38494  19.396  10.565  26.193
37631W        W38495  20.703   7.325  25.565
37632W        W38496  18.495  10.681  27.567
37633W        W38497  20.686   8.342  28.993
37634W        W38498  18.719   7.968  28.997
37635W        W38499  18.392   8.588  26.569
37636W        W38500  19.332   8.661  26.118
37637W        W38501  20.843   8.798  28.786
37638W        W38502  19.300   9.248  27.559
37639W        W38503  20.677   7.372  26.881
37640W        W38504  19.803  10.745  27.151
37641W        W38505  21.129  10.541  28.066
37642W        W38506  20.845  10.249  27.284
37643W        W38507  20.560   9.382  26.860
37644W        W38508  19.949   7.803  26.137
37645W        W38509  21.826   7.423  26.816
37646W        W38510  19.272   8.877  25.632
37647W        W38511  21.593   8.300  26.852
37648W        W38512  20.211   9.365  25.870
37649W        W38513  21.177   9.653  28.479
37650W        W38514  21.334  10.213  25.991
37651W        W38515  19.572   7.881  28.701
37652W        W38516  19.481   8.565  27.973
37653W        W38517  21.467  10.072  28.362
37654W        W38518  20.501   8.020  28.614
37655W        W38519  18.440   8.627  28.473
37656W        W38520  20.251   8.984  28.050
37657W        W38521  18.721   9.689  27.011
37658W        W38522  18.813   9.043  27.643
37659W        W38523  20.953   9.329  28.135
37660W        W38524  20.863  10.564  28.950
37661W        W38525  20.822   8.384  28.492
37662W        W38526  21.184  10.672  26.837
37663W        W38527  19.992  10.230  27.891
37664W        W38528  19.208  10.453  27.506
37665W        W38529  21.219   9.780  27.968
37666W        W38530  20.216   9.801   0.004
37667W        W38531  18.855   9.549  27.492
37668W        W38532  21.191   9.474  27.163
37669W        W38533  20.762  10.657  27.697
37670W        W38534  18.730  10.214  27.563
37671W        W38535  19.789   8.324  28.859
37672W        W38536  20.013  10.418  26.376
37673W        W38537  19.718   9.874  28.870
37674W        W38538  19.590  10.138  26.422
37675W        W38539  18.961   8.449  25.551
37676W        W38540  18.287  14.645   3.376
37677W        W38541  18.677  13.484   2.754
37678W        W38542  21.425  13.232   0.717
37679W        W38543  21.615  14.276   2.662
37680W        W38544  19.553  14.375   0.294
37681W        W38545  19.402  12.395   1.079
37682W        W38546  19.064  12.363   1.461
37683W        W38547  19.875  13.037   0.694
37684W        W38548  19.810  14.182   3.050
37685W        W38549  18.324  11.542   2.801
37686W        W38550  19.025  10.923   2.673
37687W        W38551  20.779  11.333   1.568
37688W        W38552  20.410  12.201   0.468
37689W        W38553  21.039  11.623   3.274
37690W        W38554  18.468  11.176   2.452
37691W        W38555  18.471  14.184   3.510
37692W        W38556  19.818  13.391   0.328
37693W        W38557  18.379  12.088   1.973
37694W        W38558  19.439  12.181   3.081
37695W        W38559  21.672  11.837   1.846
37696W        W38560  21.505  13.056   2.514
37697W        W38561  19.990  12.504   1.528
37698W        W38562  20.440  13.781   1.955
37699W        W38563  18.838  12.980   2.101
37700W        W38564  18.054  12.646   1.972
37701W        W38565  19.434  12.678   2.917
37702W        W38566  21.544  12.385   3.052
37703W        W38567  19.141  13.805   1.702
37704W        W38568  20.300  13.580   2.746
37705W        W38569  19.865  12.224   1.939
37706W        W38570  19.730  13.035   1.617
37707W        W38571  20.637  13.828   3.462
37708W        W38572  19.794  12.966   3.369
37709W        W38573  19.938  12.807   2.838
37710W        W38574  18.340  11.876   3.214
37711W        W38575  21.045  13.667   3.176
37712W        W38576  18.744  11.280   0.959
37713W        W38577  19.200  13.431   2.065
37714W        W38578  21.566  13.358   1.539
37715W        W38579  21.181  11.539   1.844
37716W        W38580  21.456  11.703   0.034
37717W        W38581  21.894  12.215   2.271
37718W        W38582  19.737  14.327   2.198
37719W        W38583  21.540  13.725   0.605
37720W        W38584  18.849  14.567   0.644
37721W        W38585  19.280  14.504   1.097
37722W        W38586  19.036  11.181   2.233
37723W        W38587  21.458  12.188   2.567
37724W        W38588  20.896  12.631   1.230
37725W        W38589  20.858  12.373   0.286
37726W        W38590  20.059  13.619   2.257
37727W        W38591  20.116  11.991   1.515
37728W        W38592  20.484  13.955   2.474
37729W        W38593  21.406  12.802   1.040
37730W        W38594  20.209  11.419   0.926
37731W        W38595  18.769  14.071   0.796
37732W        W38596  18.343  11.535   1.212
37733W        W38597  21.203  12.028   1.648
37734W        W38598  18.613  13.851   1.734
37735W        W38599  19.873  14.285   0.680
37736W        W38600  21.134  12.095  28.916
37737W        W38601  18.356  13.869   2.186
37738W        W38602  19.116  13.812   2.616
37739W        W38603  19.345  12.826   1.334
37740W        W38604  19.482  11.452   2.093
37741W        W38605  21.770  10.987   1.697
37742W        W38606  18.945  12.969   0.151
37743W        W38607  18.744  11.993   0.372
37744W        W38608  18.576  14.027   1.255
37745W        W38609  19.624  13.212   1.147
37746W        W38610  21.175  14.193   2.919
37747W        W38611  20.077  11.881   0.704
37748W        W38612  21.503  14.391   1.548
37749W        W38613  21.059  12.236   2.891
37750W        W38614  21.699  13.677   1.098
37751W        W38615  20.421  13.054   2.688
37752W        W38616  18.376  12.679   1.190
37753W        W38617  19.069  13.198   2.503
37754W        W38618  20.547  12.355   0.947
37755W        W38619  20.344  12.752   1.202
37756W        W38620  18.800  12.136   2.275
37757W        W38621  18.762  11.969   2.774
37758W        W38622  18.577  11.120   1.420
37759W        W38623  20.291  11.459   1.993
37760W        W38624  20.131  11.507   3.250
37761W        W38625  20.610  11.483   0.558
37762W        W38626  21.632  14.087   3.145
37763W        W38627  20.644  11.049   3.079
37764W        W38628  21.500  13.419   3.312
37765W        W38629  21.109  11.368   2.846
37766W        W38630  20.702  11.470   1.078
37767W        W38631  21.149  12.640   3.270
37768W        W38632  18.897  14.289   1.626
37769W        W38633  19.597  11.957   0.899
37770W        W38634  19.164  11.229   3.084
37771W        W38635  21.320  11.943   0.898
37772W        W38636  21.629  12.367   0.779
37773W        W38637  19.365  14.344   3.382
37774W        W38638  19.402  11.088   0.699
37775W        W38639  21.565  11.416   1.538
37776W        W38640  21.787  13.798   0.148
37777W        W38641  18.416  12.944   1.710
37778W        W38642  20.509  11.531   0.059
37779W        W38643  21.747  13.945   1.740
37780W        W38644  21.754  11.016   2.429
37781W        W38645  20.217  12.367   2.888
37782W        W38646  19.904  13.548   0.846
37783W        W38647  20.734  12.813   3.549
37784W        W38648  20.344  11.037   1.718
37785W        W38649  18.823  11.993   1.744
37786W        W38650  18.619  12.978   2.589
37787W        W38651  20.355  14.158   1.593
37788W        W38652  21.380  11.762   2.274
37789W        W38653  20.296  14.290   2.865
37790W        W38654  21.538  13.074   0.251
37791W        W38655  19.820  12.739   1.111
37792W        W38656  21.901  11.151   2.957
37793W        W38657  19.952  13.236   2.569
37794W        W38658  20.333  11.963   1.966
37795W        W38659  21.049  12.376   0.807
37796W        W38660  21.308  12.169   0.406
37797W        W38661  21.286  13.974   0.965
37798W        W38662  21.001  13.481   1.600
37799W        W38663  20.704  12.739   0.617
37800W        W38664  20.240  12.930   1.673
37801W        W38665  21.230  12.567   1.692
37802W        W38666  18.609  11.632   2.204
37803W        W38667  21.222  12.688   2.738
37804W        W38668  21.700  14.315   2.101
37805W        W38669  19.595  13.565   1.734
37806W        W38670  20.769  14.397   2.670
37807W        W38671  20.470  11.696   2.425
37808W        W38672  19.876  14.530   2.654
37809W        W38673  21.519  11.450   1.026
37810W        W38674  21.265  12.725   2.201
37811W        W38675  18.128  11.800   2.335
37812W        W38676  21.134  11.637   1.313
37813W        W38677  21.369  11.820   2.907
37814W        W38678  20.443  13.631   1.462
37815W        W38679  19.573  14.026   1.010
37816W        W38680  18.758  11.472   0.466
37817W        W38681  19.899  11.125   2.092
37818W        W38682  19.031  14.348   0.208
37819W        W38683  19.386  12.843   0.814
37820W        W38684  20.074  13.268   3.074
37821W        W38685  19.843  11.639   1.226
37822W        W38686  21.185  11.094   1.356
37823W        W38687  20.903  14.475   1.738
37824W        W38688  20.241  14.228   2.110
37825W        W38689  19.721  13.243   2.105
37826W        W38690  21.478  13.919   2.337
37827W        W38691  19.246  11.440   1.055
37828W        W38692  19.556  13.836   2.185
37829W        W38693  19.156  11.480   0.099
37830W        W38694  20.065  12.064   2.406
37831W        W38695  20.782  11.278   2.066
37832W        W38696  18.310  13.022   2.200
37833W        W38697  19.912  12.697   0.284
37834W        W38698  19.298  11.002   0.198
37835W        W38699  20.026  12.258   1.069
37836W        W38700  20.735  11.194   2.563
37837W        W38701  19.587  13.167   2.929
37838W        W38702  20.331  12.825   3.167
37839W        W38703  20.814  12.945   3.015
37840W        W38704  20.200  11.142   3.598
37841W        W38705  19.322  12.030   1.847
37842W        W38706  18.836  11.594   1.369
37843W        W38707  18.746  14.509   1.173
37844W        W38708  20.194  13.839   3.178
37845W        W38709  18.943  13.317   0.548
37846W        W38710  20.740  12.791   1.693
37847W        W38711  20.814  12.309   1.885
37848W        W38712  20.232  13.067   2.169
37849W        W38713  20.675  13.372   0.082
37850W        W38714  20.302  11.493   1.448
37851W        W38715  21.842  11.857   0.860
37852W        W38716  18.531  14.343   2.993
37853W        W38717  18.635  13.433   2.250
37854W        W38718  18.343  14.374   0.869
37855W        W38719  19.929  11.555   2.388
37856W        W38720  19.570  13.831   0.526
37857W        W38721  21.558  14.251   0.620
37858W        W38722  20.197  12.638   0.709
37859W        W38723  19.162  11.939   1.178
37860W        W38724  20.123  11.900   0.143
37861W        W38725  20.562  13.385   3.179
37862W        W38726  21.085  11.521   0.744
37863W        W38727  18.339  11.192   0.259
37864W        W38728  19.494  13.463   2.518
37865W        W38729  19.228  13.259   1.567
37866W        W38730  19.318  13.472   0.220
37867W        W38731  18.277  13.890   0.728
37868W        W38732  18.989  12.417   2.950
37869W        W38733  19.681  11.171   3.346
37870W        W38734  20.264  11.295   2.691
37871W        W38735  19.583  11.075   1.215
37872W        W38736  20.341  11.040   0.600
37873W        W38737  18.612  11.153   1.939
37874W        W38738  18.475  12.022   1.341
37875W        W38739  21.278  11.025   1.877
37876W        W38740  18.714  11.795   0.888
37877W        W38741  21.226  11.219   2.358
37878W        W38742  21.673  12.553   0.290
37879W        W38743  18.995  11.518   1.852
37880W        W38744  20.157  11.792   2.832
37881W        W38745  18.275  11.702   0.266
37882W        W38746  18.993  12.939   2.937
37883W        W38747  20.316  12.489   1.931
37884W        W38748  20.056  14.383   0.196
37885W        W38749  18.418  13.101   0.231
37886W        W38750  19.169  13.441   2.952
37887W        W38751  18.596  12.455   2.628
37888W        W38752  19.543  12.909   2.464
37889W        W38753  21.434  10.988   2.825
37890W        W38754  21.741  12.614   2.570
37891W        W38755  21.786  12.874   0.664
37892W        W38756  20.404  13.123   0.832
37893W        W38757  21.222  14.488   0.164
37894W        W38758  20.298  12.446   3.527
37895W        W38759  18.762  13.300   3.236
37896W        W38760  21.886  11.522   3.493
37897W        W38761  21.417  12.245   2.058
37898W        W38762  19.857  14.364   3.539
37899W        W38763  19.786  11.079   0.358
37900W        W38764  21.296  13.528   0.216
37901W        W38765  19.196  11.739   2.947
37902W        W38766  19.796  13.668   2.873
37903W        W38767  21.605  11.456   2.630
37904W        W38768  21.106  14.673   0.625
37905W        W38769  21.056  13.159   2.006
37906W        W38770  19.366  11.372   2.599
37907W        W38771  19.853  12.479   3.225
37908W        W38772  19.134  13.713   0.840
37909W        W38773  20.969  13.058   0.930
37910W        W38774  18.856  11.463   2.644
37911W        W38775  19.909  13.732   1.349
37912W        W38776  21.694  12.310   1.618
37913W        W38777  20.117  11.017   3.094
37914W        W38778  20.924  13.684   2.071
37915W        W38779  21.249  14.115   1.917
37916W        W38780  20.308  13.548   0.450
37917W        W38781  18.373  13.662   3.180
37918W        W38782  19.117  11.738   2.306
37919W        W38783  19.091  11.146   1.493
37920W        W38784  20.845  11.841   2.090
37921W        W38785  19.474  12.983   0.318
37922W        W38786  21.576  13.113   1.996
37923W        W38787  18.841  13.841   3.091
37924W        W38788  21.412  14.590   1.046
37925W        W38789  19.418  11.582   1.548
37926W        W38790  18.917  12.847   1.610
37927W        W38791  19.408  14.685   2.429
37928W        W38792  21.387  14.535   3.258
37929W        W38793  20.676  12.741   2.197
37930W        W38794  18.517  12.627   0.436
37931W        W38795  21.734  14.187   1.129
37932W        W38796  21.533  11.624   0.524
37933W        W38797  19.509  10.920   2.850
37934W        W38798  21.329  13.858   1.462
37935W        W38799  21.358  12.337   1.236
37936W        W38800  19.622  12.080   1.426
37937W        W38801  19.735  12.357   2.661
37938W        W38802  20.816  13.497   2.751
37939W        W38803  19.658  11.844   2.752
37940W        W38804  19.543  14.107   1.530
37941W        W38805  18.883  14.528   3.313
37942W        W38806  19.016  13.854   0.358
37943W        W38807  21.254  13.432   1.149
37944W        W38808  19.241  12.155   2.591
37945W        W38809  21.795  12.060   0.371
37946W        W38810  19.450  13.345   0.693
37947W        W38811  20.674  12.581   2.687
37948W        W38812  20.530  12.236   2.333
37949W        W38813  19.058  12.660   2.472
37950W        W38814  21.198  14.385   2.373
37951W        W38815  21.138  11.025   3.257
37952W        W38816  18.658  11.123   2.958
37953W        W38817  19.027  12.479   1.960
37954W        W38818  19.218  11.985   0.114
37955W        W38819  18.232  13.768   2.702
37956W        W38820  19.855  12.740   2.025
37957W        W38821  19.660  11.548   0.182
37958W        W38822  18.901  12.711   1.085
37959W        W38823  18.575  14.561   2.529
37960W        W38824  21.269  12.740   0.546
37961W        W38825  21.501  11.393   3.183
37962W        W38826  20.864  13.763   1.178
37963W        W38827  18.479  12.369   3.122
37964W        W38828  21.403  11.134   0.627
37965W        W38829  21.038  13.582   0.703
37966W        W38830  19.712  12.441   0.680
37967W        W38831  21.102  11.342   0.243
37968W        W38832  20.970  11.795   2.585
37969W        W38833  18.575  12.450   1.628
37970W        W38834  18.877  13.603   1.326
37971W        W38835  20.905  12.097   1.224
37972W        W38836  19.853  11.722   1.866
37973W        W38837  21.747  13.488   2.369
37974W        W38838  21.642  11.355   2.055
37975W        W38839  18.381  14.338   1.618
37976W        W38840  18.629  13.545   0.897
37977W        W38841  18.771  11.189   3.453
37978W        W38842  19.573  13.922   3.618
37979W        W38843  21.662  12.833   1.520
37980W        W38844  21.001  13.154   0.422
37981W        W38845  20.345  14.588   2.441
37982W        W38846  21.035  13.202   3.395
37983W        W38847  19.875  10.892   0.812
37984W        W38848  20.674  11.839   1.594
37985W        W38849  18.270  13.437   1.848
37986W        W38850  19.724  11.479   0.730
37987W        W38851  19.278  13.101   3.344
37988W        W38852  20.408  11.889   1.117
37989W        W38853  20.559  13.426   2.326
37990W        W38854  18.653  14.035   2.592
37991W        W38855  19.382  13.899   3.092
37992W        W38856  19.256  11.678   0.574
37993W        W38857  20.776  11.934   0.756
37994W        W38858  20.678  13.960   2.961
37995W        W38859  19.501  12.511   1.700
37996W        W38860  19.031  14.335   2.406
37997W        W38861  21.704  14.327   0.131
37998W        W38862  18.471  12.888   3.077
37999W        W38863  20.586  13.283   1.836
38000W        W38864  19.096  13.218   1.053
38001W        W38865  19.486  14.166   2.625
38002W        W38866  19.858  11.285   1.609
38003W        W38867  18.217  13.395   0.631
38004W        W38868  19.666  12.013   0.389
38005W        W38869  18.639  13.143   1.285
38006W        W38870  19.794  11.362   2.874
38007W        W38871  21.604  11.203   0.153
38008W        W38872  21.592  12.903   3.049
38009W        W38873  20.347  14.316   3.374
38010W        W38874  21.745  13.365   2.856
38011W        W38875  21.184  14.085   3.439
38012W        W38876  18.992  14.648   1.980
38013W        W38877  21.765  13.163   1.106
38014W        W38878  20.501  12.333   1.467
38015W        W38879  20.112  11.019   1.252
38016W        W38880  19.092  14.057   1.218
38017W        W38881  19.589  11.937   2.265
38018W        W38882  19.462  11.029   1.820
38019W        W38883  18.567  14.114   0.332
38020W        W38884  20.121  13.235   1.268
38021W        W38885  19.056  14.254   2.913
38022W        W38886  18.571  13.020   0.782
38023W        W38887  18.442  11.619   1.708
38024W        W38888  20.087  13.415   1.772
38025W        W38889  18.292  11.441   0.714
38026W        W38890  21.013  12.314   2.377
38027W        W38891  20.935  11.815   0.292
38028W        W38892  21.409  13.604   1.945
38029W        W38893  19.943  13.918   1.839
38030W        W38894  19.242  14.214   0.670
38031W        W38895  20.674  11.033   0.188
38032W        W38896  18.617  14.298   2.079
38033W        W38897  20.617  11.937   3.313
38034W        W38898  18.745  11.585   3.133
38035W        W38899  18.568  12.306   0.866
38036W        W38900  19.207  12.201   0.615
38037W        W38901  20.678  12.435   3.177
38038W        W38902  19.334  12.918   1.970
38039W        W38903  20.633  10.972   1.224
38040W        W38904  19.933  14.417   1.736
38041W        W38905  20.995  13.926   2.525
38042W        W38906  20.832  13.966   1.648
38043W        W38907  20.654  13.160   1.331
38044W        W38908  20.122  11.461   0.399
38045W        W38909  21.817  11.023   1.178
38046W        W38910  19.445  12.459   0.216
38047W        W38911  21.621  11.885   1.327
38048W        W38912  20.294  13.039   0.322
38049W        W38913  21.228  13.239   2.906
38050W        W38914  20.891  13.839   0.270
38051W        W38915  19.636  11.696   3.256
38052W        W38916  19.472  12.445   2.219
38053W        W38917  21.399  13.740   2.819
38054W        W38918  20.629  11.561   2.935
38055W        W38919  18.257  12.059   2.762
38056W        W38920  20.182  12.612   2.426
38057W        W38921  18.347  13.578   1.348
38058W        W38922  18.546  12.570   2.128
38059W        W38923  20.931  13.049   2.510
38060W        W38924  20.840  14.397   3.242
38061W        W38925  20.596  12.057   2.805
38062W        W38926  21.057  14.292   1.294
38063W        W38927  19.979  14.028   2.550
38064W        W38928  19.280  14.216   1.974
38065W        W38929  21.223  13.465   2.417
38066W        W38930  20.138  13.457   3.551
38067W        W38931  18.766  13.352   1.756
38068W        W38932  21.165  13.019   1.456
38069W        W38933  20.767  14.175   2.124
38070W        W38934  18.909  13.873   2.156
38071W        W38935  20.091  12.022   3.300
38072W        W38936  19.961  14.279   1.235
38073W        W38937  19.654  13.483   3.341
38074W        W38938  19.393  13.640   1.272
38075W        W38939  18.924  12.437   0.135
38076W        W38940  18.305  14.589   7.082
38077W        W38941  18.691  13.528   6.594
38078W        W38942  21.348  13.200   4.540
38079W        W38943  21.648  14.328   6.384
38080W        W38944  19.317  14.302   3.905
38081W        W38945  19.540  12.646   4.742
38082W        W38946  19.085  12.435   5.349
38083W        W38947  20.131  13.029   4.273
38084W        W38948  19.729  14.218   6.707
38085W        W38949  18.225  11.611   6.551
38086W        W38950  18.845  10.905   6.479
38087W        W38951  20.852  11.421   5.373
38088W        W38952  20.536  12.100   4.070
38089W        W38953  20.804  11.908   6.964
38090W        W38954  18.525  11.312   6.256
38091W        W38955  18.437  14.189   7.420
38092W        W38956  19.879  13.660   4.014
38093W        W38957  18.483  12.090   5.641
38094W        W38958  19.422  12.326   6.857
38095W        W38959  21.758  11.889   5.484
38096W        W38960  21.597  13.051   6.272
38097W        W38961  20.059  12.315   5.338
38098W        W38962  20.470  13.761   5.719
38099W        W38963  18.819  13.044   5.957
38100W        W38964  18.177  12.513   5.558
38101W        W38965  19.380  12.705   6.474
38102W        W38966  21.576  12.424   6.873
38103W        W38967  19.138  13.766   5.373
38104W        W38968  20.340  13.633   6.368
38105W        W38969  19.673  12.209   5.655
38106W        W38970  19.757  13.049   5.255
38107W        W38971  20.661  13.945   7.110
38108W        W38972  19.936  12.983   7.228
38109W        W38973  19.985  12.937   6.703
38110W        W38974  18.274  12.030   6.987
38111W        W38975  21.018  13.632   6.900
38112W        W38976  18.518  11.122   4.792
38113W        W38977  19.184  13.485   5.889
38114W        W38978  21.599  13.430   5.248
38115W        W38979  21.240  11.685   5.625
38116W        W38980  21.382  11.658   3.650
38117W        W38981  21.817  12.563   6.119
38118W        W38982  19.868  14.136   5.857
38119W        W38983  21.660  13.926   4.098
38120W        W38984  18.740  14.545   4.358
38121W        W38985  19.133  14.525   4.724
38122W        W38986  19.027  11.364   6.282
38123W        W38987  21.419  12.274   6.360
38124W        W38988  20.907  12.662   4.879
38125W        W38989  20.779  12.306   3.674
38126W        W38990  20.041  13.613   5.925
38127W        W38991  20.019  11.768   5.251
38128W        W38992  20.358  14.094   6.156
38129W        W38993  21.235  12.679   4.472
38130W        W38994  20.551  11.298   4.472
38131W        W38995  18.986  14.101   4.424
38132W        W38996  18.178  11.529   4.941
38133W        W38997  20.877  12.312   5.262
38134W        W38998  18.619  13.857   5.489
38135W        W38999  19.797  14.172   4.024
38136W        W39000  21.143  12.110   3.372
38137W        W39001  18.378  13.924   5.952
38138W        W39002  19.125  13.660   6.353
38139W        W39003  19.792  13.094   4.712
38140W        W39004  19.400  11.339   5.932
38141W        W39005  21.917  11.109   5.666
38142W        W39006  18.852  12.676   3.369
38143W        W39007  18.565  11.645   3.630
38144W        W39008  18.736  13.856   4.988
38145W        W39009  19.510  13.443   4.999
38146W        W39010  21.198  14.177   6.608
38147W        W39011  20.281  11.666   4.207
38148W        W39012  21.433  14.367   5.425
38149W        W39013  21.075  12.287   6.734
38150W        W39014  21.954  13.894   5.056
38151W        W39015  20.450  13.121   6.521
38152W        W39016  18.071  12.596   4.614
38153W        W39017  19.344  13.053   6.092
38154W        W39018  20.395  12.295   4.532
38155W        W39019  20.420  12.811   4.665
38156W        W39020  18.747  12.167   6.095
38157W        W39021  18.742  12.161   6.757
38158W        W39022  18.634  11.130   5.297
38159W        W39023  20.391  11.538   5.588
38160W        W39024  19.983  11.603   6.611
38161W        W39025  20.565  11.345   3.933
38162W        W39026  21.649  14.117   6.876
38163W        W39027  20.349  11.219   6.661
38164W        W39028  21.510  13.563   7.020
38165W        W39029  21.011  11.805   6.495
38166W        W39030  20.779  11.590   4.853
38167W        W39031  21.140  12.722   7.015
38168W        W39032  18.931  14.245   5.287
38169W        W39033  19.777  11.586   4.244
38170W        W39034  19.014  11.285   6.789
38171W        W39035  21.206  11.781   4.662
38172W        W39036  21.533  12.408   4.130
38173W        W39037  19.279  14.401   6.938
38174W        W39038  19.186  10.975   4.111
38175W        W39039  21.622  11.409   5.364
38176W        W39040  21.606  13.843   3.595
38177W        W39041  18.432  12.998   5.468
38178W        W39042  20.608  11.412   3.429
38179W        W39043  21.720  13.905   5.533
38180W        W39044  21.574  11.090   6.045
38181W        W39045  20.272  12.512   6.853
38182W        W39046  20.044  13.496   4.505
38183W        W39047  20.793  12.890   7.353
38184W        W39048  20.469  11.070   5.406
38185W        W39049  18.910  11.869   5.426
38186W        W39050  18.471  13.136   6.336
38187W        W39051  20.305  14.160   5.130
38188W        W39052  21.595  12.108   5.915
38189W        W39053  20.383  14.418   6.571
38190W        W39054  21.425  12.940   3.591
38191W        W39055  20.010  12.702   4.978
38192W        W39056  21.714  11.112   6.538
38193W        W39057  20.017  13.233   6.269
38194W        W39058  20.183  11.984   5.696
38195W        W39059  21.101  12.189   4.376
38196W        W39060  21.217  12.090   3.883
38197W        W39061  21.336  14.078   4.498
38198W        W39062  21.068  13.418   5.373
38199W        W39063  20.759  12.562   4.313
38200W        W39064  20.321  12.853   5.361
38201W        W39065  21.293  12.622   5.267
38202W        W39066  18.800  11.656   5.896
38203W        W39067  21.314  12.731   6.545
38204W        W39068  21.756  14.314   5.850
38205W        W39069  19.599  13.929   5.198
38206W        W39070  20.824  14.390   6.324
38207W        W39071  20.713  11.637   6.010
38208W        W39072  19.939  14.441   6.276
38209W        W39073  21.577  11.434   4.556
38210W        W39074  21.322  12.711   6.006
38211W        W39075  18.345  11.805   6.065
38212W        W39076  21.070  11.848   5.167
38213W        W39077  21.460  11.927   6.793
38214W        W39078  20.468  13.620   5.202
38215W        W39079  19.830  14.253   4.867
38216W        W39080  18.833  11.307   3.942
38217W        W39081  19.898  11.004   5.751
38218W        W39082  18.847  14.496   3.839
38219W        W39083  19.621  12.885   4.263
38220W        W39084  20.001  13.464   6.723
38221W        W39085  20.061  11.311   4.612
38222W        W39086  21.241  11.368   5.022
38223W        W39087  20.906  14.479   5.480
38224W        W39088  20.322  14.264   5.659
38225W        W39089  19.729  13.186   5.783
38226W        W39090  21.550  13.903   6.073
38227W        W39091  18.909  11.290   4.479
38228W        W39092  19.596  13.691   5.660
38229W        W39093  19.143  11.573   3.473
38230W        W39094  20.063  12.385   5.977
38231W        W39095  20.780  11.131   5.835
38232W        W39096  18.306  12.874   5.944
38233W        W39097  19.849  12.615   3.752
38234W        W39098  19.233  11.054   3.592
38235W        W39099  19.999  12.193   4.860
38236W        W39100  20.776  11.276   6.364
38237W        W39101  19.546  13.192   6.554
38238W        W39102  20.398  13.014   7.024
38239W        W39103  20.850  13.144   6.852
38240W        W39104  19.979  11.270   7.092
38241W        W39105  19.391  11.756   5.629
38242W        W39106  18.718  11.552   5.009
38243W        W39107  18.652  14.348   4.836
38244W        W39108  20.208  13.965   6.759
38245W        W39109  19.432  13.461   3.831
38246W        W39110  20.842  12.809   5.435
38247W        W39111  20.983  12.422   5.754
38248W        W39112  20.212  13.008   5.853
38249W        W39113  20.634  13.340   3.687
38250W        W39114  20.355  11.431   5.052
38251W        W39115  21.519  11.897   4.270
38252W        W39116  18.469  14.277   6.695
38253W        W39117  18.691  13.539   6.073
38254W        W39118  18.236  14.395   4.393
38255W        W39119  20.209  11.665   6.084
38256W        W39120  19.401  13.860   4.171
38257W        W39121  21.194  14.088   3.956
38258W        W39122  20.291  12.563   4.054
38259W        W39123  19.807  11.720   4.777
38260W        W39124  20.320  11.738   3.692
38261W        W39125  20.496  13.530   6.846
38262W        W39126  21.066  11.287   4.539
38263W        W39127  18.392  11.050   3.770
38264W        W39128  19.603  13.514   6.167
38265W        W39129  19.329  13.270   5.461
38266W        W39130  19.148  13.602   3.438
38267W        W39131  18.464  13.946   4.544
38268W        W39132  18.965  12.628   6.781
38269W        W39133  19.493  11.235   6.928
38270W        W39134  20.335  11.176   6.140
38271W        W39135  19.696  11.046   4.879
38272W        W39136  20.909  11.030   4.118
38273W        W39137  18.408  11.205   5.786
38274W        W39138  18.453  11.994   5.126
38275W        W39139  21.264  11.171   5.648
38276W        W39140  18.476  11.587   4.519
38277W        W39141  21.186  11.452   6.089
38278W        W39142  21.515  12.412   3.584
38279W        W39143  19.028  11.343   5.564
38280W        W39144  20.122  12.072   6.378
38281W        W39145  18.202  11.465   3.992
38282W        W39146  18.994  13.087   6.470
38283W        W39147  20.487  12.410   5.597
38284W        W39148  20.218  14.453   3.903
38285W        W39149  18.183  12.638   3.485
38286W        W39150  19.155  13.457   6.817
38287W        W39151  18.649  12.638   6.340
38288W        W39152  19.795  12.797   6.149
38289W        W39153  21.207  11.029   6.384
38290W        W39154  21.854  12.760   6.593
38291W        W39155  21.506  12.941   4.113
38292W        W39156  20.612  12.969   4.048
38293W        W39157  21.097  14.542   3.675
38294W        W39158  20.310  12.615   7.356
38295W        W39159  18.730  13.463   7.109
38296W        W39160  21.739  11.516   7.024
38297W        W39161  21.326  12.163   5.477
38298W        W39162  19.818  14.329   7.193
38299W        W39163  19.678  10.992   3.854
38300W        W39164  21.103  13.634   3.691
38301W        W39165  19.135  11.812   6.706
38302W        W39166  19.559  13.716   6.636
38303W        W39167  21.523  11.772   6.302
38304W        W39168  21.120  14.547   4.189
38305W        W39169  20.994  13.101   5.847
38306W        W39170  19.484  11.498   6.478
38307W        W39171  19.843  12.484   7.122
38308W        W39172  19.131  13.618   4.610
38309W        W39173  20.859  13.048   4.520
38310W        W39174  18.725  11.768   6.407
38311W        W39175  19.996  13.685   4.982
38312W        W39176  21.716  12.318   5.165
38313W        W39177  19.861  11.086   6.614
38314W        W39178  20.929  13.603   5.828
38315W        W39179  21.230  13.982   5.687
38316W        W39180  20.154  13.963   3.692
38317W        W39181  18.406  13.832   6.978
38318W        W39182  19.224  11.828   6.157
38319W        W39183  19.115  11.188   5.076
38320W        W39184  20.781  11.946   5.612
38321W        W39185  19.830  13.152   3.864
38322W        W39186  21.382  13.029   5.555
38323W        W39187  18.880  13.955   6.814
38324W        W39188  21.342  14.595   4.663
38325W        W39189  19.547  11.497   5.196
38326W        W39190  18.928  12.911   5.463
38327W        W39191  19.534  14.535   5.956
38328W        W39192  21.337  14.556   6.920
38329W        W39193  20.637  12.753   5.965
38330W        W39194  18.457  12.178   3.611
38331W        W39195  21.584  14.231   4.944
38332W        W39196  21.177  11.547   4.114
38333W        W39197  19.367  10.999   6.435
38334W        W39198  21.319  13.858   5.200
38335W        W39199  21.254  12.261   4.906
38336W        W39200  19.582  12.021   5.180
38337W        W39201  19.833  12.467   6.559
38338W        W39202  20.836  13.491   6.449
38339W        W39203  19.595  12.000   6.505
38340W        W39204  19.416  14.420   5.150
38341W        W39205  18.794  14.399   7.091
38342W        W39206  18.977  14.070   3.561
38343W        W39207  21.565  13.678   4.774
38344W        W39208  19.126  12.254   6.433
38345W        W39209  21.752  11.987   3.809
38346W        W39210  19.569  13.397   4.339
38347W        W39211  20.724  12.687   6.684
38348W        W39212  20.553  12.148   6.056
38349W        W39213  19.082  12.611   6.063
38350W        W39214  21.253  14.372   6.008
38351W        W39215  20.826  11.399   6.848
38352W        W39216  18.511  11.217   6.749
38353W        W39217  19.159  12.186   5.788
38354W        W39218  19.644  12.135   3.555
38355W        W39219  18.309  13.851   6.465
38356W        W39220  19.886  12.704   5.623
38357W        W39221  19.854  11.507   3.721
38358W        W39222  19.280  12.909   5.107
38359W        W39223  18.514  14.485   6.213
38360W        W39224  21.109  12.634   3.909
38361W        W39225  21.334  11.439   6.666
38362W        W39226  21.071  13.521   4.860
38363W        W39227  18.419  12.557   6.808
38364W        W39228  21.430  11.079   4.173
38365W        W39229  21.249  13.615   4.223
38366W        W39230  19.979  12.577   4.477
38367W        W39231  21.038  11.286   3.688
38368W        W39232  21.101  11.997   6.028
38369W        W39233  18.567  12.521   5.235
38370W        W39234  18.998  13.373   5.063
38371W        W39235  20.787  12.102   4.785
38372W        W39236  19.860  11.527   5.684
38373W        W39237  21.832  13.482   6.144
38374W        W39238  21.672  11.551   5.862
38375W        W39239  18.396  14.286   5.291
38376W        W39240  18.623  13.452   4.688
38377W        W39241  18.652  11.287   7.250
38378W        W39242  19.828  13.832   7.068
38379W        W39243  21.779  12.931   5.274
38380W        W39244  21.075  13.164   3.929
38381W        W39245  20.393  14.603   6.075
38382W        W39246  21.195  13.212   7.214
38383W        W39247  19.992  10.773   4.458
38384W        W39248  20.501  11.934   5.187
38385W        W39249  18.330  13.448   5.694
38386W        W39250  19.619  11.113   4.360
38387W        W39251  19.522  12.846   6.941
38388W        W39252  20.330  11.806   4.700
38389W        W39253  20.566  13.306   6.054
38390W        W39254  18.762  14.030   6.315
38391W        W39255  19.330  13.896   7.050
38392W        W39256  19.381  11.417   3.933
38393W        W39257  20.776  11.758   4.363
38394W        W39258  20.698  13.970   6.594
38395W        W39259  19.596  12.530   5.243
38396W        W39260  19.057  14.387   6.095
38397W        W39261  21.592  14.352   3.730
38398W        W39262  18.607  13.041   6.815
38399W        W39263  20.601  13.258   5.548
38400W        W39264  19.271  13.118   4.648
38401W        W39265  19.433  13.985   6.071
38402W        W39266  19.969  11.222   5.293
38403W        W39267  17.889  13.022   3.826
38404W        W39268  20.055  12.134   3.863
38405W        W39269  18.659  12.987   5.003
38406W        W39270  19.845  11.318   6.166
38407W        W39271  21.551  11.159   3.651
38408W        W39272  21.598  12.974   6.985
38409W        W39273  20.331  14.354   7.093
38410W        W39274  21.818  13.340   6.652
38411W        W39275  21.183  14.070   7.106
38412W        W39276  19.075  14.603   5.630
38413W        W39277  21.782  13.202   4.819
38414W        W39278  20.450  12.442   5.032
38415W        W39279  20.222  10.934   4.943
38416W        W39280  19.206  14.038   4.890
38417W        W39281  19.737  11.863   6.041
38418W        W39282  19.476  11.066   5.472
38419W        W39283  18.565  14.140   4.062
38420W        W39284  20.212  13.200   4.984
38421W        W39285  19.256  14.132   6.514
38422W        W39286  18.154  13.019   4.283
38423W        W39287  18.456  11.597   5.467
38424W        W39288  20.103  13.359   5.472
38425W        W39289  18.150  11.197   4.432
38426W        W39290  20.935  12.455   6.268
38427W        W39291  20.840  11.767   3.760
38428W        W39292  21.451  13.509   5.731
38429W        W39293  20.042  13.867   5.459
38430W        W39294  19.495  14.286   4.451
38431W        W39295  20.687  10.909   3.596
38432W        W39296  18.647  14.316   5.736
38433W        W39297  20.358  12.109   7.186
38434W        W39298  18.662  11.677   6.901
38435W        W39299  18.192  12.080   4.675
38436W        W39300  19.978  12.051   4.368
38437W        W39301  20.748  12.416   7.127
38438W        W39302  19.382  12.764   5.660
38439W        W39303  20.750  11.091   4.943
38440W        W39304  19.874  14.359   5.380
38441W        W39305  21.054  13.907   6.211
38442W        W39306  20.818  13.960   5.380
38443W        W39307  20.729  13.135   5.045
38444W        W39308  20.093  11.184   4.109
38445W        W39309  21.849  11.118   4.998
38446W        W39310  19.388  12.592   3.422
38447W        W39311  21.577  11.818   5.010
38448W        W39312  20.252  12.951   3.665
38449W        W39313  21.301  13.242   6.662
38450W        W39314  20.699  14.232   3.773
38451W        W39315  19.575  11.731   6.943
38452W        W39316  19.538  12.347   6.126
38453W        W39317  21.438  13.731   6.548
38454W        W39318  20.502  11.697   6.507
38455W        W39319  18.307  12.128   6.486
38456W        W39320  20.298  12.647   6.353
38457W        W39321  18.492  13.445   5.188
38458W        W39322  18.679  12.562   5.748
38459W        W39323  20.936  13.001   6.337
38460W        W39324  20.817  14.417   6.873
38461W        W39325  20.586  12.199   6.585
38462W        W39326  21.067  14.270   5.013
38463W        W39327  19.905  13.914   6.326
38464W        W39328  19.381  14.181   5.601
38465W        W39329  21.260  13.418   6.181
38466W        W39330  20.139  13.452   7.230
38467W        W39331  18.821  13.393   5.564
38468W        W39332  21.265  13.073   5.036
38469W        W39333  20.781  14.166   5.865
38470W        W39334  18.971  13.938   5.847
38471W        W39335  19.964  12.064   6.864
38472W        W39336  20.031  14.022   4.449
38473W        W39337  19.611  13.358   7.040
38474W        W39338  19.612  13.814   4.655
38475W        W39339  18.876  12.048   3.294
38476W        W39340  18.216  14.559  10.720
38477W        W39341  18.664  13.505  10.225
38478W        W39342  21.409  13.191   8.214
38479W        W39343  21.778  14.240   9.937
38480W        W39344  19.338  14.252   7.415
38481W        W39345  19.494  12.611   8.374
38482W        W39346  19.037  12.100   8.871
38483W        W39347  19.881  12.931   8.176
38484W        W39348  19.787  14.278  10.372
38485W        W39349  18.261  11.568  10.315
38486W        W39350  18.979  10.843  10.124
38487W        W39351  20.662  11.545   9.000
38488W        W39352  20.509  12.310   7.736
38489W        W39353  20.902  11.860  10.625
38490W        W39354  18.386  11.329   9.878
38491W        W39355  18.463  14.130  10.916
38492W        W39356  19.669  13.588   7.496
38493W        W39357  18.461  12.047   9.382
38494W        W39358  19.471  12.233  10.491
38495W        W39359  21.523  11.913   9.095
38496W        W39360  21.530  13.010   9.838
38497W        W39361  19.916  12.349   8.972
38498W        W39362  20.520  13.656   9.214
38499W        W39363  18.856  13.002   9.528
38500W        W39364  18.164  12.459   9.326
38501W        W39365  19.364  12.736  10.282
38502W        W39366  21.632  12.498  10.486
38503W        W39367  19.305  13.755   9.020
38504W        W39368  20.339  13.581  10.012
38505W        W39369  19.481  12.167   9.159
38506W        W39370  19.890  12.908   9.029
38507W        W39371  20.570  13.975  10.689
38508W        W39372  20.036  13.082  10.789
38509W        W39373  19.868  12.857  10.319
38510W        W39374  18.271  11.774  10.785
38511W        W39375  21.027  13.737  10.500
38512W        W39376  18.604  11.207   8.466
38513W        W39377  19.545  13.617   9.453
38514W        W39378  21.795  13.403   8.969
38515W        W39379  21.057  11.845   9.337
38516W        W39380  21.207  11.619   7.138
38517W        W39381  21.949  12.454   9.691
38518W        W39382  19.983  14.338   9.454
38519W        W39383  21.601  13.875   7.858
38520W        W39384  18.916  14.569   8.099
38521W        W39385  19.311  14.491   8.431
38522W        W39386  18.866  11.179   9.754
38523W        W39387  21.527  12.476   9.963
38524W        W39388  20.758  12.626   8.518
38525W        W39389  20.994  12.472   7.587
38526W        W39390  20.256  13.384   9.551
38527W        W39391  19.793  11.781   8.784
38528W        W39392  20.582  13.889   9.679
38529W        W39393  21.258  12.751   8.513
38530W        W39394  20.301  11.229   8.268
38531W        W39395  19.033  14.054   8.174
38532W        W39396  18.332  11.641   8.484
38533W        W39397  20.761  12.119   8.981
38534W        W39398  18.723  13.769   9.140
38535W        W39399  19.755  14.077   7.647
38536W        W39400  21.227  12.179   7.210
38537W        W39401  18.487  13.832   9.621
38538W        W39402  19.313  13.698   9.918
38539W        W39403  19.586  13.045   8.616
38540W        W39404  19.198  11.449   9.469
38541W        W39405  21.684  11.129   9.216
38542W        W39406  19.061  13.034   7.089
38543W        W39407  18.658  11.839   7.381
38544W        W39408  18.915  13.789   8.655
38545W        W39409  19.617  13.562   8.651
38546W        W39410  21.313  14.214  10.228
38547W        W39411  20.178  12.012   8.016
38548W        W39412  21.458  14.567   8.912
38549W        W39413  21.163  12.277  10.437
38550W        W39414  21.958  13.795   8.655
38551W        W39415  20.522  13.115   9.922
38552W        W39416  18.073  12.712   8.483
38553W        W39417  19.319  13.222   9.709
38554W        W39418  20.378  12.440   8.235
38555W        W39419  20.397  12.949   8.306
38556W        W39420  18.742  12.129   9.812
38557W        W39421  18.745  12.118  10.329
38558W        W39422  18.602  11.023   8.929
38559W        W39423  20.263  11.474   9.352
38560W        W39424  20.094  11.549  10.449
38561W        W39425  20.356  11.797   7.589
38562W        W39426  21.756  14.088  10.468
38563W        W39427  20.498  11.152  10.432
38564W        W39428  21.529  13.599  10.581
38565W        W39429  21.089  11.583  10.238
38566W        W39430  20.712  11.560   8.476
38567W        W39431  21.230  12.708  10.772
38568W        W39432  19.024  14.171   8.976
38569W        W39433  19.768  11.814   7.735
38570W        W39434  19.071  11.216  10.583
38571W        W39435  21.110  11.853   8.282
38572W        W39436  21.446  12.291   8.233
38573W        W39437  19.343  14.429  10.614
38574W        W39438  19.146  11.049   7.813
38575W        W39439  21.520  11.462   8.870
38576W        W39440  21.724  13.853   7.362
38577W        W39441  18.450  12.896   9.174
38578W        W39442  20.370  11.619   7.001
38579W        W39443  21.742  13.917   9.115
38580W        W39444  21.624  11.120   9.752
38581W        W39445  20.243  12.464  10.374
38582W        W39446  20.016  13.677   7.865
38583W        W39447  20.554  13.125  10.834
38584W        W39448  20.263  11.007   9.142
38585W        W39449  19.022  11.953   9.363
38586W        W39450  18.509  13.132   9.891
38587W        W39451  20.548  14.379   8.791
38588W        W39452  21.431  12.156   9.556
38589W        W39453  20.378  14.369  10.218
38590W        W39454  21.546  13.403   7.570
38591W        W39455  19.986  12.671   8.580
38592W        W39456  21.734  11.061  10.267
38593W        W39457  20.026  13.137   9.938
38594W        W39458  19.987  11.933   9.269
38595W        W39459  20.904  12.337   8.113
38596W        W39460  21.213  12.054   7.799
38597W        W39461  21.252  14.079   8.198
38598W        W39462  20.971  13.480   9.010
38599W        W39463  20.711  12.778   7.881
38600W        W39464  20.373  12.915   8.827
38601W        W39465  21.277  12.798   9.018
38602W        W39466  18.685  11.629   9.579
38603W        W39467  21.232  12.764  10.259
38604W        W39468  21.704  14.358   9.386
38605W        W39469  19.798  13.921   8.971
38606W        W39470  20.861  14.392  10.004
38607W        W39471  20.415  11.676   9.810
38608W        W39472  19.962  14.522   9.948
38609W        W39473  21.445  11.418   8.373
38610W        W39474  21.241  12.655   9.539
38611W        W39475  18.299  11.842   9.868
38612W        W39476  21.093  11.770   8.815
38613W        W39477  21.341  11.985  10.032
38614W        W39478  20.513  13.419   8.750
38615W        W39479  19.824  14.225   8.511
38616W        W39480  18.839  11.449   7.698
38617W        W39481  19.952  11.101   9.542
38618W        W39482  18.889  14.413   7.604
38619W        W39483  19.449  12.853   7.916
38620W        W39484  20.025  13.393  10.377
38621W        W39485  19.827  11.419   8.367
38622W        W39486  21.045  11.268   8.736
38623W        W39487  20.936  14.559   9.082
38624W        W39488  20.422  14.155   9.261
38625W        W39489  19.797  13.165   9.490
38626W        W39490  21.505  13.927   9.594
38627W        W39491  19.004  11.360   8.196
38628W        W39492  20.037  13.826   9.422
38629W        W39493  19.097  11.596   7.187
38630W        W39494  19.960  12.154   9.714
38631W        W39495  20.753  11.443   9.492
38632W        W39496  18.176  12.882   9.602
38633W        W39497  19.780  12.663   7.593
38634W        W39498  19.156  11.101   7.292
38635W        W39499  20.032  12.167   8.510
38636W        W39500  20.749  11.295   9.980
38637W        W39501  19.552  13.252  10.170
38638W        W39502  20.350  12.975  10.387
38639W        W39503  20.844  13.076  10.370
38640W        W39504  20.058  11.239  10.943
38641W        W39505  19.324  11.674   9.014
38642W        W39506  18.849  11.667   8.598
38643W        W39507  18.776  14.305   8.543
38644W        W39508  20.162  13.900  10.389
38645W        W39509  19.331  13.350   7.830
38646W        W39510  20.774  12.638   9.069
38647W        W39511  20.851  12.295   9.466
38648W        W39512  20.228  12.890   9.419
38649W        W39513  20.710  13.408   7.291
38650W        W39514  20.146  11.422   8.846
38651W        W39515  21.579  11.776   8.039
38652W        W39516  18.491  14.229  10.362
38653W        W39517  18.868  13.485   9.755
38654W        W39518  18.411  14.666   8.151
38655W        W39519  19.926  11.605   9.737
38656W        W39520  19.266  13.854   7.732
38657W        W39521  21.186  14.130   7.679
38658W        W39522  20.209  12.726   7.847
38659W        W39523  19.699  11.909   8.230
38660W        W39524  19.967  11.757   7.271
38661W        W39525  20.546  13.493  10.468
38662W        W39526  21.011  11.365   8.104
38663W        W39527  18.310  11.026   7.657
38664W        W39528  19.841  13.606   9.869
38665W        W39529  19.537  13.279   9.073
38666W        W39530  19.191  13.492   7.340
38667W        W39531  18.576  13.813   8.257
38668W        W39532  18.919  12.565  10.486
38669W        W39533  19.575  11.228  10.740
38670W        W39534  20.212  11.239  10.004
38671W        W39535  19.426  11.095   8.353
38672W        W39536  20.549  11.391   7.837
38673W        W39537  18.487  11.161   9.402
38674W        W39538  18.528  11.943   8.882
38675W        W39539  21.192  11.369   9.231
38676W        W39540  18.702  11.800   8.113
38677W        W39541  21.196  11.459   9.743
38678W        W39542  21.375  12.798   7.463
38679W        W39543  18.822  11.516   9.101
38680W        W39544  20.168  11.979  10.147
38681W        W39545  18.293  11.520   7.558
38682W        W39546  18.994  13.097  10.088
38683W        W39547  20.332  12.389   9.313
38684W        W39548  20.150  14.418   7.583
38685W        W39549  18.397  12.851   7.250
38686W        W39550  19.170  13.536  10.386
38687W        W39551  18.673  12.638  10.040
38688W        W39552  19.636  12.812   9.843
38689W        W39553  21.229  11.061  10.113
38690W        W39554  21.909  12.806  10.130
38691W        W39555  21.683  12.979   7.833
38692W        W39556  20.364  13.104   7.544
38693W        W39557  21.042  14.494   7.348
38694W        W39558  20.325  12.654  10.867
38695W        W39559  18.752  13.456  10.734
38696W        W39560  21.883  11.555  10.776
38697W        W39561  21.212  12.310   9.114
38698W        W39562  19.774  14.514  10.858
38699W        W39563  19.625  11.025   7.633
38700W        W39564  21.141  13.677   7.427
38701W        W39565  19.167  11.825  10.355
38702W        W39566  19.655  13.771  10.320
38703W        W39567  21.586  11.527  10.062
38704W        W39568  20.898  14.540   7.861
38705W        W39569  21.108  13.123   9.367
38706W        W39570  19.175  11.372  10.114
38707W        W39571  19.820  12.568  10.730
38708W        W39572  19.222  13.582   8.290
38709W        W39573  20.918  13.059   8.251
38710W        W39574  18.731  11.649  10.086
38711W        W39575  20.026  13.752   8.401
38712W        W39576  21.580  12.385   8.758
38713W        W39577  19.983  11.045  10.443
38714W        W39578  21.016  13.797   9.403
38715W        W39579  21.277  14.170   9.175
38716W        W39580  20.205  13.940   7.399
38717W        W39581  18.366  13.754  10.571
38718W        W39582  19.146  11.816   9.842
38719W        W39583  19.079  11.237   8.752
38720W        W39584  20.523  11.910   9.375
38721W        W39585  19.463  13.051   7.426
38722W        W39586  21.621  13.055   9.311
38723W        W39587  18.862  13.926  10.542
38724W        W39588  21.291  14.595   8.269
38725W        W39589  19.362  11.613   8.496
38726W        W39590  18.986  12.900   9.035
38727W        W39591  19.563  14.549   9.641
38728W        W39592  21.500  14.532  10.580
38729W        W39593  20.701  12.768   9.570
38730W        W39594  18.602  12.347   7.237
38731W        W39595  21.598  14.173   8.579
38732W        W39596  21.222  11.548   7.666
38733W        W39597  19.444  10.954  10.315
38734W        W39598  21.334  13.791   8.817
38735W        W39599  21.100  12.254   8.613
38736W        W39600  19.508  12.175   8.643
38737W        W39601  19.777  12.393  10.128
38738W        W39602  20.861  13.497  10.073
38739W        W39603  19.616  11.908  10.060
38740W        W39604  19.509  14.345   8.922
38741W        W39605  18.842  14.424  10.696
38742W        W39606  18.899  13.943   7.339
38743W        W39607  21.549  13.680   8.355
38744W        W39608  19.164  12.280  10.094
38745W        W39609  21.576  11.845   7.416
38746W        W39610  19.697  13.396   8.179
38747W        W39611  20.637  12.657  10.080
38748W        W39612  20.472  12.230   9.801
38749W        W39613  19.136  12.691   9.797
38750W        W39614  21.313  14.403   9.726
38751W        W39615  20.959  11.322  10.695
38752W        W39616  18.625  11.176  10.323
38753W        W39617  19.086  12.463   9.312
38754W        W39618  19.573  12.080   7.309
38755W        W39619  18.253  13.806  10.080
38756W        W39620  19.825  12.569   9.425
38757W        W39621  19.556  11.468   7.396
38758W        W39622  19.027  12.577   8.635
38759W        W39623  18.462  14.323   9.844
38760W        W39624  21.244  12.722   7.992
38761W        W39625  21.462  11.401  10.536
38762W        W39626  21.039  13.518   8.477
38763W        W39627  18.395  12.542  10.487
38764W        W39628  21.452  11.090   7.908
38765W        W39629  21.193  13.595   7.962
38766W        W39630  19.875  12.419   8.083
38767W        W39631  20.748  11.515   7.361
38768W        W39632  20.877  11.880   9.832
38769W        W39633  18.654  12.440   9.022
38770W        W39634  19.153  13.329   8.750
38771W        W39635  20.630  12.066   8.477
38772W        W39636  19.765  11.480   9.235
38773W        W39637  21.766  13.476   9.696
38774W        W39638  21.632  11.586   9.494
38775W        W39639  18.437  14.189   8.939
38776W        W39640  18.748  13.353   8.430
38777W        W39641  18.627  11.256  10.860
38778W        W39642  19.873  14.001  10.805
38779W        W39643  21.751  12.874   8.821
38780W        W39644  21.088  13.144   7.727
38781W        W39645  20.428  14.450   9.705
38782W        W39646  21.142  13.256  10.751
38783W        W39647  19.853  10.971   8.090
38784W        W39648  20.307  11.913   8.883
38785W        W39649  18.513  13.359   9.405
38786W        W39650  19.491  11.430   7.953
38787W        W39651  19.546  13.052  10.664
38788W        W39652  20.233  11.714   8.420
38789W        W39653  20.764  13.411   9.596
38790W        W39654  18.809  13.955  10.010
38791W        W39655  19.360  13.918  10.736
38792W        W39656  19.241  11.811   7.637
38793W        W39657  20.694  11.873   7.983
38794W        W39658  20.656  13.950  10.191
38795W        W39659  19.464  12.628   8.913
38796W        W39660  19.149  14.269   9.768
38797W        W39661  21.549  14.329   7.359
38798W        W39662  18.561  13.022  10.398
38799W        W39663  20.615  13.143   9.201
38800W        W39664  19.180  13.059   8.307
38801W        W39665  19.636  14.102   9.890
38802W        W39666  19.611  11.268   8.805
38803W        W39667  18.080  13.315   7.851
38804W        W39668  20.022  12.221   7.562
38805W        W39669  18.559  12.851   8.673
38806W        W39670  19.699  11.372  10.138
38807W        W39671  21.471  11.206   7.350
38808W        W39672  21.613  13.021  10.530
38809W        W39673  20.239  14.359  10.714
38810W        W39674  21.853  13.339  10.186
38811W        W39675  21.324  14.075  10.751
38812W        W39676  19.173  14.518   9.318
38813W        W39677  21.843  13.267   8.485
38814W        W39678  20.388  12.411   8.787
38815W        W39679  20.009  10.980   8.629
38816W        W39680  19.365  14.003   8.574
38817W        W39681  19.535  11.832   9.524
38818W        W39682  19.490  11.054   9.262
38819W        W39683  18.567  14.215   7.948
38820W        W39684  20.048  13.244   8.575
38821W        W39685  19.252  14.090  10.248
38822W        W39686  18.325  13.118   8.269
38823W        W39687  18.326  11.463   8.975
38824W        W39688  20.055  13.424   9.067
38825W        W39689  18.429  11.386   8.024
38826W        W39690  21.028  12.381   9.933
38827W        W39691  20.817  12.002   7.470
38828W        W39692  21.422  13.532   9.267
38829W        W39693  20.290  13.911   8.826
38830W        W39694  19.383  14.326   7.928
38831W        W39695  20.476  11.126   7.157
38832W        W39696  18.720  14.230   9.391
38833W        W39697  20.452  12.130  10.741
38834W        W39698  18.733  11.670  10.587
38835W        W39699  18.405  12.152   8.397
38836W        W39700  19.496  12.267   7.781
38837W        W39701  20.745  12.605  10.574
38838W        W39702  19.396  12.865   9.362
38839W        W39703  20.541  11.109   8.715
38840W        W39704  20.049  14.406   8.948
38841W        W39705  21.072  13.933   9.884
38842W        W39706  20.830  13.987   8.969
38843W        W39707  20.889  13.047   8.766
38844W        W39708  20.028  11.373   7.639
38845W        W39709  21.778  11.067   8.669
38846W        W39710  19.340  12.548   7.326
38847W        W39711  21.526  11.901   8.577
38848W        W39712  19.872  13.169   7.721
38849W        W39713  21.306  13.297  10.228
38850W        W39714  20.639  14.217   7.545
38851W        W39715  19.618  11.697  10.547
38852W        W39716  19.459  12.311   9.679
38853W        W39717  21.539  13.763  10.089
38854W        W39718  20.572  11.662  10.289
38855W        W39719  18.255  12.073  10.332
38856W        W39720  20.154  12.641   9.870
38857W        W39721  18.672  13.295   8.931
38858W        W39722  18.623  12.550   9.534
38859W        W39723  21.019  13.022   9.874
38860W        W39724  20.909  14.349  10.536
38861W        W39725  20.678  12.168  10.268
38862W        W39726  21.093  14.299   8.658
38863W        W39727  20.144  14.044   9.887
38864W        W39728  19.514  14.116   9.376
38865W        W39729  21.259  13.468   9.744
38866W        W39730  20.228  13.580  10.847
38867W        W39731  19.065  13.382   9.272
38868W        W39732  21.373  13.236   8.744
38869W        W39733  20.870  14.274   9.495
38870W        W39734  19.079  13.862   9.483
38871W        W39735  19.954  12.087  10.589
38872W        W39736  20.067  14.182   8.051
38873W        W39737  19.721  13.524  10.765
38874W        W39738  19.608  13.907   8.128
38875W        W39739  19.068  12.105   7.160
38876W        W39740  18.276  14.661  14.402
38877W        W39741  18.749  13.510  13.848
38878W        W39742  21.565  13.137  11.817
38879W        W39743  21.597  14.309  13.708
38880W        W39744  19.304  14.282  11.113
38881W        W39745  19.648  12.453  11.957
38882W        W39746  19.137  12.360  12.618
38883W        W39747  20.002  12.965  11.708
38884W        W39748  19.784  14.244  13.960
38885W        W39749  18.309  11.725  13.875
38886W        W39750  18.930  11.040  13.767
38887W        W39751  20.740  11.459  12.576
38888W        W39752  20.548  12.335  11.222
38889W        W39753  21.019  11.718  14.241
38890W        W39754  18.422  11.328  13.533
38891W        W39755  18.476  14.191  14.537
38892W        W39756  19.903  13.660  11.245
38893W        W39757  18.416  12.163  12.954
38894W        W39758  19.432  12.272  14.070
38895W        W39759  21.417  11.754  12.855
38896W        W39760  21.646  13.100  13.606
38897W        W39761  19.993  12.336  12.549
38898W        W39762  20.517  13.723  12.895
38899W        W39763  18.985  13.032  13.069
38900W        W39764  18.232  12.639  12.900
38901W        W39765  19.466  12.718  13.796
38902W        W39766  21.468  12.348  14.157
38903W        W39767  19.116  13.887  12.507
38904W        W39768  20.386  13.541  13.691
38905W        W39769  19.594  12.263  12.883
38906W        W39770  19.752  13.087  12.520
38907W        W39771  20.520  13.860  14.355
38908W        W39772  19.979  13.036  14.478
38909W        W39773  19.948  12.846  13.971
38910W        W39774  18.209  12.043  14.276
38911W        W39775  21.045  13.682  14.141
38912W        W39776  18.695  11.141  11.958
38913W        W39777  19.258  13.471  13.105
38914W        W39778  21.796  13.431  12.645
38915W        W39779  20.963  11.668  13.116
38916W        W39780  21.304  11.721  10.903
38917W        W39781  21.875  12.315  13.384
38918W        W39782  19.793  14.202  13.076
38919W        W39783  21.661  13.828  11.489
38920W        W39784  18.694  14.456  11.722
38921W        W39785  19.113  14.419  12.018
38922W        W39786  19.033  11.252  13.316
38923W        W39787  21.427  12.276  13.629
38924W        W39788  20.850  12.578  12.086
38925W        W39789  20.817  12.758  11.083
38926W        W39790  20.167  13.536  13.217
38927W        W39791  19.984  11.799  12.394
38928W        W39792  20.549  13.898  13.388
38929W        W39793  21.221  12.773  12.365
38930W        W39794  20.392  11.290  11.779
38931W        W39795  19.157  14.087  11.587
38932W        W39796  18.323  11.445  12.143
38933W        W39797  20.946  12.299  12.526
38934W        W39798  18.609  13.960  12.629
38935W        W39799  19.760  14.152  11.280
38936W        W39800  20.949  12.282  10.916
38937W        W39801  18.447  13.902  13.111
38938W        W39802  19.220  13.519  13.614
38939W        W39803  19.581  12.975  12.054
38940W        W39804  19.544  11.364  13.272
38941W        W39805  21.624  11.047  12.893
38942W        W39806  19.047  13.051  10.592
38943W        W39807  18.714  11.713  11.100
38944W        W39808  18.889  13.910  12.027
38945W        W39809  19.599  13.494  12.138
38946W        W39810  21.178  14.152  13.955
38947W        W39811  20.286  11.915  11.392
38948W        W39812  21.515  14.358  12.629
38949W        W39813  21.005  12.192  14.000
38950W        W39814  21.990  13.820  12.353
38951W        W39815  20.565  13.057  13.713
38952W        W39816  18.144  12.671  11.977
38953W        W39817  19.360  13.071  13.425
38954W        W39818  20.498  12.240  11.714
38955W        W39819  20.387  12.684  11.904
38956W        W39820  18.667  12.131  13.397
38957W        W39821  18.684  12.121  13.911
38958W        W39822  18.689  11.043  12.485
38959W        W39823  20.260  11.524  12.776
38960W        W39824  20.150  11.554  14.061
38961W        W39825  20.471  11.446  11.287
38962W        W39826  21.630  14.142  14.218
38963W        W39827  20.507  11.043  14.019
38964W        W39828  21.530  13.631  14.301
38965W        W39829  21.078  11.575  13.712
38966W        W39830  20.761  11.556  12.063
38967W        W39831  21.200  12.716  14.437
38968W        W39832  18.925  14.369  12.511
38969W        W39833  19.778  11.958  11.412
38970W        W39834  19.122  11.319  14.172
38971W        W39835  21.185  11.791  11.884
38972W        W39836  21.510  12.139  11.680
38973W        W39837  19.307  14.393  14.189
38974W        W39838  19.080  11.048  11.603
38975W        W39839  21.567  11.403  12.503
38976W        W39840  21.770  13.833  10.968
38977W        W39841  18.534  13.052  12.852
38978W        W39842  20.484  11.551  10.782
38979W        W39843  21.792  13.906  12.843
38980W        W39844  21.662  11.019  13.425
38981W        W39845  20.277  12.420  14.103
38982W        W39846  20.104  13.504  11.706
38983W        W39847  20.746  13.063  14.535
38984W        W39848  20.380  11.048  12.615
38985W        W39849  18.802  11.930  12.719
38986W        W39850  18.831  13.083  13.548
38987W        W39851  20.626  14.145  12.589
38988W        W39852  21.399  11.804  13.385
38989W        W39853  20.338  14.280  13.727
38990W        W39854  21.216  13.041  11.399
38991W        W39855  19.996  12.729  12.212
38992W        W39856  21.751  11.028  13.937
38993W        W39857  20.064  13.170  13.586
38994W        W39858  20.031  11.969  12.893
38995W        W39859  20.999  12.270  11.687
38996W        W39860  21.172  11.994  11.304
38997W        W39861  21.306  14.033  11.829
38998W        W39862  20.987  13.231  12.508
38999W        W39863  20.837  12.763  11.612
39000W        W39864  20.243  12.887  12.618
39001W        W39865  21.226  12.631  12.866
39002W        W39866  18.618  11.676  13.151
39003W        W39867  21.295  12.722  13.838
39004W        W39868  21.797  14.377  13.079
39005W        W39869  19.651  13.953  12.522
39006W        W39870  20.844  14.391  13.620
39007W        W39871  20.551  11.689  13.450
39008W        W39872  19.918  14.461  13.508
39009W        W39873  21.530  11.393  11.959
39010W        W39874  21.495  12.713  13.315
39011W        W39875  18.205  11.898  13.371
39012W        W39876  21.108  11.796  12.417
39013W        W39877  21.426  11.870  13.921
39014W        W39878  20.503  13.534  12.393
39015W        W39879  19.869  14.300  12.142
39016W        W39880  18.672  11.272  11.384
39017W        W39881  20.049  11.103  13.000
39018W        W39882  18.806  14.389  11.218
39019W        W39883  19.522  12.836  11.547
39020W        W39884  20.100  13.353  14.076
39021W        W39885  19.924  11.434  11.982
39022W        W39886  21.128  11.273  12.271
39023W        W39887  21.025  14.466  12.724
39024W        W39888  20.293  14.178  13.033
39025W        W39889  19.686  13.171  13.019
39026W        W39890  21.594  13.965  13.325
39027W        W39891  19.164  11.386  11.978
39028W        W39892  19.756  13.707  12.961
39029W        W39893  19.186  11.638  10.852
39030W        W39894  19.996  12.324  13.257
39031W        W39895  20.655  11.234  13.029
39032W        W39896  18.382  12.951  13.340
39033W        W39897  19.929  12.778  11.196
39034W        W39898  19.148  11.181  11.094
39035W        W39899  20.125  12.242  12.067
39036W        W39900  20.773  11.209  13.537
39037W        W39901  19.622  13.228  13.852
39038W        W39902  20.408  12.923  14.178
39039W        W39903  20.925  12.972  14.066
39040W        W39904  20.127  11.193  14.448
39041W        W39905  19.310  11.851  12.780
39042W        W39906  18.823  11.537  12.321
39043W        W39907  18.541  14.240  12.184
39044W        W39908  20.158  13.875  13.980
39045W        W39909  19.190  13.276  11.375
39046W        W39910  20.760  12.755  12.695
39047W        W39911  20.856  12.307  13.023
39048W        W39912  20.196  13.022  13.116
39049W        W39913  20.773  13.582  10.946
39050W        W39914  20.327  11.430  12.280
39051W        W39915  21.850  11.736  11.737
39052W        W39916  18.448  14.372  13.983
39053W        W39917  18.712  13.469  13.232
39054W        W39918  18.210  14.297  11.796
39055W        W39919  20.053  11.558  13.248
39056W        W39920  19.402  13.758  11.260
39057W        W39921  21.338  14.200  11.342
39058W        W39922  20.389  12.785  11.393
39059W        W39923  19.757  11.913  11.929
39060W        W39924  20.030  11.748  10.970
39061W        W39925  20.631  13.396  14.119
39062W        W39926  21.070  11.295  11.731
39063W        W39927  18.295  10.985  11.176
39064W        W39928  19.695  13.492  13.419
39065W        W39929  19.437  13.492  12.628
39066W        W39930  19.239  13.435  10.891
39067W        W39931  18.362  13.814  11.925
39068W        W39932  19.003  12.576  13.989
39069W        W39933  19.599  11.185  14.370
39070W        W39934  20.272  11.291  13.633
39071W        W39935  19.597  11.068  12.103
39072W        W39936  20.722  11.024  11.458
39073W        W39937  18.598  11.162  13.069
39074W        W39938  18.430  11.904  12.336
39075W        W39939  21.167  11.287  12.805
39076W        W39940  18.678  11.616  11.779
39077W        W39941  21.241  11.276  13.313
39078W        W39942  21.234  12.520  11.304
39079W        W39943  18.971  11.454  12.841
39080W        W39944  20.082  11.922  13.609
39081W        W39945  18.221  11.488  11.211
39082W        W39946  19.133  13.117  13.951
39083W        W39947  20.360  12.455  12.908
39084W        W39948  20.132  14.502  11.226
39085W        W39949  18.207  12.632  10.989
39086W        W39950  19.200  13.674  14.087
39087W        W39951  18.618  12.580  13.652
39088W        W39952  19.782  12.791  13.390
39089W        W39953  21.229  11.073  13.809
39090W        W39954  21.798  12.646  13.759
39091W        W39955  21.766  12.600  11.708
39092W        W39956  20.495  13.163  11.778
39093W        W39957  21.181  14.533  10.983
39094W        W39958  20.311  12.661  14.611
39095W        W39959  18.758  13.642  14.357
39096W        W39960  21.906  11.402  14.435
39097W        W39961  21.375  12.222  13.118
39098W        W39962  19.794  14.366  14.466
39099W        W39963  19.632  11.023  11.240
39100W        W39964  21.273  13.694  11.100
39101W        W39965  19.110  11.845  14.040
39102W        W39966  19.671  13.740  13.870
39103W        W39967  21.578  11.442  13.687
39104W        W39968  21.027  14.606  11.498
39105W        W39969  21.036  13.093  13.016
39106W        W39970  19.273  11.501  13.703
39107W        W39971  19.831  12.511  14.351
39108W        W39972  19.220  13.611  11.769
39109W        W39973  21.032  13.112  11.978
39110W        W39974  18.787  11.674  13.659
39111W        W39975  20.007  13.798  12.126
39112W        W39976  21.472  12.206  12.596
39113W        W39977  19.972  11.044  13.990
39114W        W39978  20.953  13.646  13.126
39115W        W39979  21.268  14.015  12.926
39116W        W39980  20.282  14.018  11.132
39117W        W39981  18.368  13.862  14.105
39118W        W39982  19.134  11.759  13.271
39119W        W39983  19.213  11.202  12.469
39120W        W39984  20.526  11.920  12.993
39121W        W39985  19.657  13.205  11.156
39122W        W39986  21.714  13.206  13.114
39123W        W39987  18.845  14.044  14.011
39124W        W39988  21.341  14.541  11.964
39125W        W39989  19.531  11.574  12.315
39126W        W39990  19.228  13.028  12.612
39127W        W39991  19.504  14.586  13.238
39128W        W39992  21.328  14.555  14.234
39129W        W39993  20.643  12.786  13.220
39130W        W39994  18.546  12.192  10.820
39131W        W39995  21.676  14.175  12.167
39132W        W39996  21.427  11.584  11.469
39133W        W39997  19.474  11.052  13.832
39134W        W39998  21.464  13.802  12.468
39135W        W39999  21.259  12.251  12.129
39136W        W40000  19.559  12.105  12.382
39137W        W40001  19.864  12.383  13.763
39138W        W40002  20.900  13.515  13.667
39139W        W40003  19.570  11.932  13.725
39140W        W40004  19.439  14.403  12.418
39141W        W40005  18.826  14.494  14.309
39142W        W40006  18.937  13.901  11.060
39143W        W40007  21.624  13.671  11.995
39144W        W40008  19.114  12.160  13.641
39145W        W40009  21.725  11.889  11.170
39146W        W40010  19.629  13.323  11.652
39147W        W40011  20.692  12.563  13.818
39148W        W40012  20.498  12.268  13.391
39149W        W40013  19.084  12.642  13.453
39150W        W40014  21.272  14.403  13.292
39151W        W40015  20.964  11.187  14.242
39152W        W40016  18.594  11.329  14.031
39153W        W40017  19.091  12.241  13.108
39154W        W40018  19.566  12.013  10.941
39155W        W40019  18.404  13.823  13.602
39156W        W40020  19.870  12.694  12.893
39157W        W40021  19.583  11.532  11.158
39158W        W40022  19.103  12.724  12.218
39159W        W40023  18.566  14.313  13.479
39160W        W40024  21.292  12.684  11.843
39161W        W40025  21.445  11.411  14.184
39162W        W40026  21.103  13.630  12.129
39163W        W40027  18.460  12.499  14.164
39164W        W40028  21.536  11.083  11.516
39165W        W40029  21.257  13.520  11.637
39166W        W40030  20.028  12.428  11.577
39167W        W40031  20.990  11.438  11.222
39168W        W40032  20.951  12.036  13.498
39169W        W40033  18.658  12.598  12.598
39170W        W40034  19.092  13.438  12.244
39171W        W40035  20.771  12.061  12.098
39172W        W40036  19.728  11.558  12.827
39173W        W40037  21.876  13.562  13.460
39174W        W40038  21.721  11.472  13.178
39175W        W40039  18.331  14.388  12.626
39176W        W40040  18.725  13.433  11.841
39177W        W40041  18.674  11.339  14.538
39178W        W40042  20.017  13.870  14.462
39179W        W40043  21.573  12.965  12.691
39180W        W40044  20.723  13.208  11.320
39181W        W40045  20.452  14.569  13.326
39182W        W40046  21.207  13.247  14.424
39183W        W40047  19.944  11.011  11.674
39184W        W40048  20.469  11.925  12.479
39185W        W40049  18.333  13.512  12.775
39186W        W40050  19.535  11.322  11.642
39187W        W40051  19.517  12.938  14.264
39188W        W40052  20.308  11.791  11.909
39189W        W40053  20.618  13.308  13.288
39190W        W40054  18.895  13.892  13.514
39191W        W40055  19.534  13.961  14.327
39192W        W40056  19.110  11.557  11.442
39193W        W40057  20.755  11.781  11.603
39194W        W40058  20.693  13.942  13.877
39195W        W40059  19.556  12.621  12.477
39196W        W40060  19.078  14.327  13.331
39197W        W40061  21.695  14.330  11.007
39198W        W40062  18.615  12.980  14.001
39199W        W40063  20.576  13.221  12.799
39200W        W40064  19.132  13.101  11.856
39201W        W40065  19.416  13.921  13.309
39202W        W40066  19.899  11.234  12.489
39203W        W40067  18.206  13.050  11.602
39204W        W40068  20.051  12.261  11.076
39205W        W40069  18.736  13.077  12.379
39206W        W40070  19.791  11.465  13.709
39207W        W40071  21.465  11.257  11.036
39208W        W40072  21.613  12.947  14.170
39209W        W40073  20.264  14.313  14.237
39210W        W40074  21.855  13.400  13.962
39211W        W40075  21.192  14.022  14.480
39212W        W40076  19.104  14.661  12.917
39213W        W40077  21.930  13.309  12.182
39214W        W40078  20.461  12.462  12.387
39215W        W40079  20.147  10.947  12.145
39216W        W40080  19.400  13.992  12.082
39217W        W40081  19.644  11.881  13.228
39218W        W40082  19.561  11.049  12.859
39219W        W40083  18.668  13.971  11.533
39220W        W40084  20.105  13.241  12.169
39221W        W40085  19.305  14.103  13.772
39222W        W40086  18.635  12.901  11.907
39223W        W40087  18.467  11.485  12.672
39224W        W40088  20.101  13.398  12.717
39225W        W40089  18.237  11.162  11.682
39226W        W40090  21.032  12.538  13.433
39227W        W40091  20.718  11.864  11.103
39228W        W40092  21.340  13.471  12.846
39229W        W40093  20.146  13.910  12.612
39230W        W40094  19.576  14.335  11.730
39231W        W40095  20.552  11.064  10.956
39232W        W40096  18.699  14.341  12.979
39233W        W40097  20.604  12.013  14.351
39234W        W40098  18.647  11.780  14.283
39235W        W40099  18.123  12.148  11.907
39236W        W40100  19.580  12.418  11.245
39237W        W40101  20.735  12.527  14.349
39238W        W40102  19.373  12.708  13.016
39239W        W40103  20.673  11.047  12.162
39240W        W40104  19.969  14.399  12.640
39241W        W40105  21.099  13.958  13.492
39242W        W40106  20.955  13.744  12.612
39243W        W40107  20.590  13.004  12.265
39244W        W40108  19.996  11.482  11.460
39245W        W40109  21.790  11.025  12.233
39246W        W40110  19.314  12.609  10.816
39247W        W40111  21.581  11.842  12.213
39248W        W40112  20.191  13.234  11.260
39249W        W40113  21.307  13.300  13.918
39250W        W40114  20.903  14.098  11.054
39251W        W40115  19.564  11.644  14.160
39252W        W40116  19.508  12.357  13.394
39253W        W40117  21.501  13.777  13.806
39254W        W40118  20.638  11.533  13.939
39255W        W40119  18.200  12.221  13.797
39256W        W40120  20.249  12.679  13.568
39257W        W40121  18.597  13.570  12.319
39258W        W40122  18.694  12.590  13.123
39259W        W40123  21.057  13.048  13.524
39260W        W40124  20.798  14.289  14.254
39261W        W40125  20.530  12.037  13.847
39262W        W40126  21.138  14.170  12.314
39263W        W40127  19.992  13.940  13.487
39264W        W40128  19.327  14.206  12.872
39265W        W40129  21.355  13.480  13.396
39266W        W40130  20.345  13.401  14.543
39267W        W40131  18.887  13.445  12.732
39268W        W40132  21.439  13.278  12.300
39269W        W40133  20.812  14.215  13.104
39270W        W40134  18.959  13.885  13.009
39271W        W40135  19.925  12.021  14.113
39272W        W40136  20.093  14.136  11.672
39273W        W40137  19.661  13.454  14.325
39274W        W40138  19.685  13.829  11.695
39275W        W40139  19.052  12.127  10.764
39276W        W40140  18.339  14.641  17.860
39277W        W40141  18.755  13.421  17.613
39278W        W40142  21.430  13.261  15.315
39279W        W40143  21.617  14.281  17.353
39280W        W40144  19.398  14.277  14.800
39281W        W40145  19.601  12.527  15.872
39282W        W40146  19.157  12.249  16.258
39283W        W40147  20.206  12.947  15.458
39284W        W40148  19.817  14.249  17.729
39285W        W40149  18.307  11.686  17.668
39286W        W40150  18.954  11.020  17.490
39287W        W40151  20.783  11.448  16.263
39288W        W40152  20.614  12.252  14.818
39289W        W40153  20.907  11.859  17.857
39290W        W40154  18.466  11.377  17.270
39291W        W40155  18.521  14.193  18.092
39292W        W40156  19.909  13.488  14.790
39293W        W40157  18.370  12.203  16.655
39294W        W40158  19.384  12.194  17.880
39295W        W40159  21.812  11.886  16.408
39296W        W40160  21.444  12.978  17.109
39297W        W40161  19.924  12.516  16.321
39298W        W40162  20.480  13.763  16.670
39299W        W40163  18.944  13.072  16.819
39300W        W40164  18.165  12.685  16.599
39301W        W40165  19.410  12.617  17.593
39302W        W40166  21.500  12.458  17.806
39303W        W40167  19.181  13.886  16.456
39304W        W40168  20.259  13.647  17.418
39305W        W40169  19.538  12.265  16.625
39306W        W40170  19.818  13.005  16.405
39307W        W40171  20.666  14.043  18.101
39308W        W40172  19.946  12.994  18.162
39309W        W40173  19.972  12.880  17.645
39310W        W40174  18.127  12.016  18.011
39311W        W40175  21.049  13.642  17.789
39312W        W40176  18.770  11.243  15.644
39313W        W40177  19.233  13.510  16.845
39314W        W40178  21.597  13.431  16.259
39315W        W40179  21.364  11.743  16.758
39316W        W40180  21.313  11.699  14.661
39317W        W40181  21.806  12.544  17.125
39318W        W40182  20.003  14.153  16.799
39319W        W40183  21.552  13.778  15.261
39320W        W40184  18.761  14.668  15.307
39321W        W40185  19.191  14.612  15.623
39322W        W40186  18.936  11.279  17.046
39323W        W40187  21.408  12.239  17.264
39324W        W40188  20.961  12.630  15.776
39325W        W40189  20.841  12.712  14.883
39326W        W40190  20.032  13.655  16.938
39327W        W40191  20.037  11.793  16.063
39328W        W40192  20.405  14.017  17.115
39329W        W40193  21.458  12.755  15.790
39330W        W40194  20.228  11.587  15.304
39331W        W40195  19.105  14.271  15.244
39332W        W40196  18.364  11.544  15.849
39333W        W40197  20.921  12.318  16.216
39334W        W40198  18.649  14.029  16.445
39335W        W40199  19.820  14.014  14.909
39336W        W40200  21.108  12.176  14.526
39337W        W40201  18.342  13.931  16.893
39338W        W40202  19.109  13.685  17.318
39339W        W40203  19.507  13.049  15.967
39340W        W40204  19.391  11.476  16.883
39341W        W40205  21.839  11.095  16.533
39342W        W40206  19.168  13.308  14.436
39343W        W40207  18.651  11.773  14.820
39344W        W40208  18.813  13.826  15.998
39345W        W40209  19.758  13.455  16.158
39346W        W40210  21.162  14.143  17.631
39347W        W40211  20.265  12.118  15.203
39348W        W40212  21.346  14.370  16.411
39349W        W40213  21.042  12.320  17.620
39350W        W40214  21.872  13.800  16.015
39351W        W40215  20.445  13.138  17.462
39352W        W40216  18.141  12.527  15.811
39353W        W40217  19.276  13.160  17.199
39354W        W40218  20.456  12.446  15.602
39355W        W40219  20.519  12.884  15.862
39356W        W40220  18.668  12.186  17.080
39357W        W40221  18.659  12.111  17.772
39358W        W40222  18.611  11.145  16.155
39359W        W40223  20.312  11.591  16.461
39360W        W40224  20.039  11.525  17.773
39361W        W40225  20.341  11.770  14.833
39362W        W40226  21.641  14.133  17.887
39363W        W40227  20.498  11.168  17.762
39364W        W40228  21.550  13.616  18.033
39365W        W40229  21.042  11.837  17.356
39366W        W40230  20.801  11.614  15.744
39367W        W40231  21.148  12.737  18.075
39368W        W40232  19.039  14.280  16.145
39369W        W40233  19.857  11.891  14.969
39370W        W40234  19.193  11.277  17.889
39371W        W40235  21.227  11.837  15.578
39372W        W40236  21.410  12.333  15.416
39373W        W40237  19.345  14.408  17.906
39374W        W40238  19.167  11.101  15.257
39375W        W40239  21.526  11.453  16.359
39376W        W40240  21.664  13.880  14.729
39377W        W40241  18.484  13.099  16.570
39378W        W40242  20.555  11.489  14.440
39379W        W40243  21.710  13.841  16.546
39380W        W40244  21.713  11.084  17.068
39381W        W40245  20.248  12.475  17.750
39382W        W40246  20.173  13.414  15.225
39383W        W40247  20.721  12.852  18.352
39384W        W40248  20.404  11.095  16.303
39385W        W40249  18.811  11.970  16.518
39386W        W40250  18.680  13.031  17.274
39387W        W40251  20.369  14.192  15.959
39388W        W40252  21.721  12.115  16.853
39389W        W40253  20.301  14.356  17.489
39390W        W40254  21.375  12.989  14.854
39391W        W40255  20.003  12.841  15.921
39392W        W40256  21.818  11.105  17.576
39393W        W40257  19.992  13.242  17.262
39394W        W40258  20.092  12.072  16.501
39395W        W40259  20.869  12.379  15.280
39396W        W40260  21.179  12.010  15.077
39397W        W40261  21.200  14.069  15.513
39398W        W40262  21.078  13.532  16.372
39399W        W40263  20.704  12.870  15.378
39400W        W40264  20.319  12.913  16.344
39401W        W40265  21.336  12.639  16.294
39402W        W40266  18.620  11.700  16.898
39403W        W40267  21.236  12.805  17.567
39404W        W40268  21.694  14.290  16.799
39405W        W40269  19.599  13.947  16.118
39406W        W40270  20.775  14.396  17.283
39407W        W40271  20.561  11.867  17.096
39408W        W40272  19.919  14.524  17.194
39409W        W40273  21.578  11.426  15.590
39410W        W40274  21.407  12.537  16.795
39411W        W40275  18.172  11.922  17.034
39412W        W40276  21.080  11.843  16.122
39413W        W40277  21.412  11.960  17.711
39414W        W40278  20.499  13.717  16.161
39415W        W40279  19.872  14.237  15.753
39416W        W40280  18.679  11.290  15.049
39417W        W40281  20.043  11.166  16.701
39418W        W40282  18.886  14.468  14.826
39419W        W40283  19.675  12.902  15.481
39420W        W40284  20.056  13.359  17.781
39421W        W40285  19.887  11.452  15.698
39422W        W40286  21.214  11.371  15.955
39423W        W40287  20.857  14.528  16.463
39424W        W40288  20.417  14.230  16.467
39425W        W40289  19.680  13.230  16.852
39426W        W40290  21.576  13.849  17.057
39427W        W40291  19.277  11.392  15.665
39428W        W40292  19.641  13.694  16.602
39429W        W40293  19.087  11.695  14.530
39430W        W40294  20.129  12.189  17.007
39431W        W40295  20.924  11.112  17.013
39432W        W40296  18.243  13.004  17.007
39433W        W40297  19.954  12.966  15.009
39434W        W40298  19.131  11.141  14.677
39435W        W40299  20.053  12.272  15.886
39436W        W40300  20.928  11.334  17.528
39437W        W40301  19.589  13.213  17.598
39438W        W40302  20.417  12.941  17.933
39439W        W40303  20.879  13.127  17.764
39440W        W40304  20.171  11.226  18.188
39441W        W40305  19.305  11.821  16.512
39442W        W40306  18.836  11.632  16.076
39443W        W40307  18.822  14.260  15.677
39444W        W40308  20.183  13.895  17.864
39445W        W40309  19.644  13.383  15.219
39446W        W40310  20.833  12.835  16.266
39447W        W40311  20.892  12.540  16.668
39448W        W40312  20.138  13.003  16.825
39449W        W40313  20.844  13.577  14.632
39450W        W40314  20.367  11.439  15.919
39451W        W40315  21.655  11.858  15.305
39452W        W40316  18.514  14.259  17.536
39453W        W40317  18.586  13.430  16.968
39454W        W40318  18.359  14.448  15.577
39455W        W40319  20.116  11.640  16.943
39456W        W40320  19.417  13.867  15.223
39457W        W40321  21.213  14.051  14.988
39458W        W40322  20.368  12.601  15.112
39459W        W40323  19.876  11.941  15.512
39460W        W40324  19.957  11.672  14.510
39461W        W40325  20.541  13.517  17.847
39462W        W40326  20.799  11.360  15.288
39463W        W40327  18.243  11.010  14.969
39464W        W40328  19.601  13.585  17.217
39465W        W40329  19.344  13.191  16.464
39466W        W40330  19.426  13.682  14.739
39467W        W40331  18.419  13.943  15.601
39468W        W40332  18.953  12.545  17.855
39469W        W40333  19.674  11.204  18.064
39470W        W40334  20.231  11.286  17.326
39471W        W40335  19.598  11.089  15.920
39472W        W40336  20.451  11.277  14.910
39473W        W40337  18.509  11.215  16.779
39474W        W40338  18.430  12.010  16.159
39475W        W40339  21.341  11.092  16.692
39476W        W40340  18.574  11.674  15.364
39477W        W40341  21.325  11.419  17.151
39478W        W40342  21.297  12.479  14.910
39479W        W40343  18.939  11.451  16.558
39480W        W40344  20.071  11.879  17.402
39481W        W40345  18.216  11.521  14.933
39482W        W40346  19.070  13.002  17.628
39483W        W40347  20.338  12.527  16.669
39484W        W40348  20.230  14.302  14.743
39485W        W40349  18.165  12.667  14.560
39486W        W40350  19.226  13.502  17.801
39487W        W40351  18.608  12.541  17.444
39488W        W40352  19.683  12.840  17.229
39489W        W40353  21.308  11.004  17.453
39490W        W40354  21.770  12.894  17.513
39491W        W40355  21.707  12.822  15.339
39492W        W40356  20.558  13.335  15.571
39493W        W40357  21.047  14.492  14.669
39494W        W40358  20.252  12.566  18.265
39495W        W40359  18.814  13.666  18.075
39496W        W40360  21.838  11.551  17.925
39497W        W40361  21.360  12.149  16.446
39498W        W40362  19.797  14.410  18.207
39499W        W40363  19.570  10.971  14.888
39500W        W40364  21.303  13.533  14.867
39501W        W40365  19.060  11.789  17.807
39502W        W40366  19.691  13.743  17.700
39503W        W40367  21.688  11.781  17.271
39504W        W40368  20.972  14.458  15.196
39505W        W40369  21.079  13.038  16.721
39506W        W40370  19.227  11.496  17.410
39507W        W40371  19.777  12.540  17.972
39508W        W40372  19.527  13.643  15.700
39509W        W40373  21.054  13.149  15.646
39510W        W40374  18.767  11.778  17.385
39511W        W40375  20.055  13.766  15.872
39512W        W40376  21.767  12.351  16.177
39513W        W40377  20.013  11.014  17.746
39514W        W40378  20.914  13.557  16.863
39515W        W40379  21.232  13.940  16.687
39516W        W40380  20.317  13.804  14.887
39517W        W40381  18.410  13.789  17.777
39518W        W40382  19.129  11.910  17.015
39519W        W40383  19.127  11.198  16.139
39520W        W40384  20.608  12.094  16.619
39521W        W40385  19.539  13.138  14.749
39522W        W40386  21.586  13.001  16.609
39523W        W40387  18.930  14.000  17.698
39524W        W40388  21.319  14.575  15.600
39525W        W40389  19.522  11.575  16.096
39526W        W40390  18.912  12.958  16.314
39527W        W40391  19.445  14.492  16.999
39528W        W40392  21.301  14.562  17.875
39529W        W40393  20.616  12.878  16.931
39530W        W40394  18.479  12.240  14.650
39531W        W40395  21.611  14.191  15.795
39532W        W40396  21.271  11.512  15.145
39533W        W40397  19.513  11.039  17.533
39534W        W40398  21.375  13.911  16.166
39535W        W40399  21.332  12.254  15.914
39536W        W40400  19.644  12.087  16.168
39537W        W40401  19.850  12.371  17.439
39538W        W40402  20.767  13.547  17.369
39539W        W40403  19.523  11.932  17.464
39540W        W40404  19.507  14.463  16.064
39541W        W40405  18.850  14.509  17.859
39542W        W40406  19.044  14.055  14.496
39543W        W40407  21.450  13.598  15.745
39544W        W40408  19.062  12.212  17.454
39545W        W40409  21.626  12.087  14.820
39546W        W40410  19.906  13.313  15.663
39547W        W40411  20.683  12.685  17.516
39548W        W40412  20.606  12.377  17.086
39549W        W40413  19.049  12.678  17.205
39550W        W40414  21.214  14.402  16.932
39551W        W40415  21.074  11.392  18.049
39552W        W40416  18.710  11.390  17.730
39553W        W40417  19.050  12.377  16.765
39554W        W40418  19.591  12.043  14.520
39555W        W40419  18.110  13.937  17.356
39556W        W40420  19.855  12.588  16.831
39557W        W40421  19.517  11.531  14.735
39558W        W40422  19.090  12.655  15.938
39559W        W40423  18.476  14.686  17.269
39560W        W40424  21.195  12.790  15.308
39561W        W40425  21.416  11.455  17.664
39562W        W40426  20.965  13.750  15.883
39563W        W40427  18.353  12.497  17.898
39564W        W40428  21.614  11.140  15.148
39565W        W40429  21.047  13.601  15.367
39566W        W40430  19.964  12.481  15.428
39567W        W40431  20.952  11.308  14.755
39568W        W40432  21.047  12.123  16.913
39569W        W40433  18.699  12.483  16.379
39570W        W40434  19.233  13.526  16.103
39571W        W40435  20.840  12.130  15.740
39572W        W40436  19.787  11.649  16.542
39573W        W40437  21.774  13.382  17.209
39574W        W40438  21.833  11.539  16.800
39575W        W40439  18.461  14.299  16.061
39576W        W40440  18.327  13.457  15.700
39577W        W40441  18.751  11.236  18.206
39578W        W40442  19.773  13.901  18.196
39579W        W40443  21.827  12.889  16.187
39580W        W40444  20.946  13.199  15.052
39581W        W40445  20.376  14.500  16.906
39582W        W40446  21.199  13.257  18.143
39583W        W40447  19.698  11.052  15.406
39584W        W40448  20.554  11.922  16.137
39585W        W40449  18.362  13.587  16.531
39586W        W40450  19.592  11.537  15.262
39587W        W40451  19.433  12.943  18.011
39588W        W40452  20.369  11.918  15.669
39589W        W40453  20.450  13.369  17.006
39590W        W40454  18.612  13.812  17.310
39591W        W40455  19.278  13.933  18.079
39592W        W40456  19.103  11.569  15.042
39593W        W40457  20.716  11.874  15.276
39594W        W40458  20.651  13.985  17.590
39595W        W40459  19.420  12.684  16.333
39596W        W40460  18.946  14.222  17.207
39597W        W40461  21.523  14.360  14.699
39598W        W40462  18.554  12.958  17.772
39599W        W40463  20.641  13.263  16.537
39600W        W40464  19.007  13.153  15.824
39601W        W40465  19.376  13.985  16.961
39602W        W40466  19.956  11.309  16.205
39603W        W40467  18.224  13.215  15.258
39604W        W40468  20.154  12.157  14.558
39605W        W40469  18.387  12.831  16.150
39606W        W40470  19.741  11.463  17.293
39607W        W40471  21.456  11.215  14.668
39608W        W40472  21.619  12.966  18.000
39609W        W40473  20.260  14.389  17.994
39610W        W40474  21.885  13.378  17.716
39611W        W40475  21.198  13.994  18.128
39612W        W40476  19.066  14.329  16.681
39613W        W40477  21.772  13.183  15.768
39614W        W40478  20.439  12.447  16.159
39615W        W40479  20.120  10.975  15.855
39616W        W40480  19.341  14.126  15.699
39617W        W40481  19.676  11.911  16.976
39618W        W40482  19.535  11.176  16.459
39619W        W40483  18.570  14.203  15.169
39620W        W40484  20.251  13.296  16.020
39621W        W40485  19.395  14.122  17.461
39622W        W40486  18.499  12.967  15.670
39623W        W40487  18.441  11.568  16.419
39624W        W40488  20.140  13.398  16.510
39625W        W40489  18.292  11.240  15.433
39626W        W40490  21.052  12.601  17.149
39627W        W40491  20.834  11.795  14.766
39628W        W40492  21.422  13.455  16.752
39629W        W40493  20.053  13.877  16.370
39630W        W40494  19.638  14.331  15.307
39631W        W40495  20.581  10.965  14.528
39632W        W40496  18.588  14.371  16.836
39633W        W40497  20.368  12.080  18.063
39634W        W40498  18.610  11.743  18.120
39635W        W40499  18.353  12.065  15.642
39636W        W40500  19.913  12.443  14.901
39637W        W40501  20.711  12.460  18.001
39638W        W40502  19.378  12.794  16.821
39639W        W40503  20.773  11.088  15.891
39640W        W40504  19.967  14.366  16.258
39641W        W40505  21.061  13.946  17.184
39642W        W40506  20.872  14.012  16.338
39643W        W40507  20.768  13.294  16.043
39644W        W40508  19.947  11.349  14.929
39645W        W40509  21.841  11.184  16.023
39646W        W40510  19.333  12.520  14.509
39647W        W40511  21.563  11.783  15.971
39648W        W40512  20.451  13.080  14.952
39649W        W40513  21.390  13.271  17.660
39650W        W40514  20.725  14.113  14.761
39651W        W40515  19.545  11.675  17.929
39652W        W40516  19.446  12.357  17.125
39653W        W40517  21.503  13.770  17.553
39654W        W40518  20.516  11.645  17.562
39655W        W40519  18.245  12.161  17.486
39656W        W40520  20.216  12.691  17.231
39657W        W40521  18.613  13.331  16.098
39658W        W40522  18.627  12.669  16.870
39659W        W40523  20.938  13.088  17.249
39660W        W40524  20.789  14.445  17.807
39661W        W40525  20.569  12.146  17.550
39662W        W40526  21.073  14.289  15.963
39663W        W40527  19.897  14.011  17.289
39664W        W40528  19.563  14.228  16.545
39665W        W40529  21.260  13.472  17.225
39666W        W40530  20.149  13.522  18.260
39667W        W40531  18.867  13.479  16.500
39668W        W40532  21.250  13.104  16.119
39669W        W40533  20.781  14.166  16.818
39670W        W40534  18.864  13.860  16.867
39671W        W40535  19.894  12.050  17.855
39672W        W40536  20.174  14.220  15.245
39673W        W40537  19.653  13.413  18.096
39674W        W40538  19.896  13.819  15.388
39675W        W40539  18.934  12.208  14.362
39676W        W40540  18.118  14.669  21.609
39677W        W40541  18.604  13.506  20.981
39678W        W40542  21.412  13.189  18.914
39679W        W40543  21.719  14.195  20.850
39680W        W40544  19.299  14.329  18.419
39681W        W40545  19.615  12.430  19.248
39682W        W40546  19.125  12.170  19.743
39683W        W40547  19.898  12.865  19.074
39684W        W40548  19.968  14.087  21.331
39685W        W40549  18.286  11.690  21.212
39686W        W40550  18.955  10.987  21.088
39687W        W40551  20.829  11.329  19.910
39688W        W40552  20.304  12.009  18.568
39689W        W40553  20.961  11.808  21.506
39690W        W40554  18.463  11.314  20.825
39691W        W40555  18.278  14.166  21.664
39692W        W40556  19.752  13.580  18.619
39693W        W40557  18.437  12.124  20.267
39694W        W40558  19.485  12.273  21.408
39695W        W40559  21.560  11.841  20.092
39696W        W40560  21.490  13.117  20.823
39697W        W40561  20.098  12.288  19.959
39698W        W40562  20.479  13.548  20.180
39699W        W40563  18.953  13.046  20.282
39700W        W40564  18.182  12.561  20.120
39701W        W40565  19.427  12.692  21.061
39702W        W40566  21.626  12.629  21.566
39703W        W40567  19.140  13.967  19.854
39704W        W40568  20.276  13.617  21.091
39705W        W40569  19.631  12.324  20.171
39706W        W40570  19.681  13.050  19.879
39707W        W40571  20.777  13.865  21.776
39708W        W40572  19.972  12.886  21.780
39709W        W40573  19.895  12.828  21.236
39710W        W40574  17.899  11.949  21.534
39711W        W40575  21.098  13.815  21.372
39712W        W40576  18.796  11.236  19.357
39713W        W40577  19.248  13.489  20.434
39714W        W40578  21.649  13.366  19.838
39715W        W40579  20.937  11.635  20.319
39716W        W40580  21.412  11.768  18.211
39717W        W40581  21.896  12.398  20.732
39718W        W40582  19.946  14.200  20.393
39719W        W40583  21.645  13.642  18.927
39720W        W40584  18.611  14.667  18.902
39721W        W40585  19.015  14.558  19.242
39722W        W40586  19.092  11.253  20.638
39723W        W40587  21.443  12.165  20.891
39724W        W40588  20.815  12.606  19.367
39725W        W40589  20.665  12.369  18.542
39726W        W40590  20.158  13.537  20.572
39727W        W40591  20.101  11.809  19.761
39728W        W40592  20.480  13.919  20.710
39729W        W40593  21.231  12.725  19.083
39730W        W40594  20.461  11.364  19.123
39731W        W40595  18.887  14.168  18.940
39732W        W40596  18.424  11.566  19.502
39733W        W40597  21.109  12.194  19.959
39734W        W40598  18.634  13.944  19.885
39735W        W40599  19.797  14.157  18.659
39736W        W40600  21.165  12.219  18.143
39737W        W40601  18.417  13.895  20.339
39738W        W40602  19.078  13.731  20.866
39739W        W40603  19.509  12.930  19.410
39740W        W40604  19.595  11.418  20.588
39741W        W40605  21.772  11.057  20.097
39742W        W40606  18.949  13.154  18.096
39743W        W40607  18.754  11.867  18.609
39744W        W40608  18.788  13.903  19.402
39745W        W40609  19.685  13.421  19.500
39746W        W40610  21.294  14.249  21.178
39747W        W40611  20.175  11.779  18.993
39748W        W40612  21.471  14.210  19.730
39749W        W40613  21.220  12.315  21.361
39750W        W40614  21.790  13.820  19.609
39751W        W40615  20.455  13.112  21.037
39752W        W40616  18.192  12.661  19.259
39753W        W40617  19.364  13.088  20.727
39754W        W40618  20.461  12.243  19.035
39755W        W40619  20.302  12.648  19.321
39756W        W40620  18.809  12.158  20.624
39757W        W40621  18.644  12.078  21.136
39758W        W40622  18.717  11.054  19.837
39759W        W40623  20.425  11.491  20.197
39760W        W40624  20.065  11.551  21.555
39761W        W40625  20.509  11.523  18.586
39762W        W40626  21.693  14.053  21.429
39763W        W40627  20.716  11.346  21.355
39764W        W40628  21.527  13.588  21.556
39765W        W40629  21.084  11.690  20.995
39766W        W40630  20.865  11.550  19.421
39767W        W40631  21.078  12.690  21.693
39768W        W40632  18.892  14.360  19.689
39769W        W40633  19.772  11.855  18.708
39770W        W40634  19.079  11.360  21.456
39771W        W40635  21.238  11.780  19.126
39772W        W40636  21.456  12.259  19.075
39773W        W40637  19.601  14.446  21.382
39774W        W40638  19.239  11.150  18.911
39775W        W40639  21.628  11.462  19.773
39776W        W40640  21.753  13.879  18.420
39777W        W40641  18.469  12.972  19.984
39778W        W40642  20.503  11.592  18.069
39779W        W40643  21.653  13.837  20.123
39780W        W40644  21.690  11.048  20.646
39781W        W40645  20.322  12.291  21.211
39782W        W40646  20.011  13.425  19.093
39783W        W40647  20.659  12.990  21.840
39784W        W40648  20.427  11.021  19.990
39785W        W40649  18.894  11.943  20.138
39786W        W40650  18.700  13.040  20.742
39787W        W40651  20.419  14.134  19.668
39788W        W40652  21.389  11.758  20.568
39789W        W40653  20.329  14.283  21.039
39790W        W40654  21.417  12.942  18.474
39791W        W40655  19.873  12.627  19.640
39792W        W40656  21.686  11.029  21.172
39793W        W40657  19.946  13.226  20.915
39794W        W40658  20.206  11.938  20.325
39795W        W40659  20.959  12.278  18.993
39796W        W40660  21.217  12.005  18.643
39797W        W40661  21.359  13.923  19.296
39798W        W40662  20.919  13.347  19.896
39799W        W40663  20.775  12.764  18.868
39800W        W40664  20.323  12.757  19.828
39801W        W40665  21.321  12.690  20.068
39802W        W40666  18.723  11.634  20.501
39803W        W40667  21.279  12.806  21.219
39804W        W40668  21.579  14.319  20.299
39805W        W40669  19.612  13.902  19.673
39806W        W40670  20.819  14.417  21.029
39807W        W40671  20.567  11.774  20.682
39808W        W40672  19.877  14.453  20.869
39809W        W40673  21.574  11.385  19.250
39810W        W40674  21.455  12.684  20.601
39811W        W40675  18.361  11.881  20.739
39812W        W40676  21.162  11.696  19.816
39813W        W40677  21.455  11.863  21.311
39814W        W40678  20.412  13.514  19.667
39815W        W40679  19.752  14.252  19.338
39816W        W40680  18.821  11.363  18.696
39817W        W40681  20.001  11.076  20.311
39818W        W40682  18.779  14.527  18.417
39819W        W40683  19.406  12.795  18.908
39820W        W40684  20.118  13.244  21.413
39821W        W40685  19.995  11.474  19.359
39822W        W40686  21.218  11.211  19.602
39823W        W40687  20.768  14.382  19.978
39824W        W40688  20.410  14.081  20.203
39825W        W40689  19.742  13.221  20.389
39826W        W40690  21.364  13.931  20.552
39827W        W40691  19.247  11.513  19.288
39828W        W40692  19.728  13.732  20.379
39829W        W40693  19.087  11.604  18.291
39830W        W40694  20.014  12.362  20.530
39831W        W40695  20.810  11.113  20.371
39832W        W40696  18.248  12.909  20.532
39833W        W40697  19.805  12.673  18.570
39834W        W40698  19.220  11.083  18.374
39835W        W40699  20.077  12.195  19.406
39836W        W40700  20.760  11.330  20.835
39837W        W40701  19.530  13.187  21.226
39838W        W40702  20.358  12.785  21.464
39839W        W40703  20.855  13.061  21.387
39840W        W40704  20.133  11.225  21.940
39841W        W40705  19.409  11.856  20.096
39842W        W40706  18.929  11.669  19.673
39843W        W40707  18.531  14.369  19.329
39844W        W40708  20.152  13.738  21.636
39845W        W40709  19.075  13.209  18.753
39846W        W40710  20.838  12.657  19.883
39847W        W40711  20.960  12.507  20.364
39848W        W40712  20.218  13.029  20.511
39849W        W40713  20.828  13.583  18.277
39850W        W40714  20.407  11.410  19.647
39851W        W40715  21.774  11.866  19.113
39852W        W40716  18.402  14.235  21.142
39853W        W40717  18.716  13.498  20.482
39854W        W40718  18.120  14.444  19.030
39855W        W40719  20.114  11.500  20.609
39856W        W40720  19.348  13.895  18.667
39857W        W40721  21.397  14.069  18.793
39858W        W40722  20.286  12.673  18.773
39859W        W40723  19.693  11.892  19.224
39860W        W40724  19.988  11.714  18.252
39861W        W40725  20.562  13.453  21.542
39862W        W40726  21.103  11.269  19.066
39863W        W40727  18.387  11.080  18.562
39864W        W40728  19.558  13.560  20.834
39865W        W40729  19.484  13.518  19.981
39866W        W40730  19.228  13.507  18.359
39867W        W40731  18.375  13.954  19.072
39868W        W40732  18.935  12.752  21.199
39869W        W40733  19.648  11.191  21.705
39870W        W40734  20.304  11.329  21.054
39871W        W40735  19.606  11.123  19.399
39872W        W40736  20.731  11.083  18.769
39873W        W40737  18.658  11.144  20.382
39874W        W40738  18.542  12.010  19.758
39875W        W40739  21.296  11.273  20.132
39876W        W40740  18.764  11.694  19.114
39877W        W40741  21.227  11.275  20.645
39878W        W40742  21.602  12.481  18.305
39879W        W40743  19.068  11.463  20.160
39880W        W40744  20.118  11.961  20.852
39881W        W40745  18.308  11.589  18.544
39882W        W40746  19.040  13.248  21.079
39883W        W40747  20.424  12.546  20.271
39884W        W40748  20.177  14.541  18.566
39885W        W40749  18.239  12.709  18.360
39886W        W40750  19.264  13.637  21.352
39887W        W40751  18.563  12.546  20.908
39888W        W40752  19.776  12.789  20.689
39889W        W40753  21.176  11.188  21.165
39890W        W40754  21.764  12.752  21.079
39891W        W40755  21.671  12.666  18.821
39892W        W40756  20.415  13.088  19.081
39893W        W40757  21.008  14.454  18.289
39894W        W40758  20.350  12.562  21.934
39895W        W40759  18.755  13.412  21.470
39896W        W40760  21.904  11.634  21.770
39897W        W40761  21.427  12.241  20.375
39898W        W40762  19.931  14.280  21.843
39899W        W40763  19.686  10.997  18.620
39900W        W40764  21.300  13.632  18.497
39901W        W40765  19.139  11.882  21.322
39902W        W40766  19.795  13.620  21.270
39903W        W40767  21.576  11.486  20.963
39904W        W40768  20.939  14.177  19.049
39905W        W40769  21.085  13.036  20.397
39906W        W40770  19.322  11.494  21.025
39907W        W40771  19.964  12.431  21.549
39908W        W40772  19.106  13.664  19.049
39909W        W40773  20.953  13.157  19.171
39910W        W40774  18.826  11.614  21.009
39911W        W40775  20.056  13.831  19.432
39912W        W40776  21.630  12.311  19.900
39913W        W40777  19.977  11.080  21.346
39914W        W40778  20.874  13.779  20.404
39915W        W40779  21.159  14.101  20.119
39916W        W40780  20.230  14.048  18.388
39917W        W40781  18.266  13.755  21.318
39918W        W40782  19.207  11.802  20.593
39919W        W40783  19.193  11.228  19.719
39920W        W40784  20.675  12.103  20.245
39921W        W40785  19.539  13.110  18.505
39922W        W40786  21.603  13.088  20.282
39923W        W40787  18.781  13.893  21.274
39924W        W40788  21.294  14.464  19.267
39925W        W40789  19.593  11.587  19.685
39926W        W40790  19.185  13.113  19.802
39927W        W40791  19.541  14.528  20.435
39928W        W40792  21.432  14.453  21.622
39929W        W40793  20.654  12.800  20.637
39930W        W40794  18.464  12.214  18.332
39931W        W40795  21.767  14.229  19.277
39932W        W40796  21.532  11.603  18.732
39933W        W40797  19.493  11.018  21.082
39934W        W40798  21.273  13.733  19.772
39935W        W40799  21.287  12.472  19.547
39936W        W40800  19.655  12.126  19.698
39937W        W40801  19.834  12.372  21.017
39938W        W40802  20.784  13.508  21.080
39939W        W40803  19.529  11.958  20.987
39940W        W40804  19.438  14.420  19.719
39941W        W40805  18.915  14.337  21.068
39942W        W40806  18.884  14.018  18.442
39943W        W40807  21.371  13.408  19.381
39944W        W40808  19.110  12.286  21.018
39945W        W40809  21.737  12.042  18.554
39946W        W40810  19.523  13.295  19.008
39947W        W40811  20.695  12.642  21.135
39948W        W40812  20.528  12.294  20.714
39949W        W40813  19.056  12.674  20.681
39950W        W40814  21.253  14.406  20.706
39951W        W40815  21.073  11.332  21.717
39952W        W40816  18.583  11.261  21.324
39953W        W40817  19.113  12.395  20.241
39954W        W40818  19.438  11.968  18.340
39955W        W40819  18.220  13.795  20.803
39956W        W40820  19.941  12.742  20.184
39957W        W40821  19.552  11.473  18.465
39958W        W40822  18.973  12.734  19.523
39959W        W40823  18.483  14.494  20.701
39960W        W40824  21.157  12.524  18.584
39961W        W40825  21.549  11.402  21.482
39962W        W40826  20.889  13.621  19.440
39963W        W40827  18.344  12.544  21.397
39964W        W40828  21.511  11.101  18.788
39965W        W40829  21.103  13.630  18.962
39966W        W40830  19.974  12.286  18.899
39967W        W40831  21.046  11.488  18.578
39968W        W40832  20.995  12.060  20.633
39969W        W40833  18.707  12.475  19.906
39970W        W40834  19.195  13.580  19.544
39971W        W40835  20.957  12.066  19.469
39972W        W40836  19.870  11.586  20.159
39973W        W40837  21.664  13.530  20.597
39974W        W40838  21.773  11.481  20.399
39975W        W40839  18.357  14.378  19.813
39976W        W40840  18.622  13.473  19.146
39977W        W40841  18.688  11.295  21.836
39978W        W40842  19.896  13.690  22.089
39979W        W40843  21.729  12.841  19.813
39980W        W40844  20.986  13.208  18.632
39981W        W40845  20.324  14.493  20.573
39982W        W40846  21.045  13.423  21.708
39983W        W40847  19.987  11.034  19.050
39984W        W40848  20.662  11.811  19.846
39985W        W40849  18.446  13.488  20.014
39986W        W40850  19.651  11.432  18.981
39987W        W40851  19.507  12.784  21.568
39988W        W40852  20.468  11.860  19.385
39989W        W40853  20.658  13.333  20.606
39990W        W40854  18.678  14.016  20.753
39991W        W40855  19.610  13.901  21.673
39992W        W40856  19.234  11.707  18.795
39993W        W40857  20.750  11.801  18.940
39994W        W40858  20.615  13.952  21.289
39995W        W40859  19.387  12.612  19.816
39996W        W40860  19.029  14.402  20.575
39997W        W40861  21.521  14.330  18.349
39998W        W40862  18.479  13.013  21.205
39999W        W40863  20.609  13.033  20.165
40000W        W40864  19.083  13.174  19.264
40001W        W40865  19.419  14.058  20.626
40002W        W40866  19.946  11.222  19.807
40003W        W40867  18.096  13.067  18.943
40004W        W40868  19.883  12.216  18.356
40005W        W40869  19.834  11.528  21.055
40006W        W40870  21.569  11.294  18.312
40007W        W40871  21.416  13.089  21.624
40008W        W40872  20.414  14.237  21.671
40009W        W40873  21.790  13.369  21.142
40010W        W40874  21.290  13.981  21.819
40011W        W40875  19.130  14.573  20.105
40012W        W40876  21.887  13.397  19.343
40013W        W40877  20.528  12.291  19.676
40014W        W40878  20.241  10.942  19.497
40015W        W40879  19.249  14.095  19.357
40016W        W40880  19.722  11.923  20.516
40017W        W40881  19.530  11.213  20.114
40018W        W40882  18.376  14.269  18.608
40019W        W40883  20.089  13.097  19.510
40020W        W40884  19.498  14.025  21.116
40021W        W40885  18.641  12.937  19.137
40022W        W40886  18.561  11.528  20.011
40023W        W40887  20.133  13.218  20.024
40024W        W40888  18.408  11.310  19.025
40025W        W40889  21.069  12.508  20.858
40026W        W40890  20.794  11.903  18.365
40027W        W40891  21.283  13.499  20.230
40028W        W40892  20.040  13.764  19.964
40029W        W40893  19.415  14.331  18.942
40030W        W40894  20.673  11.148  18.267
40031W        W40895  18.675  14.338  20.213
40032W        W40896  20.276  12.050  21.684
40033W        W40897  18.710  11.714  21.520
40034W        W40898  18.414  12.179  19.292
40035W        W40899  19.482  12.281  18.757
40036W        W40900  20.690  12.357  21.582
40037W        W40901  19.427  12.806  20.296
40038W        W40902  20.748  11.041  19.480
40039W        W40903  19.939  14.274  19.851
40040W        W40904  20.976  13.954  20.886
40041W        W40905  20.773  13.844  19.902
40042W        W40906  20.639  13.054  19.569
40043W        W40907  20.034  11.388  18.661
40044W        W40908  21.878  11.050  19.596
40045W        W40909  19.376  12.502  18.297
40046W        W40910  21.499  11.967  19.543
40047W        W40911  20.049  13.138  18.654
40048W        W40912  21.253  13.343  21.213
40049W        W40913  20.927  14.016  18.564
40050W        W40914  19.551  11.639  21.484
40051W        W40915  19.465  12.361  20.648
40052W        W40916  21.481  13.772  21.033
40053W        W40917  20.439  11.786  21.253
40054W        W40918  18.148  12.187  21.088
40055W        W40919  20.232  12.677  20.890
40056W        W40920  18.730  13.296  19.621
40057W        W40921  18.636  12.608  20.393
40058W        W40922  20.980  13.048  20.900
40059W        W40923  20.938  14.304  21.554
40060W        W40924  20.810  12.122  21.113
40061W        W40925  20.980  14.151  19.563
40062W        W40926  19.937  13.929  20.837
40063W        W40927  19.517  14.125  20.130
40064W        W40928  21.155  13.491  20.724
40065W        W40929  20.204  13.307  21.925
40066W        W40930  18.954  13.524  20.018
40067W        W40931  21.183  12.974  19.618
40068W        W40932  20.802  14.291  20.495
40069W        W40933  18.984  13.934  20.343
40070W        W40934  19.921  11.971  21.318
40071W        W40935  20.179  14.157  19.017
40072W        W40936  19.723  13.363  21.708
40073W        W40937  19.621  13.804  19.114
40074W        W40938  18.969  12.129  18.195
40075W        W40939  18.433  14.495  25.446
40076W        W40940  18.804  13.451  24.850
40077W        W40941  21.485  13.108  22.778
40078W        W40942  21.754  14.323  24.606
40079W        W40943  19.546  14.046  22.203
40080W        W40944  19.673  12.368  23.141
40081W        W40945  19.179  12.189  23.571
40082W        W40946  20.201  12.974  22.760
40083W        W40947  19.736  14.230  25.036
40084W        W40948  18.286  11.678  25.016
40085W        W40949  18.940  10.964  24.908
40086W        W40950  20.789  11.382  23.654
40087W        W40951  20.594  12.109  22.078
40088W        W40952  20.991  11.837  25.247
40089W        W40953  18.428  11.349  24.595
40090W        W40954  18.532  13.955  25.496
40091W        W40955  19.941  13.243  22.386
40092W        W40956  18.350  12.034  24.075
40093W        W40957  19.379  12.248  25.272
40094W        W40958  21.544  11.774  23.817
40095W        W40959  21.500  13.035  24.615
40096W        W40960  19.975  12.509  23.629
40097W        W40961  20.537  13.803  24.000
40098W        W40962  18.828  12.864  24.054
40099W        W40963  18.067  12.391  23.851
40100W        W40964  19.410  12.609  24.914
40101W        W40965  21.525  12.394  25.188
40102W        W40966  19.123  13.793  23.765
40103W        W40967  20.350  13.616  24.732
40104W        W40968  19.616  12.155  24.003
40105W        W40969  19.784  13.005  23.773
40106W        W40970  20.553  13.882  25.491
40107W        W40971  19.877  13.051  25.463
40108W        W40972  19.957  12.869  24.971
40109W        W40973  18.062  12.018  25.340
40110W        W40974  20.999  13.625  25.310
40111W        W40975  18.684  11.231  23.111
40112W        W40976  19.350  13.651  24.285
40113W        W40977  21.658  13.409  23.597
40114W        W40978  21.034  11.795  23.966
40115W        W40979  21.383  11.721  21.851
40116W        W40980  21.894  12.497  24.410
40117W        W40981  19.921  14.246  24.178
40118W        W40982  21.728  13.569  22.770
40119W        W40983  18.787  14.472  22.726
40120W        W40984  19.173  14.454  23.110
40121W        W40985  18.944  11.210  24.435
40122W        W40986  21.441  12.268  24.582
40123W        W40987  20.949  12.586  23.290
40124W        W40988  20.828  12.601  22.160
40125W        W40989  20.191  13.540  24.254
40126W        W40990  20.039  11.677  23.452
40127W        W40991  20.516  14.036  24.468
40128W        W40992  21.391  12.662  23.010
40129W        W40993  20.479  11.300  22.789
40130W        W40994  18.928  13.996  22.883
40131W        W40995  18.335  11.619  23.106
40132W        W40996  20.945  12.180  23.637
40133W        W40997  18.616  13.827  23.849
40134W        W40998  19.983  14.047  22.491
40135W        W40999  21.091  12.171  21.854
40136W        W41000  18.361  14.019  24.359
40137W        W41001  19.248  13.697  24.774
40138W        W41002  19.666  12.858  23.299
40139W        W41003  19.367  11.458  24.244
40140W        W41004  21.583  11.000  24.000
40141W        W41005  19.227  13.216  21.653
40142W        W41006  18.614  11.770  22.026
40143W        W41007  18.795  13.814  23.359
40144W        W41008  19.703  13.350  23.411
40145W        W41009  21.292  14.260  24.834
40146W        W41010  20.342  11.903  22.508
40147W        W41011  21.501  14.356  23.587
40148W        W41012  21.083  12.262  24.973
40149W        W41013  21.854  13.718  23.245
40150W        W41014  20.495  13.106  24.806
40151W        W41015  17.997  12.648  23.025
40152W        W41016  19.252  13.209  24.508
40153W        W41017  20.498  12.391  22.982
40154W        W41018  20.552  12.869  23.179
40155W        W41019  18.745  12.229  24.357
40156W        W41020  18.626  12.147  25.157
40157W        W41021  18.634  11.089  23.609
40158W        W41022  20.321  11.482  23.856
40159W        W41023  20.103  11.568  25.101
40160W        W41024  20.543  11.451  22.271
40161W        W41025  21.722  14.164  25.116
40162W        W41026  20.430  11.154  24.971
40163W        W41027  21.523  13.633  25.389
40164W        W41028  21.091  11.652  24.747
40165W        W41029  20.807  11.510  23.136
40166W        W41030  21.210  12.708  25.533
40167W        W41031  18.944  14.248  23.608
40168W        W41032  19.828  11.837  22.477
40169W        W41033  19.230  11.351  25.133
40170W        W41034  21.218  11.790  22.939
40171W        W41035  21.443  12.226  22.706
40172W        W41036  19.367  14.537  25.273
40173W        W41037  19.233  11.023  22.435
40174W        W41038  21.638  11.345  23.523
40175W        W41039  21.756  13.741  21.987
40176W        W41040  18.330  12.862  23.855
40177W        W41041  20.546  11.611  21.763
40178W        W41042  21.782  13.879  23.785
40179W        W41043  21.704  11.026  24.529
40180W        W41044  20.254  12.458  25.098
40181W        W41045  20.116  13.592  22.784
40182W        W41046  20.733  12.831  25.686
40183W        W41047  20.468  10.989  23.784
40184W        W41048  18.836  11.962  23.887
40185W        W41049  18.738  13.071  24.517
40186W        W41050  20.497  14.189  23.475
40187W        W41051  21.396  11.800  24.343
40188W        W41052  20.373  14.355  24.884
40189W        W41053  21.144  13.046  22.071
40190W        W41054  20.101  12.658  23.155
40191W        W41055  22.093  10.966  24.907
40192W        W41056  20.047  13.194  24.597
40193W        W41057  20.121  12.054  23.821
40194W        W41058  20.978  12.387  22.818
40195W        W41059  21.040  12.144  22.372
40196W        W41060  21.418  13.943  22.938
40197W        W41061  21.149  13.446  23.679
40198W        W41062  20.679  12.791  22.692
40199W        W41063  20.298  12.917  23.634
40200W        W41064  21.264  12.584  23.709
40201W        W41065  18.688  11.671  24.283
40202W        W41066  21.241  12.769  25.000
40203W        W41067  21.763  14.324  24.075
40204W        W41068  19.622  13.822  23.600
40205W        W41069  20.842  14.417  24.617
40206W        W41070  20.691  11.579  24.280
40207W        W41071  19.900  14.540  24.629
40208W        W41072  21.528  11.389  22.997
40209W        W41073  21.369  12.698  24.242
40210W        W41074  18.232  11.820  24.518
40211W        W41075  21.141  11.724  23.464
40212W        W41076  21.475  11.910  25.008
40213W        W41077  20.510  13.657  23.508
40214W        W41078  19.792  14.163  23.260
40215W        W41079  18.752  11.314  22.342
40216W        W41080  19.975  11.099  23.980
40217W        W41081  18.714  14.460  21.539
40218W        W41082  19.732  12.745  22.777
40219W        W41083  20.031  13.374  25.073
40220W        W41084  19.988  11.377  22.994
40221W        W41085  21.180  11.204  23.331
40222W        W41086  20.942  14.438  23.680
40223W        W41087  20.397  14.299  24.001
40224W        W41088  19.722  13.260  24.224
40225W        W41089  21.532  13.912  24.404
40226W        W41090  19.115  11.312  22.843
40227W        W41091  19.783  13.760  24.078
40228W        W41092  19.145  11.720  21.831
40229W        W41093  20.029  12.234  24.321
40230W        W41094  20.859  11.102  24.117
40231W        W41095  18.272  13.077  24.309
40232W        W41096  19.987  12.718  22.312
40233W        W41097  19.207  11.223  21.951
40234W        W41098  20.148  12.154  23.291
40235W        W41099  20.815  11.220  24.622
40236W        W41100  19.573  13.215  24.905
40237W        W41101  20.366  12.970  25.289
40238W        W41102  20.865  13.085  25.203
40239W        W41103  20.182  11.173  25.432
40240W        W41104  19.331  11.761  23.811
40241W        W41105  18.743  11.641  23.443
40242W        W41106  18.655  14.301  23.186
40243W        W41107  20.168  13.892  25.130
40244W        W41108  19.437  13.170  22.540
40245W        W41109  20.812  12.849  23.724
40246W        W41110  20.890  12.467  24.069
40247W        W41111  20.185  13.036  24.119
40248W        W41112  20.659  13.453  22.070
40249W        W41113  20.378  11.327  23.349
40250W        W41114  21.727  11.796  22.766
40251W        W41115  18.551  14.235  25.031
40252W        W41116  18.543  13.540  24.394
40253W        W41117  18.272  14.517  22.810
40254W        W41118  20.211  11.765  24.263
40255W        W41119  19.646  13.648  22.551
40256W        W41120  21.493  13.892  22.411
40257W        W41121  20.423  12.436  22.450
40258W        W41122  19.817  11.864  23.012
40259W        W41123  20.139  11.720  22.062
40260W        W41124  20.513  13.468  25.194
40261W        W41125  21.068  11.277  22.752
40262W        W41126  18.385  10.955  22.178
40263W        W41127  19.758  13.613  24.602
40264W        W41128  19.432  13.403  23.845
40265W        W41129  19.414  13.513  22.097
40266W        W41130  18.463  13.732  22.978
40267W        W41131  18.957  12.554  25.200
40268W        W41132  19.702  11.288  25.339
40269W        W41133  20.107  11.395  24.609
40270W        W41134  19.528  11.107  23.091
40271W        W41135  20.696  10.970  22.411
40272W        W41136  18.540  11.183  24.124
40273W        W41137  18.260  11.985  23.535
40274W        W41138  21.250  11.346  23.848
40275W        W41139  18.718  11.642  22.750
40276W        W41140  21.271  11.287  24.359
40277W        W41141  21.350  12.527  22.114
40278W        W41142  18.930  11.457  23.896
40279W        W41143  20.135  11.947  24.743
40280W        W41144  18.256  11.450  22.212
40281W        W41145  19.053  12.987  24.926
40282W        W41146  20.343  12.533  24.020
40283W        W41147  20.294  14.385  22.222
40284W        W41148  17.976  12.404  21.828
40285W        W41149  19.204  13.407  25.201
40286W        W41150  18.675  12.613  24.746
40287W        W41151  19.647  12.853  24.538
40288W        W41152  21.262  11.067  24.827
40289W        W41153  21.791  12.728  24.881
40290W        W41154  21.663  12.682  22.528
40291W        W41155  20.573  13.321  22.902
40292W        W41156  21.197  14.427  22.091
40293W        W41157  20.304  12.557  25.594
40294W        W41158  18.627  13.450  25.361
40295W        W41159  21.969  11.311  25.291
40296W        W41160  21.360  12.214  24.050
40297W        W41161  19.814  14.432  25.509
40298W        W41162  19.698  11.082  22.225
40299W        W41163  21.119  13.635  22.173
40300W        W41164  19.051  11.858  25.123
40301W        W41165  19.650  13.720  25.093
40302W        W41166  21.591  11.495  24.707
40303W        W41167  21.187  14.281  22.602
40304W        W41168  21.058  13.136  24.131
40305W        W41169  19.155  11.613  24.688
40306W        W41170  19.789  12.558  25.326
40307W        W41171  19.197  13.559  22.837
40308W        W41172  21.016  13.057  22.963
40309W        W41173  18.697  11.877  24.739
40310W        W41174  20.061  13.716  23.296
40311W        W41175  21.627  12.232  23.595
40312W        W41176  19.928  11.044  24.959
40313W        W41177  21.006  13.668  24.118
40314W        W41178  21.329  14.041  23.952
40315W        W41179  20.363  13.895  22.085
40316W        W41180  18.112  13.435  25.364
40317W        W41181  19.186  11.950  24.296
40318W        W41182  19.111  11.257  23.441
40319W        W41183  20.587  12.050  24.032
40320W        W41184  19.576  13.010  22.067
40321W        W41185  21.485  13.026  23.862
40322W        W41186  18.910  13.836  25.177
40323W        W41187  21.462  14.532  22.972
40324W        W41188  19.543  11.557  23.358
40325W        W41189  19.240  13.025  23.578
40326W        W41190  19.534  14.563  24.278
40327W        W41191  21.417  14.566  25.222
40328W        W41192  20.636  12.858  24.316
40329W        W41193  18.379  12.080  21.618
40330W        W41194  21.781  14.205  23.177
40331W        W41195  21.309  11.660  22.449
40332W        W41196  19.410  11.062  24.697
40333W        W41197  21.394  13.861  23.456
40334W        W41198  21.279  12.206  23.229
40335W        W41199  19.686  12.037  23.522
40336W        W41200  19.855  12.391  24.789
40337W        W41201  20.865  13.507  24.834
40338W        W41202  19.501  12.003  24.837
40339W        W41203  19.458  14.333  23.614
40340W        W41204  18.923  14.312  25.390
40341W        W41205  19.173  14.169  21.491
40342W        W41206  21.372  13.440  23.164
40343W        W41207  19.057  12.252  24.774
40344W        W41208  21.542  12.051  22.220
40345W        W41209  19.774  13.237  22.915
40346W        W41210  20.706  12.654  24.958
40347W        W41211  20.523  12.331  24.492
40348W        W41212  19.110  12.701  24.486
40349W        W41213  21.294  14.403  24.342
40350W        W41214  20.902  11.337  25.111
40351W        W41215  18.745  11.435  24.991
40352W        W41216  19.130  12.412  24.049
40353W        W41217  19.762  11.998  21.802
40354W        W41218  18.392  13.747  25.008
40355W        W41219  19.816  12.637  24.113
40356W        W41220  19.639  11.563  22.057
40357W        W41221  19.199  12.617  23.265
40358W        W41222  18.552  14.468  24.554
40359W        W41223  21.163  12.778  22.530
40360W        W41224  21.407  11.418  25.172
40361W        W41225  20.946  13.719  23.183
40362W        W41226  18.401  12.596  25.187
40363W        W41227  21.536  11.194  22.509
40364W        W41228  21.194  13.543  22.694
40365W        W41229  20.046  12.271  22.770
40366W        W41230  21.077  11.254  22.230
40367W        W41231  20.954  12.051  24.425
40368W        W41232  18.334  12.518  23.434
40369W        W41233  19.219  13.497  23.360
40370W        W41234  20.804  12.025  23.151
40371W        W41235  19.819  11.639  23.925
40372W        W41236  21.796  13.454  24.488
40373W        W41237  21.740  11.463  24.186
40374W        W41238  18.399  14.236  23.618
40375W        W41239  18.774  13.320  23.128
40376W        W41240  18.828  11.222  25.453
40377W        W41241  19.844  13.933  25.530
40378W        W41242  21.680  12.750  23.436
40379W        W41243  20.873  13.212  22.472
40380W        W41244  20.378  14.579  24.431
40381W        W41245  21.245  13.217  25.531
40382W        W41246  19.859  10.946  22.712
40383W        W41247  20.534  11.840  23.540
40384W        W41248  18.320  13.408  23.900
40385W        W41249  19.592  11.387  22.645
40386W        W41250  19.405  12.925  25.315
40387W        W41251  20.356  11.764  23.020
40388W        W41252  20.665  13.383  24.384
40389W        W41253  18.777  13.949  24.693
40390W        W41254  19.340  13.984  25.414
40391W        W41255  19.203  11.554  22.352
40392W        W41256  20.807  11.724  22.636
40393W        W41257  20.690  13.961  24.984
40394W        W41258  19.483  12.577  23.705
40395W        W41259  19.076  14.331  24.465
40396W        W41260  21.667  14.245  22.049
40397W        W41261  18.540  13.050  25.022
40398W        W41262  20.599  13.295  23.883
40399W        W41263  19.287  13.094  23.050
40400W        W41264  19.541  14.098  24.555
40401W        W41265  19.888  11.173  23.465
40402W        W41266  18.234  13.250  22.919
40403W        W41267  20.062  12.209  22.170
40404W        W41268  18.752  12.847  23.534
40405W        W41269  19.652  11.502  24.843
40406W        W41270  21.535  11.254  21.988
40407W        W41271  21.649  12.924  25.331
40408W        W41272  20.304  14.339  25.389
40409W        W41273  21.809  13.313  24.992
40410W        W41274  21.252  14.077  25.318
40411W        W41275  19.121  14.550  23.989
40412W        W41276  21.819  13.195  23.169
40413W        W41277  20.503  12.439  23.527
40414W        W41278  20.201  10.904  23.113
40415W        W41279  19.268  13.994  23.276
40416W        W41280  19.708  11.825  24.408
40417W        W41281  19.493  11.261  23.789
40418W        W41282  18.331  14.064  22.610
40419W        W41283  20.178  13.219  23.239
40420W        W41284  19.205  14.183  24.944
40421W        W41285  18.508  12.839  23.071
40422W        W41286  18.409  11.583  23.830
40423W        W41287  20.093  13.424  23.753
40424W        W41288  18.362  11.282  22.697
40425W        W41289  21.001  12.550  24.559
40426W        W41290  20.934  11.724  22.082
40427W        W41291  21.494  13.519  24.064
40428W        W41292  20.117  13.946  23.745
40429W        W41293  19.440  14.091  22.771
40430W        W41294  20.638  11.108  21.886
40431W        W41295  18.665  14.323  24.058
40432W        W41296  20.356  12.043  25.443
40433W        W41297  18.626  11.711  25.422
40434W        W41298  18.272  12.169  23.049
40435W        W41299  19.646  12.335  22.459
40436W        W41300  20.766  12.374  25.401
40437W        W41301  19.356  12.918  24.082
40438W        W41302  20.722  10.949  23.312
40439W        W41303  19.974  14.426  23.679
40440W        W41304  21.023  13.926  24.564
40441W        W41305  20.920  13.925  23.663
40442W        W41306  20.786  13.255  23.386
40443W        W41307  20.072  11.371  22.456
40444W        W41308  21.844  11.033  23.167
40445W        W41309  19.672  12.492  21.962
40446W        W41310  21.611  11.810  23.291
40447W        W41311  20.425  12.985  22.287
40448W        W41312  21.299  13.289  25.021
40449W        W41313  20.834  14.092  22.232
40450W        W41314  19.525  11.750  25.290
40451W        W41315  19.484  12.355  24.447
40452W        W41316  21.442  13.769  24.898
40453W        W41317  20.555  11.626  24.807
40454W        W41318  18.313  12.254  24.764
40455W        W41319  20.172  12.703  24.521
40456W        W41320  18.790  13.369  23.639
40457W        W41321  18.622  12.428  23.860
40458W        W41322  20.983  13.048  24.654
40459W        W41323  20.887  14.423  25.148
40460W        W41324  20.599  12.105  24.972
40461W        W41325  21.115  14.241  23.238
40462W        W41326  20.041  14.035  24.644
40463W        W41327  19.394  14.112  24.063
40464W        W41328  21.261  13.468  24.515
40465W        W41329  20.143  13.506  25.555
40466W        W41330  18.955  13.375  24.116
40467W        W41331  21.243  13.008  23.412
40468W        W41332  20.877  14.184  24.132
40469W        W41333  18.926  13.906  24.224
40470W        W41334  19.903  12.066  25.189
40471W        W41335  20.215  14.097  22.967
40472W        W41336  19.589  13.482  25.553
40473W        W41337  19.627  13.710  23.058
40474W        W41338  18.905  12.310  21.507
40475W        W41339  18.331  14.695  28.909
40476W        W41340  18.767  13.537  28.557
40477W        W41341  21.476  12.969  26.357
40478W        W41342  21.641  14.304  28.218
40479W        W41343  19.340  14.366  25.762
40480W        W41344  19.810  12.586  26.769
40481W        W41345  18.949  12.242  26.910
40482W        W41346  19.975  12.900  26.365
40483W        W41347  19.712  14.244  28.190
40484W        W41348  18.493  11.777  28.517
40485W        W41349  18.923  11.030  28.229
40486W        W41350  20.907  11.321  27.323
40487W        W41351  20.369  12.175  25.953
40488W        W41352  20.947  11.616  28.786
40489W        W41353  18.527  11.403  28.130
40490W        W41354  18.560  13.924  28.845
40491W        W41355  19.785  13.197  25.959
40492W        W41356  18.333  12.227  27.571
40493W        W41357  19.313  12.314  28.723
40494W        W41358  21.671  11.962  27.334
40495W        W41359  21.605  12.963  27.983
40496W        W41360  19.935  12.368  27.252
40497W        W41361  20.490  13.796  27.639
40498W        W41362  18.854  13.107  27.855
40499W        W41363  18.064  12.696  27.521
40500W        W41364  19.352  12.666  28.356
40501W        W41365  21.600  12.313  28.846
40502W        W41366  19.144  13.743  27.166
40503W        W41367  20.345  13.666  28.169
40504W        W41368  19.590  12.014  27.489
40505W        W41369  19.804  12.942  27.158
40506W        W41370  20.458  13.862  28.997
40507W        W41371  19.815  13.041  28.914
40508W        W41372  19.933  12.818  28.442
40509W        W41373  18.387  12.105  28.955
40510W        W41374  20.978  13.688  28.774
40511W        W41375  18.749  11.238  26.760
40512W        W41376  19.209  13.479  27.754
40513W        W41377  21.810  13.448  27.130
40514W        W41378  20.989  11.687  27.671
40515W        W41379  21.454  11.767  25.535
40516W        W41380  21.966  12.501  27.989
40517W        W41381  19.753  14.284  27.656
40518W        W41382  21.703  13.850  26.235
40519W        W41383  18.803  14.814  26.285
40520W        W41384  19.111  14.528  26.652
40521W        W41385  19.041  11.301  27.796
40522W        W41386  21.576  12.162  28.130
40523W        W41387  20.808  12.581  26.843
40524W        W41388  20.844  12.382  25.931
40525W        W41389  20.097  13.469  27.684
40526W        W41390  19.895  11.868  27.074
40527W        W41391  20.653  14.099  28.028
40528W        W41392  21.288  12.726  26.770
40529W        W41393  20.440  11.427  26.456
40530W        W41394  18.845  14.294  26.282
40531W        W41395  18.417  11.646  26.790
40532W        W41396  21.032  12.149  27.398
40533W        W41397  18.586  13.803  27.201
40534W        W41398  19.764  14.198  25.982
40535W        W41399  21.220  12.206  25.599
40536W        W41400  18.400  13.936  27.896
40537W        W41401  19.209  13.530  28.292
40538W        W41402  19.570  13.052  26.687
40539W        W41403  19.572  11.307  27.827
40540W        W41404  21.888  11.087  27.407
40541W        W41405  18.912  13.032  25.430
40542W        W41406  18.657  11.751  25.937
40543W        W41407  18.771  13.887  26.735
40544W        W41408  19.568  13.566  26.797
40545W        W41409  21.185  14.140  28.511
40546W        W41410  20.246  11.907  26.386
40547W        W41411  21.494  14.355  27.067
40548W        W41412  21.244  12.307  28.471
40549W        W41413  21.955  13.706  26.690
40550W        W41414  20.416  13.064  28.258
40551W        W41415  18.078  12.570  26.642
40552W        W41416  19.373  13.073  28.003
40553W        W41417  20.577  12.312  26.435
40554W        W41418  20.431  12.805  26.580
40555W        W41419  18.866  12.185  27.782
40556W        W41420  18.848  12.101  28.745
40557W        W41421  18.568  11.017  27.173
40558W        W41422  20.478  11.527  27.647
40559W        W41423  20.026  11.501  28.794
40560W        W41424  20.345  11.673  25.915
40561W        W41425  21.704  14.061  28.670
40562W        W41426  20.514  11.193  28.667
40563W        W41427  21.498  13.582  28.746
40564W        W41428  21.182  11.753  28.314
40565W        W41429  20.853  11.533  26.821
40566W        W41430  21.231  12.639   0.036
40567W        W41431  18.919  14.209  27.137
40568W        W41432  19.870  11.901  26.056
40569W        W41433  19.170  11.155  28.696
40570W        W41434  21.267  11.823  26.615
40571W        W41435  21.586  12.186  26.406
40572W        W41436  19.359  14.393  28.820
40573W        W41437  19.382  11.091  26.135
40574W        W41438  21.702  11.503  27.097
40575W        W41439  21.880  13.832  25.733
40576W        W41440  18.486  13.032  27.329
40577W        W41441  20.538  11.562  25.407
40578W        W41442  21.718  13.944  27.294
40579W        W41443  21.685  11.141  27.883
40580W        W41444  20.175  12.177  28.710
40581W        W41445  19.899  13.410  26.430
40582W        W41446  20.742  12.855   0.104
40583W        W41447  20.481  11.043  27.467
40584W        W41448  19.081  11.949  27.333
40585W        W41449  18.501  13.208  28.272
40586W        W41450  20.425  14.149  27.155
40587W        W41451  21.472  11.801  27.786
40588W        W41452  20.216  14.210  28.286
40589W        W41453  21.612  12.947  25.861
40590W        W41454  20.204  12.265  26.796
40591W        W41455  21.783  11.074  28.392
40592W        W41456  19.964  13.102  28.013
40593W        W41457  20.230  11.972  27.433
40594W        W41458  21.102  12.303  26.491
40595W        W41459  21.166  11.990  26.086
40596W        W41460  21.244  14.029  26.427
40597W        W41461  20.777  13.352  27.418
40598W        W41462  20.886  12.715  26.316
40599W        W41463  20.276  12.706  27.064
40600W        W41464  21.232  12.625  27.298
40601W        W41465  18.710  11.711  27.667
40602W        W41466  21.244  12.813  28.531
40603W        W41467  21.672  14.270  27.707
40604W        W41468  19.614  13.949  27.132
40605W        W41469  20.755  14.454  28.415
40606W        W41470  20.696  11.718  28.105
40607W        W41471  19.894  14.678  27.999
40608W        W41472  21.673  11.465  26.556
40609W        W41473  21.279  12.590  28.042
40610W        W41474  18.417  11.996  28.037
40611W        W41475  21.222  11.736  27.147
40612W        W41476  21.587  11.884  28.580
40613W        W41477  20.388  13.596  27.151
40614W        W41478  19.727  14.238  26.694
40615W        W41479  18.970  11.348  25.968
40616W        W41480  19.965  11.076  27.526
40617W        W41481  18.872  14.567  25.841
40618W        W41482  19.486  12.834  26.199
40619W        W41483  20.028  13.333  28.477
40620W        W41484  19.971  11.553  26.679
40621W        W41485  21.279  11.253  26.934
40622W        W41486  21.058  14.563  27.235
40623W        W41487  20.281  14.279  27.664
40624W        W41488  19.654  13.198  27.595
40625W        W41489  21.522  13.778  27.745
40626W        W41490  19.118  11.422  26.469
40627W        W41491  19.621  13.725  27.591
40628W        W41492  19.121  11.633  25.580
40629W        W41493  19.935  12.257  27.791
40630W        W41494  20.796  11.183  27.851
40631W        W41495  18.358  13.009  27.832
40632W        W41496  19.900  12.694  25.889
40633W        W41497  19.304  11.138  25.613
40634W        W41498  19.768  12.052  26.597
40635W        W41499  20.891  11.309  28.353
40636W        W41500  19.542  13.156  28.471
40637W        W41501  20.312  12.995  28.803
40638W        W41502  20.776  12.981  28.605
40639W        W41503  20.179  11.085   0.046
40640W        W41504  19.393  11.535  27.379
40641W        W41505  18.951  11.702  26.899
40642W        W41506  18.622  14.381  26.745
40643W        W41507  20.097  13.822  28.615
40644W        W41508  18.903  13.315  26.087
40645W        W41509  20.727  12.801  27.309
40646W        W41510  20.882  12.533  27.716
40647W        W41511  19.992  12.794  27.598
40648W        W41512  20.709  13.340  25.653
40649W        W41513  20.248  11.450  27.185
40650W        W41514  22.003  11.932  26.220
40651W        W41515  18.367  14.313  28.560
40652W        W41516  18.756  13.586  28.038
40653W        W41517  18.373  14.555  26.336
40654W        W41518  20.187  11.816  27.930
40655W        W41519  19.410  13.829  25.908
40656W        W41520  21.534  14.322  26.116
40657W        W41521  20.413  12.668  26.085
40658W        W41522  19.247  12.002  26.556
40659W        W41523  19.958  11.697  25.578
40660W        W41524  20.543  13.452  28.591
40661W        W41525  21.150  11.376  26.410
40662W        W41526  18.496  11.152  25.866
40663W        W41527  19.681  13.523  28.078
40664W        W41528  19.369  13.259  27.143
40665W        W41529  19.043  13.574  25.649
40666W        W41530  18.433  14.015  26.361
40667W        W41531  18.898  12.628  28.645
40668W        W41532  19.675  11.106  28.858
40669W        W41533  20.301  11.392  28.211
40670W        W41534  19.588  11.194  26.615
40671W        W41535  20.799  11.457  26.032
40672W        W41536  18.549  11.192  27.667
40673W        W41537  18.575  11.971  27.193
40674W        W41538  21.403  11.359  27.485
40675W        W41539  18.765  11.829  26.442
40676W        W41540  21.247  11.373  27.986
40677W        W41541  21.682  12.496  25.648
40678W        W41542  18.894  11.399  27.310
40679W        W41543  19.962  11.839  28.406
40680W        W41544  18.189  11.686  25.741
40681W        W41545  19.001  13.060  28.360
40682W        W41546  20.373  12.477  27.584
40683W        W41547  20.198  14.450  25.903
40684W        W41548  18.395  13.007  25.531
40685W        W41549  19.160  13.305  28.778
40686W        W41550  18.680  12.707  28.169
40687W        W41551  19.690  12.675  27.987
40688W        W41552  21.280  10.963  28.305
40689W        W41553  21.690  12.639  28.382
40690W        W41554  21.882  12.498  26.131
40691W        W41555  20.628  13.134  26.169
40692W        W41556  21.154  14.459  25.666
40693W        W41557  20.356  12.523   0.055
40694W        W41558  18.766  13.483   0.079
40695W        W41559  21.877  11.434  28.780
40696W        W41560  21.463  12.310  27.648
40697W        W41561  19.841  14.251  28.718
40698W        W41562  19.800  11.066  25.793
40699W        W41563  21.543  13.457  25.889
40700W        W41564  19.019  11.642  28.620
40701W        W41565  19.543  13.875  28.495
40702W        W41566  21.668  11.563  28.205
40703W        W41567  21.033  14.470  26.172
40704W        W41568  21.113  13.000  27.632
40705W        W41569  19.278  11.432  28.232
40706W        W41570  19.788  12.514  28.823
40707W        W41571  19.053  13.792  26.297
40708W        W41572  21.013  13.125  26.575
40709W        W41573  18.876  11.792  28.161
40710W        W41574  20.024  13.825  26.843
40711W        W41575  21.856  12.429  27.088
40712W        W41576  20.055  11.006  28.524
40713W        W41577  20.996  13.757  27.719
40714W        W41578  21.252  14.105  27.437
40715W        W41579  19.911  13.694  25.983
40716W        W41580  18.315  13.446  28.811
40717W        W41581  19.221  11.779  27.797
40718W        W41582  19.229  11.220  26.977
40719W        W41583  20.627  12.061  27.732
40720W        W41584  19.299  13.120  25.790
40721W        W41585  21.581  13.240  27.547
40722W        W41586  19.064  13.919  28.722
40723W        W41587  21.328  14.554  26.595
40724W        W41588  19.471  11.667  26.870
40725W        W41589  18.926  12.956  27.042
40726W        W41590  19.372  14.558  27.933
40727W        W41591  21.503  14.525  28.693
40728W        W41592  20.529  12.939  27.765
40729W        W41593  18.449  12.162  25.647
40730W        W41594  21.695  14.199  26.622
40731W        W41595  21.493  11.589  26.062
40732W        W41596  19.519  10.966  28.376
40733W        W41597  21.464  13.808  26.862
40734W        W41598  21.342  12.243  26.969
40735W        W41599  19.470  12.197  27.013
40736W        W41600  19.779  12.311  28.339
40737W        W41601  20.958  13.735  28.236
40738W        W41602  19.382  11.938  28.370
40739W        W41603  19.399  14.400  27.066
40740W        W41604  18.840  14.411  28.717
40741W        W41605  18.937  14.043  25.836
40742W        W41606  21.472  13.289  26.775
40743W        W41607  18.994  12.285  28.275
40744W        W41608  21.640  12.071  25.900
40745W        W41609  19.393  13.370  26.281
40746W        W41610  20.395  12.594  28.521
40747W        W41611  20.383  12.165  28.228
40748W        W41612  19.113  12.638  27.893
40749W        W41613  21.255  14.559  27.715
40750W        W41614  21.013  11.070  28.802
40751W        W41615  18.652  11.253  28.611
40752W        W41616  19.043  12.465  27.373
40753W        W41617  19.466  12.016  25.725
40754W        W41618  18.336  13.720  28.362
40755W        W41619  19.532  12.541  27.521
40756W        W41620  19.551  11.519  25.853
40757W        W41621  19.326  12.516  26.590
40758W        W41622  18.477  14.445  28.059
40759W        W41623  21.339  12.522  26.054
40760W        W41624  21.389  11.373  28.616
40761W        W41625  21.009  13.551  26.865
40762W        W41626  18.453  12.618  28.913
40763W        W41627  21.734  11.130  26.119
40764W        W41628  21.307  13.506  26.347
40765W        W41629  20.041  12.384  26.305
40766W        W41630  21.059  11.448  25.591
40767W        W41631  21.075  12.116  27.974
40768W        W41632  18.563  12.533  27.145
40769W        W41633  19.076  13.466  26.717
40770W        W41634  20.873  12.047  26.861
40771W        W41635  19.897  11.593  27.538
40772W        W41636  21.781  13.437  28.031
40773W        W41637  21.888  11.553  27.609
40774W        W41638  18.299  14.260  27.151
40775W        W41639  18.576  13.521  26.425
40776W        W41640  18.803  11.099   0.082
40777W        W41641  19.947  13.876   0.136
40778W        W41642  21.626  12.925  27.108
40779W        W41643  21.114  13.043  25.993
40780W        W41644  20.429  14.607  28.030
40781W        W41645  21.148  13.146  28.920
40782W        W41646  19.849  10.905  26.284
40783W        W41647  20.692  11.782  27.265
40784W        W41648  18.462  13.482  27.604
40785W        W41649  19.560  11.639  26.359
40786W        W41650  19.345  12.822  28.843
40787W        W41651  20.406  11.803  26.851
40788W        W41652  20.706  13.392  27.934
40789W        W41653  18.742  14.036  28.324
40790W        W41654  19.450  13.942   0.040
40791W        W41655  19.160  11.812  26.081
40792W        W41656  20.774  11.835  26.393
40793W        W41657  20.607  13.965  28.523
40794W        W41658  19.371  12.712  27.056
40795W        W41659  18.952  14.267  27.909
40796W        W41660  21.659  14.316  25.620
40797W        W41661  18.642  13.064  28.744
40798W        W41662  20.286  13.133  27.343
40799W        W41663  19.068  12.992  26.515
40800W        W41664  19.350  13.932  27.981
40801W        W41665  19.756  11.299  27.101
40802W        W41666  18.357  13.465  25.846
40803W        W41667  19.925  12.226  25.682
40804W        W41668  18.516  12.878  26.735
40805W        W41669  19.793  11.383  28.289
40806W        W41670  21.586  11.283  25.632
40807W        W41671  21.681  12.824  28.849
40808W        W41672  20.360  14.348  28.778
40809W        W41673  21.667  13.175  28.468
40810W        W41674  21.318  14.005   0.008
40811W        W41675  19.046  14.599  27.501
40812W        W41676  21.953  13.106  26.751
40813W        W41677  20.560  12.276  27.174
40814W        W41678  20.066  11.040  26.772
40815W        W41679  19.264  14.009  26.737
40816W        W41680  19.688  11.797  27.975
40817W        W41681  19.449  11.021  27.424
40818W        W41682  18.462  14.262  25.912
40819W        W41683  20.119  13.166  26.828
40820W        W41684  19.214  14.265  28.354
40821W        W41685  18.410  13.070  26.210
40822W        W41686  18.390  11.492  27.278
40823W        W41687  19.874  13.460  27.201
40824W        W41688  18.475  11.408  26.333
40825W        W41689  20.800  12.496  28.229
40826W        W41690  20.787  11.904  25.727
40827W        W41691  21.290  13.585  27.306
40828W        W41692  20.048  13.911  27.392
40829W        W41693  19.349  14.240  26.278
40830W        W41694  20.687  11.068  25.496
40831W        W41695  18.595  14.288  27.555
40832W        W41696  20.603  12.046  28.970
40833W        W41697  18.677  11.634  28.982
40834W        W41698  18.449  12.183  26.732
40835W        W41699  19.546  12.291  26.166
40836W        W41700  20.831  12.485  28.760
40837W        W41701  19.199  12.950  27.505
40838W        W41702  20.575  11.113  26.958
40839W        W41703  19.924  14.380  27.167
40840W        W41704  21.196  14.139  27.989
40841W        W41705  20.835  13.851  27.248
40842W        W41706  20.632  13.145  26.939
40843W        W41707  19.972  11.403  26.174
40844W        W41708  21.839  11.056  26.895
40845W        W41709  19.431  12.556  25.707
40846W        W41710  21.716  11.936  26.832
40847W        W41711  20.270  13.063  25.795
40848W        W41712  21.159  13.319  28.445
40849W        W41713  21.359  13.938  25.817
40850W        W41714  19.514  11.553  28.685
40851W        W41715  19.416  12.237  27.945
40852W        W41716  21.479  13.784  28.265
40853W        W41717  20.442  11.721  28.580
40854W        W41718  18.463  12.312  28.458
40855W        W41719  20.209  12.625  28.047
40856W        W41720  18.613  13.367  26.923
40857W        W41721  18.647  12.641  27.649
40858W        W41722  20.940  12.975  28.115
40859W        W41723  20.853  14.230  28.897
40860W        W41724  20.811  12.049  28.492
40861W        W41725  21.055  14.161  26.898
40862W        W41726  19.991  13.916  27.913
40863W        W41727  19.287  14.138  27.506
40864W        W41728  21.262  13.379  27.951
40865W        W41729  20.169  13.442  28.964
40866W        W41730  18.892  13.354  27.370
40867W        W41731  21.127  13.102  27.115
40868W        W41732  20.792  14.272  27.573
40869W        W41733  18.873  13.847  27.615
40870W        W41734  19.699  11.995  28.853
40871W        W41735  20.085  14.059  26.359
40872W        W41736  19.671  13.521  28.833
40873W        W41737  19.616  13.835  26.379
40874W        W41738  18.966  12.124  25.569
40875W        W41739  18.302  18.225   3.360
40876W        W41740  18.730  17.106   2.937
40877W        W41741  21.414  16.796   0.799
40878W        W41742  21.685  17.871   2.631
40879W        W41743  19.625  17.888   0.391
40880W        W41744  19.521  16.069   1.152
40881W        W41745  19.159  15.806   1.417
40882W        W41746  20.141  16.546   0.746
40883W        W41747  19.804  17.830   3.048
40884W        W41748  18.302  15.329   2.940
40885W        W41749  19.000  14.734   2.772
40886W        W41750  20.788  14.978   1.781
40887W        W41751  20.517  15.683   0.455
40888W        W41752  20.880  15.528   3.289
40889W        W41753  18.397  15.032   2.542
40890W        W41754  18.497  17.752   3.510
40891W        W41755  19.841  17.105   0.289
40892W        W41756  18.347  15.753   2.029
40893W        W41757  19.413  15.872   3.161
40894W        W41758  21.630  15.522   1.804
40895W        W41759  21.513  16.682   2.540
40896W        W41760  19.887  16.146   1.573
40897W        W41761  20.430  17.376   1.914
40898W        W41762  18.776  16.683   2.138
40899W        W41763  18.121  16.198   1.929
40900W        W41764  19.369  16.278   2.850
40901W        W41765  21.579  16.058   3.271
40902W        W41766  19.156  17.510   1.681
40903W        W41767  20.308  17.213   2.679
40904W        W41768  19.688  15.875   1.949
40905W        W41769  19.729  16.624   1.659
40906W        W41770  20.580  17.500   3.401
40907W        W41771  19.921  16.637   3.443
40908W        W41772  19.857  16.483   2.936
40909W        W41773  17.937  15.573   3.197
40910W        W41774  21.002  17.348   3.103
40911W        W41775  18.960  14.938   0.987
40912W        W41776  19.240  17.349   2.181
40913W        W41777  21.578  16.991   1.537
40914W        W41778  21.258  15.165   1.856
40915W        W41779  21.502  15.355   0.029
40916W        W41780  21.735  16.208   2.465
40917W        W41781  19.959  17.762   2.152
40918W        W41782  21.507  17.281   0.632
40919W        W41783  18.746  18.212   0.603
40920W        W41784  19.058  18.122   1.058
40921W        W41785  18.914  14.978   2.347
40922W        W41786  21.403  15.838   2.633
40923W        W41787  20.927  16.231   1.312
40924W        W41788  20.921  16.013   0.331
40925W        W41789  20.069  17.233   2.225
40926W        W41790  20.118  15.706   1.666
40927W        W41791  20.441  17.623   2.380
40928W        W41792  21.412  16.359   1.087
40929W        W41793  20.355  15.103   0.987
40930W        W41794  18.855  17.748   0.760
40931W        W41795  18.549  15.161   1.223
40932W        W41796  21.147  15.676   1.758
40933W        W41797  18.620  17.498   1.701
40934W        W41798  19.815  17.493   0.632
40935W        W41799  21.220  15.773  28.952
40936W        W41800  18.419  17.514   2.165
40937W        W41801  19.156  17.320   2.696
40938W        W41802  19.361  16.570   1.310
40939W        W41803  19.403  15.115   2.128
40940W        W41804  21.826  14.708   1.806
40941W        W41805  19.012  16.567   0.172
40942W        W41806  18.775  15.612   0.415
40943W        W41807  18.646  17.498   1.191
40944W        W41808  19.715  16.979   1.294
40945W        W41809  21.228  17.841   2.895
40946W        W41810  20.172  15.571   0.814
40947W        W41811  21.476  17.995   1.512
40948W        W41812  21.108  15.919   3.040
40949W        W41813  21.717  17.265   1.113
40950W        W41814  20.468  16.733   2.696
40951W        W41815  18.307  16.226   1.108
40952W        W41816  19.171  16.887   2.410
40953W        W41817  20.547  15.945   0.948
40954W        W41818  20.483  16.436   1.112
40955W        W41819  18.676  15.792   2.452
40956W        W41820  18.763  15.787   2.971
40957W        W41821  18.628  14.811   1.594
40958W        W41822  20.379  15.027   2.166
40959W        W41823  20.081  15.183   3.211
40960W        W41824  20.718  15.029   0.582
40961W        W41825  21.665  17.710   3.163
40962W        W41826  20.515  14.743   3.082
40963W        W41827  21.480  17.213   3.273
40964W        W41828  21.072  15.250   2.877
40965W        W41829  20.757  15.217   1.330
40966W        W41830  21.163  16.347   3.410
40967W        W41831  18.846  17.901   1.485
40968W        W41832  19.706  15.774   0.725
40969W        W41833  19.155  14.956   3.200
40970W        W41834  21.307  15.554   0.905
40971W        W41835  21.673  15.940   0.891
40972W        W41836  19.350  18.058   3.381
40973W        W41837  19.359  14.734   0.662
40974W        W41838  21.651  15.082   1.525
40975W        W41839  21.776  17.474   0.239
40976W        W41840  18.450  16.559   1.741
40977W        W41841  20.635  15.180   0.100
40978W        W41842  21.751  17.491   1.594
40979W        W41843  21.605  14.718   2.398
40980W        W41844  20.218  16.041   3.102
40981W        W41845  19.954  17.016   0.782
40982W        W41846  20.704  16.533   3.580
40983W        W41847  20.399  14.640   1.817
40984W        W41848  18.819  15.695   1.836
40985W        W41849  18.561  16.746   2.610
40986W        W41850  20.419  17.875   1.344
40987W        W41851  21.339  15.454   2.265
40988W        W41852  20.263  17.960   2.769
40989W        W41853  21.524  16.748   0.304
40990W        W41854  19.870  16.478   1.176
40991W        W41855  21.734  14.703   2.897
40992W        W41856  19.995  16.826   2.531
40993W        W41857  20.303  15.532   2.097
40994W        W41858  21.051  15.997   0.856
40995W        W41859  21.407  15.817   0.445
40996W        W41860  21.308  17.604   0.971
40997W        W41861  20.964  17.147   1.625
40998W        W41862  20.607  16.348   0.588
40999W        W41863  20.239  16.515   1.580
41000W        W41864  21.257  16.195   1.719
41001W        W41865  18.592  15.339   2.189
41002W        W41866  21.308  16.371   2.893
41003W        W41867  21.699  17.912   2.013
41004W        W41868  19.586  17.483   1.415
41005W        W41869  20.773  18.025   2.675
41006W        W41870  20.498  15.378   2.532
41007W        W41871  19.850  18.172   2.508
41008W        W41872  21.601  15.100   1.017
41009W        W41873  21.249  16.380   2.202
41010W        W41874  18.192  15.522   2.456
41011W        W41875  21.249  15.356   1.372
41012W        W41876  21.488  15.557   3.104
41013W        W41877  20.436  17.292   1.415
41014W        W41878  19.873  17.899   1.248
41015W        W41879  18.794  15.101   0.513
41016W        W41880  19.881  14.839   2.254
41017W        W41881  19.065  17.915   0.282
41018W        W41882  19.190  16.397   0.631
41019W        W41883  20.004  16.963   3.022
41020W        W41884  19.927  15.231   1.294
41021W        W41885  21.187  14.831   1.453
41022W        W41886  20.795  18.142   1.655
41023W        W41887  20.376  17.890   1.870
41024W        W41888  19.706  16.882   2.093
41025W        W41889  21.452  17.564   2.309
41026W        W41890  19.444  15.024   1.100
41027W        W41891  19.679  17.374   1.919
41028W        W41892  19.128  15.280   0.131
41029W        W41893  19.993  15.829   2.374
41030W        W41894  20.788  14.677   2.196
41031W        W41895  18.264  16.581   2.234
41032W        W41896  19.983  16.369   0.273
41033W        W41897  19.330  14.819   0.165
41034W        W41898  20.041  15.963   1.125
41035W        W41899  20.729  14.924   2.641
41036W        W41900  19.473  16.885   2.884
41037W        W41901  20.346  16.555   3.173
41038W        W41902  20.851  16.599   3.053
41039W        W41903  20.092  14.851   3.602
41040W        W41904  19.312  15.543   1.838
41041W        W41905  19.056  15.291   1.376
41042W        W41906  18.540  18.001   1.073
41043W        W41907  20.147  17.453   3.106
41044W        W41908  18.775  16.870   0.543
41045W        W41909  20.733  16.399   1.766
41046W        W41910  20.888  15.990   2.072
41047W        W41911  20.198  16.683   2.074
41048W        W41912  20.722  16.977   0.106
41049W        W41913  20.340  15.213   1.656
41050W        W41914  21.895  15.467   0.809
41051W        W41915  18.405  17.907   2.963
41052W        W41916  18.737  17.181   2.390
41053W        W41917  18.243  18.055   0.661
41054W        W41918  19.964  15.310   2.440
41055W        W41919  19.278  17.550   0.570
41056W        W41920  21.603  17.823   0.620
41057W        W41921  20.168  16.049   0.625
41058W        W41922  19.400  15.529   1.049
41059W        W41923  20.229  15.488   0.060
41060W        W41924  20.539  17.048   3.130
41061W        W41925  21.092  15.068   0.959
41062W        W41926  18.393  14.596   0.400
41063W        W41927  19.621  17.192   2.486
41064W        W41928  19.375  17.010   1.705
41065W        W41929  19.234  17.070   0.386
41066W        W41930  18.386  17.535   0.741
41067W        W41931  18.973  16.238   3.179
41068W        W41932  19.617  14.794   3.391
41069W        W41933  20.213  14.979   2.734
41070W        W41934  19.649  14.670   1.404
41071W        W41935  20.276  14.699   0.614
41072W        W41936  18.502  14.815   2.081
41073W        W41937  18.688  15.658   1.328
41074W        W41938  21.324  14.667   1.957
41075W        W41939  18.905  15.446   0.904
41076W        W41940  21.160  14.986   2.349
41077W        W41941  21.731  16.245   0.256
41078W        W41942  18.948  15.156   1.857
41079W        W41943  20.145  15.574   2.846
41080W        W41944  18.284  15.102   0.334
41081W        W41945  19.010  16.658   2.858
41082W        W41946  20.277  16.112   1.975
41083W        W41947  20.144  18.049   0.347
41084W        W41948  18.470  16.580   0.244
41085W        W41949  19.184  17.257   3.195
41086W        W41950  18.654  16.245   2.740
41087W        W41951  19.564  16.574   2.484
41088W        W41952  21.204  14.718   2.798
41089W        W41953  21.828  16.439   2.921
41090W        W41954  21.786  16.426   0.721
41091W        W41955  20.558  16.861   0.753
41092W        W41956  21.204  18.082   0.228
41093W        W41957  20.275  16.226   3.575
41094W        W41958  18.738  17.257   3.481
41095W        W41959  21.848  15.205   3.429
41096W        W41960  21.453  15.916   2.114
41097W        W41961  19.841  18.045   3.509
41098W        W41962  19.809  14.818   0.418
41099W        W41963  21.185  17.181   0.242
41100W        W41964  19.163  15.456   3.035
41101W        W41965  19.643  17.359   2.967
41102W        W41966  21.542  15.166   2.657
41103W        W41967  20.976  18.118   0.701
41104W        W41968  20.983  16.801   2.023
41105W        W41969  19.291  15.169   2.634
41106W        W41970  19.788  16.158   3.368
41107W        W41971  18.973  17.250   0.836
41108W        W41972  20.964  16.555   0.918
41109W        W41973  18.781  15.333   2.706
41110W        W41974  20.005  17.390   1.131
41111W        W41975  21.748  15.977   1.584
41112W        W41976  20.020  14.656   3.124
41113W        W41977  20.906  17.370   2.086
41114W        W41978  21.213  17.760   1.901
41115W        W41979  20.295  17.302   0.484
41116W        W41980  18.328  17.391   3.191
41117W        W41981  19.054  15.484   2.278
41118W        W41982  19.133  14.783   1.496
41119W        W41983  20.828  15.357   2.123
41120W        W41984  19.562  16.671   0.347
41121W        W41985  21.513  16.783   2.009
41122W        W41986  18.793  17.590   3.065
41123W        W41987  21.419  18.152   1.013
41124W        W41988  19.501  15.136   1.602
41125W        W41989  18.967  16.671   1.634
41126W        W41990  19.311  18.176   2.354
41127W        W41991  21.395  18.165   3.247
41128W        W41992  20.606  16.414   2.276
41129W        W41993  18.509  16.074   0.418
41130W        W41994  21.780  17.786   1.127
41131W        W41995  21.459  15.250   0.530
41132W        W41996  19.459  14.579   2.946
41133W        W41997  21.269  17.515   1.460
41134W        W41998  21.341  15.895   1.299
41135W        W41999  19.658  15.662   1.469
41136W        W42000  19.801  15.988   2.832
41137W        W42001  20.810  17.124   2.690
41138W        W42002  19.634  15.514   2.829
41139W        W42003  19.379  17.979   1.484
41140W        W42004  18.826  18.060   3.269
41141W        W42005  18.747  17.410   0.388
41142W        W42006  21.229  17.075   1.179
41143W        W42007  19.180  15.818   2.660
41144W        W42008  21.934  15.814   0.440
41145W        W42009  19.522  16.752   0.854
41146W        W42010  20.553  16.254   2.788
41147W        W42011  20.505  15.900   2.416
41148W        W42012  19.063  16.348   2.435
41149W        W42013  21.232  18.029   2.390
41150W        W42014  20.965  14.933   3.299
41151W        W42015  18.576  14.877   3.017
41152W        W42016  19.157  15.977   2.088
41153W        W42017  19.397  15.672   0.313
41154W        W42018  18.362  17.447   2.687
41155W        W42019  19.811  16.353   2.075
41156W        W42020  19.758  15.292   0.212
41157W        W42021  19.011  16.221   1.111
41158W        W42022  18.347  17.926   2.446
41159W        W42023  21.308  16.324   0.566
41160W        W42024  21.457  15.034   3.155
41161W        W42025  20.851  17.428   1.157
41162W        W42026  18.442  16.171   3.215
41163W        W42027  21.617  14.768   0.606
41164W        W42028  21.000  17.159   0.730
41165W        W42029  19.698  16.285   0.711
41166W        W42030  21.118  15.005   0.210
41167W        W42031  20.945  15.627   2.544
41168W        W42032  18.816  16.169   1.592
41169W        W42033  19.019  17.129   1.344
41170W        W42034  20.874  15.720   1.286
41171W        W42035  19.822  15.381   1.939
41172W        W42036  21.734  17.151   2.422
41173W        W42037  21.731  15.130   2.129
41174W        W42038  18.292  17.853   1.495
41175W        W42039  18.540  17.035   0.969
41176W        W42040  18.703  14.922   3.572
41177W        W42041  19.564  17.574   3.454
41178W        W42042  21.648  16.488   1.518
41179W        W42043  21.020  16.728   0.442
41180W        W42044  20.360  18.166   2.312
41181W        W42045  21.078  16.894   3.420
41182W        W42046  19.842  14.737   0.932
41183W        W42047  20.636  15.640   1.728
41184W        W42048  18.379  17.030   1.975
41185W        W42049  19.789  15.231   0.763
41186W        W42050  19.441  16.549   3.273
41187W        W42051  20.383  15.558   1.265
41188W        W42052  20.560  17.003   2.259
41189W        W42053  18.802  17.683   2.563
41190W        W42054  19.055  17.662   3.502
41191W        W42055  19.292  15.247   0.620
41192W        W42056  20.751  15.466   0.860
41193W        W42057  20.599  17.585   2.889
41194W        W42058  19.380  16.194   1.664
41195W        W42059  18.780  18.178   2.341
41196W        W42060  21.695  17.974   0.144
41197W        W42061  18.553  16.654   3.127
41198W        W42062  20.543  16.891   1.744
41199W        W42063  19.019  16.756   0.979
41200W        W42064  19.475  17.710   2.517
41201W        W42065  19.942  14.924   1.761
41202W        W42066  18.273  17.036   0.512
41203W        W42067  19.902  15.836   0.246
41204W        W42068  18.632  16.579   1.257
41205W        W42069  19.722  15.005   2.858
41206W        W42070  21.595  14.845   0.093
41207W        W42071  21.523  16.690   3.250
41208W        W42072  20.300  17.927   3.279
41209W        W42073  21.785  16.975   2.897
41210W        W42074  21.232  17.664   3.428
41211W        W42075  18.992  18.203   1.868
41212W        W42076  21.831  16.754   1.122
41213W        W42077  20.451  16.049   1.462
41214W        W42078  20.171  14.754   1.343
41215W        W42079  19.145  17.611   1.171
41216W        W42080  19.538  15.574   2.334
41217W        W42081  19.500  14.677   1.893
41218W        W42082  18.549  17.881   0.253
41219W        W42083  20.216  16.875   1.204
41220W        W42084  19.283  17.728   3.004
41221W        W42085  18.675  16.414   0.762
41222W        W42086  18.477  15.350   1.692
41223W        W42087  20.045  17.048   1.704
41224W        W42088  18.451  14.869   0.821
41225W        W42089  20.983  16.134   2.564
41226W        W42090  21.002  15.483   0.375
41227W        W42091  21.385  17.267   1.911
41228W        W42092  20.053  17.575   1.623
41229W        W42093  19.503  17.854   0.908
41230W        W42094  20.712  14.664   0.174
41231W        W42095  18.522  17.990   1.924
41232W        W42096  20.407  15.706   3.463
41233W        W42097  18.736  15.308   3.235
41234W        W42098  18.624  15.883   0.872
41235W        W42099  19.162  15.880   0.734
41236W        W42100  20.701  16.128   3.265
41237W        W42101  19.306  16.557   2.019
41238W        W42102  20.686  14.706   1.332
41239W        W42103  19.886  18.054   1.734
41240W        W42104  20.986  17.576   2.537
41241W        W42105  20.783  17.632   1.640
41242W        W42106  20.738  16.883   1.248
41243W        W42107  20.231  15.199   0.478
41244W        W42108  21.880  14.714   1.232
41245W        W42109  19.495  16.171   0.246
41246W        W42110  21.719  15.549   1.283
41247W        W42111  20.276  16.794   0.315
41248W        W42112  21.236  16.921   2.903
41249W        W42113  21.117  17.636   0.490
41250W        W42114  19.567  15.283   3.282
41251W        W42115  19.539  16.080   2.404
41252W        W42116  21.431  17.384   2.787
41253W        W42117  20.558  15.250   3.016
41254W        W42118  18.267  15.838   2.849
41255W        W42119  20.121  16.319   2.499
41256W        W42120  18.532  17.029   1.488
41257W        W42121  18.653  16.180   2.087
41258W        W42122  20.974  16.655   2.545
41259W        W42123  20.833  17.949   3.208
41260W        W42124  20.618  15.757   2.913
41261W        W42125  21.005  17.930   1.242
41262W        W42126  19.961  17.574   2.623
41263W        W42127  19.443  17.828   1.987
41264W        W42128  21.225  17.092   2.387
41265W        W42129  20.146  17.097   3.495
41266W        W42130  18.891  17.112   1.887
41267W        W42131  21.148  16.668   1.517
41268W        W42132  20.799  17.915   2.149
41269W        W42133  18.923  17.731   2.075
41270W        W42134  19.903  15.667   3.288
41271W        W42135  20.188  17.786   0.842
41272W        W42136  19.619  17.048   3.372
41273W        W42137  19.479  17.268   0.950
41274W        W42138  18.999  16.050   0.241
41275W        W42139  18.305  18.190   7.058
41276W        W42140  18.663  17.119   6.543
41277W        W42141  21.152  16.739   4.253
41278W        W42142  21.659  17.834   6.327
41279W        W42143  19.269  17.934   3.893
41280W        W42144  19.506  16.004   4.730
41281W        W42145  19.038  15.851   5.143
41282W        W42146  20.023  16.434   4.417
41283W        W42147  19.725  17.869   6.661
41284W        W42148  18.347  15.381   6.626
41285W        W42149  18.911  14.510   6.583
41286W        W42150  20.817  15.004   5.359
41287W        W42151  20.403  15.710   4.015
41288W        W42152  21.021  15.423   7.054
41289W        W42153  18.422  15.022   6.244
41290W        W42154  18.515  17.733   7.177
41291W        W42155  19.723  17.244   3.844
41292W        W42156  18.346  15.712   5.686
41293W        W42157  19.374  15.909   6.857
41294W        W42158  21.648  15.582   5.428
41295W        W42159  21.439  16.649   6.200
41296W        W42160  19.932  15.988   5.289
41297W        W42161  20.489  17.396   5.677
41298W        W42162  18.831  16.623   5.822
41299W        W42163  18.205  16.199   5.528
41300W        W42164  19.298  16.297   6.511
41301W        W42165  21.576  16.098   6.880
41302W        W42166  19.138  17.414   5.306
41303W        W42167  20.265  17.252   6.362
41304W        W42168  19.685  15.698   5.638
41305W        W42169  19.742  16.575   5.384
41306W        W42170  20.731  17.675   7.185
41307W        W42171  19.900  16.637   7.150
41308W        W42172  19.832  16.491   6.635
41309W        W42173  18.135  15.657   7.008
41310W        W42174  20.997  17.302   6.860
41311W        W42175  18.758  14.858   4.796
41312W        W42176  19.195  17.117   5.856
41313W        W42177  21.605  17.019   5.176
41314W        W42178  21.109  15.287   5.681
41315W        W42179  21.274  15.320   3.532
41316W        W42180  21.854  16.109   6.114
41317W        W42181  19.795  17.887   5.799
41318W        W42182  21.608  17.402   4.284
41319W        W42183  18.744  18.169   4.288
41320W        W42184  19.113  18.142   4.702
41321W        W42185  18.907  14.873   6.211
41322W        W42186  21.447  15.883   6.416
41323W        W42187  20.833  16.266   4.986
41324W        W42188  20.719  16.017   3.757
41325W        W42189  20.053  17.179   5.875
41326W        W42190  20.021  15.427   5.141
41327W        W42191  20.452  17.661   6.116
41328W        W42192  21.277  16.408   4.792
41329W        W42193  20.469  15.021   4.527
41330W        W42194  18.968  17.719   4.430
41331W        W42195  18.401  15.209   4.889
41332W        W42196  20.819  15.926   5.365
41333W        W42197  18.613  17.479   5.369
41334W        W42198  19.737  17.769   3.946
41335W        W42199  21.176  15.846   3.560
41336W        W42200  18.402  17.527   5.862
41337W        W42201  19.138  17.195   6.350
41338W        W42202  19.415  16.657   4.972
41339W        W42203  19.307  15.013   5.896
41340W        W42204  21.790  14.752   5.592
41341W        W42205  19.004  16.808   3.360
41342W        W42206  18.644  15.416   3.734
41343W        W42207  18.785  17.481   4.890
41344W        W42208  19.488  17.177   4.984
41345W        W42209  21.206  17.791   6.597
41346W        W42210  20.146  15.405   4.342
41347W        W42211  21.431  18.199   5.213
41348W        W42212  21.104  15.907   6.833
41349W        W42213  21.915  17.453   5.061
41350W        W42214  20.422  16.770   6.373
41351W        W42215  18.376  16.253   4.678
41352W        W42216  19.207  16.705   6.157
41353W        W42217  20.453  15.939   4.533
41354W        W42218  20.361  16.370   4.809
41355W        W42219  18.707  15.798   6.071
41356W        W42220  18.696  15.774   6.768
41357W        W42221  18.678  14.714   5.286
41358W        W42222  20.333  15.110   5.556
41359W        W42223  20.104  15.194   6.886
41360W        W42224  20.534  15.199   4.036
41361W        W42225  21.668  17.667   6.832
41362W        W42226  20.465  14.816   6.906
41363W        W42227  21.489  17.172   6.954
41364W        W42228  21.071  15.476   6.548
41365W        W42229  20.854  15.214   4.849
41366W        W42230  21.174  16.328   7.141
41367W        W42231  18.919  17.899   5.196
41368W        W42232  19.708  15.513   4.106
41369W        W42233  19.130  14.908   6.856
41370W        W42234  21.202  15.454   4.540
41371W        W42235  21.576  15.782   4.263
41372W        W42236  19.348  18.048   6.987
41373W        W42237  19.234  14.700   4.236
41374W        W42238  21.500  15.116   5.332
41375W        W42239  21.672  17.449   3.695
41376W        W42240  18.508  16.620   5.431
41377W        W42241  20.538  15.199   3.521
41378W        W42242  21.675  17.482   5.511
41379W        W42243  21.605  14.752   6.075
41380W        W42244  20.214  16.046   6.734
41381W        W42245  19.771  16.889   4.647
41382W        W42246  20.575  16.711   7.209
41383W        W42247  20.418  14.639   5.335
41384W        W42248  18.843  15.606   5.547
41385W        W42249  18.606  16.673   6.293
41386W        W42250  20.315  17.795   5.109
41387W        W42251  21.601  15.703   5.944
41388W        W42252  20.243  17.927   6.501
41389W        W42253  21.433  16.658   3.771
41390W        W42254  19.848  16.360   4.915
41391W        W42255  21.739  14.824   6.563
41392W        W42256  19.939  16.820   6.245
41393W        W42257  20.193  15.617   5.588
41394W        W42258  21.210  15.945   4.606
41395W        W42259  21.087  15.865   4.107
41396W        W42260  21.271  17.751   4.479
41397W        W42261  20.838  17.043   5.452
41398W        W42262  20.854  16.251   4.405
41399W        W42263  20.225  16.411   5.311
41400W        W42264  21.193  16.290   5.494
41401W        W42265  18.649  15.308   5.896
41402W        W42266  21.228  16.380   6.617
41403W        W42267  21.750  17.908   5.806
41404W        W42268  19.609  17.606   5.238
41405W        W42269  20.767  18.016   6.369
41406W        W42270  20.658  15.369   6.245
41407W        W42271  19.879  18.193   6.227
41408W        W42272  21.397  15.080   4.822
41409W        W42273  21.340  16.181   5.992
41410W        W42274  18.268  15.520   6.150
41411W        W42275  21.129  15.475   5.205
41412W        W42276  21.500  15.560   6.851
41413W        W42277  20.446  17.270   5.172
41414W        W42278  19.766  17.876   4.826
41415W        W42279  18.779  14.970   4.075
41416W        W42280  20.005  14.711   5.737
41417W        W42281  18.811  18.089   3.778
41418W        W42282  19.506  16.465   4.488
41419W        W42283  19.997  16.985   6.733
41420W        W42284  19.993  15.083   4.731
41421W        W42285  21.204  14.743   5.151
41422W        W42286  20.917  18.182   5.336
41423W        W42287  20.326  17.910   5.651
41424W        W42288  19.633  16.843   5.823
41425W        W42289  21.431  17.534   5.972
41426W        W42290  19.228  15.055   4.644
41427W        W42291  19.586  17.404   5.702
41428W        W42292  19.134  15.288   3.588
41429W        W42293  19.982  15.805   6.057
41430W        W42294  20.867  14.747   5.954
41431W        W42295  18.271  16.626   5.905
41432W        W42296  19.879  16.353   3.895
41433W        W42297  19.225  14.801   3.716
41434W        W42298  19.994  15.843   4.795
41435W        W42299  20.810  14.888   6.512
41436W        W42300  19.504  16.869   6.548
41437W        W42301  20.296  16.560   6.817
41438W        W42302  20.789  16.688   6.742
41439W        W42303  20.068  14.803   7.241
41440W        W42304  19.326  15.382   5.489
41441W        W42305  18.884  15.314   5.078
41442W        W42306  18.627  17.955   4.762
41443W        W42307  20.095  17.507   6.780
41444W        W42308  18.926  17.094   4.151
41445W        W42309  20.704  16.438   5.475
41446W        W42310  20.849  16.091   5.847
41447W        W42311  20.069  16.582   5.802
41448W        W42312  20.639  17.038   3.657
41449W        W42313  20.398  15.057   5.044
41450W        W42314  21.694  15.321   4.479
41451W        W42315  18.461  17.993   6.609
41452W        W42316  18.692  17.111   6.012
41453W        W42317  18.266  18.131   4.442
41454W        W42318  20.167  15.308   6.021
41455W        W42319  19.324  17.476   4.130
41456W        W42320  21.662  17.916   4.181
41457W        W42321  20.378  16.229   4.089
41458W        W42322  19.666  15.470   4.637
41459W        W42323  20.102  15.359   3.757
41460W        W42324  20.488  17.110   6.851
41461W        W42325  20.967  15.034   4.360
41462W        W42326  18.362  14.616   3.925
41463W        W42327  19.616  17.208   6.169
41464W        W42328  19.336  16.917   5.410
41465W        W42329  19.219  17.195   3.707
41466W        W42330  18.452  17.586   4.439
41467W        W42331  18.950  16.241   6.903
41468W        W42332  19.598  14.769   7.047
41469W        W42333  20.308  14.991   6.433
41470W        W42334  19.619  14.724   4.781
41471W        W42335  20.625  14.701   4.120
41472W        W42336  18.596  14.811   5.809
41473W        W42337  18.480  15.658   5.186
41474W        W42338  21.282  14.797   5.673
41475W        W42339  18.746  15.285   4.502
41476W        W42340  21.175  15.104   6.171
41477W        W42341  21.516  16.135   3.809
41478W        W42342  18.935  15.083   5.543
41479W        W42343  20.191  15.548   6.496
41480W        W42344  18.285  15.117   3.950
41481W        W42345  19.017  16.731   6.635
41482W        W42346  20.310  16.098   5.716
41483W        W42347  20.150  18.112   3.943
41484W        W42348  18.354  16.508   3.624
41485W        W42349  19.140  17.234   6.846
41486W        W42350  18.683  16.188   6.449
41487W        W42351  19.630  16.421   6.149
41488W        W42352  21.253  14.663   6.431
41489W        W42353  21.775  16.414   6.520
41490W        W42354  21.425  16.303   4.302
41491W        W42355  20.352  16.830   4.586
41492W        W42356  21.085  18.103   3.651
41493W        W42357  20.277  16.245   7.221
41494W        W42358  18.735  17.249   7.168
41495W        W42359  21.773  15.109   7.022
41496W        W42360  21.230  15.797   5.614
41497W        W42361  19.844  18.008   7.156
41498W        W42362  19.693  14.665   3.934
41499W        W42363  21.296  17.141   3.915
41500W        W42364  19.100  15.445   6.791
41501W        W42365  19.606  17.372   6.642
41502W        W42366  21.571  15.373   6.355
41503W        W42367  21.185  18.185   4.147
41504W        W42368  21.044  16.686   5.777
41505W        W42369  19.287  15.144   6.406
41506W        W42370  19.798  16.151   7.033
41507W        W42371  19.150  17.254   4.586
41508W        W42372  20.860  16.694   4.668
41509W        W42373  18.799  15.373   6.384
41510W        W42374  19.975  17.367   4.961
41511W        W42375  21.919  15.934   5.185
41512W        W42376  19.983  14.687   6.736
41513W        W42377  20.992  17.424   5.745
41514W        W42378  21.268  17.842   5.566
41515W        W42379  20.073  17.593   3.601
41516W        W42380  18.315  17.309   6.876
41517W        W42381  19.138  15.508   5.985
41518W        W42382  19.155  14.858   5.134
41519W        W42383  20.686  15.596   5.760
41520W        W42384  19.512  16.732   3.769
41521W        W42385  21.551  16.600   5.696
41522W        W42386  18.736  17.582   6.749
41523W        W42387  21.383  18.214   4.655
41524W        W42388  19.569  15.162   5.070
41525W        W42389  18.999  16.527   5.304
41526W        W42390  19.401  18.180   6.029
41527W        W42391  21.404  18.118   6.929
41528W        W42392  20.544  16.487   5.962
41529W        W42393  18.412  15.683   3.342
41530W        W42394  21.676  17.873   4.893
41531W        W42395  21.305  15.382   4.042
41532W        W42396  19.461  14.643   6.503
41533W        W42397  21.217  17.398   5.279
41534W        W42398  21.294  15.977   5.115
41535W        W42399  19.553  15.680   5.128
41536W        W42400  19.761  16.016   6.500
41537W        W42401  20.780  17.124   6.436
41538W        W42402  19.540  15.568   6.507
41539W        W42403  19.406  18.068   5.146
41540W        W42404  18.833  18.091   6.939
41541W        W42405  18.834  17.573   3.948
41542W        W42406  21.447  17.407   4.819
41543W        W42407  19.086  15.823   6.426
41544W        W42408  21.642  15.638   3.699
41545W        W42409  19.441  16.978   4.243
41546W        W42410  20.572  16.296   6.459
41547W        W42411  20.484  15.873   6.162
41548W        W42412  19.042  16.207   6.064
41549W        W42413  21.230  18.005   6.101
41550W        W42414  20.950  14.903   7.043
41551W        W42415  18.629  14.943   6.710
41552W        W42416  19.223  15.937   5.638
41553W        W42417  19.504  15.659   3.636
41554W        W42418  18.332  17.533   6.390
41555W        W42419  19.769  16.181   5.730
41556W        W42420  19.634  15.141   3.770
41557W        W42421  19.069  16.290   4.847
41558W        W42422  18.413  17.995   6.104
41559W        W42423  21.051  16.354   3.928
41560W        W42424  21.327  15.076   6.746
41561W        W42425  20.931  17.141   4.937
41562W        W42426  18.387  16.171   6.907
41563W        W42427  21.465  14.925   4.228
41564W        W42428  21.131  17.241   4.417
41565W        W42429  19.993  15.920   4.285
41566W        W42430  20.980  15.010   3.838
41567W        W42431  21.107  15.625   6.072
41568W        W42432  18.601  16.172   5.152
41569W        W42433  19.004  16.997   5.014
41570W        W42434  20.831  15.742   4.867
41571W        W42435  19.823  15.206   5.581
41572W        W42436  21.677  17.104   6.078
41573W        W42437  21.596  15.206   5.837
41574W        W42438  18.360  17.902   5.187
41575W        W42439  18.646  17.084   4.605
41576W        W42440  18.713  14.891   7.219
41577W        W42441  19.570  17.576   7.119
41578W        W42442  21.609  16.416   5.198
41579W        W42443  20.661  16.661   4.143
41580W        W42444  20.376  18.189   6.085
41581W        W42445  21.096  16.839   7.114
41582W        W42446  19.934  14.548   4.394
41583W        W42447  20.594  15.473   5.261
41584W        W42448  18.333  17.072   5.610
41585W        W42449  19.659  15.019   4.333
41586W        W42450  19.422  16.536   6.951
41587W        W42451  20.387  15.490   4.782
41588W        W42452  20.654  16.998   5.952
41589W        W42453  18.813  17.573   6.252
41590W        W42454  19.052  17.668   7.136
41591W        W42455  19.239  15.212   4.103
41592W        W42456  20.725  15.521   4.383
41593W        W42457  20.618  17.597   6.651
41594W        W42458  19.437  16.191   5.233
41595W        W42459  18.928  18.000   6.012
41596W        W42460  21.595  17.950   3.670
41597W        W42461  18.542  16.651   6.811
41598W        W42462  20.337  16.902   5.520
41599W        W42463  19.069  16.746   4.568
41600W        W42464  19.333  17.644   6.098
41601W        W42465  19.959  14.855   5.213
41602W        W42466  18.268  16.859   4.029
41603W        W42467  19.968  15.857   3.768
41604W        W42468  18.665  16.620   4.899
41605W        W42469  19.804  15.111   6.466
41606W        W42470  21.496  14.880   3.692
41607W        W42471  21.555  16.635   6.947
41608W        W42472  20.327  17.943   6.998
41609W        W42473  21.773  16.943   6.547
41610W        W42474  21.250  17.658   7.123
41611W        W42475  19.031  18.253   5.585
41612W        W42476  21.349  16.906   4.733
41613W        W42477  20.399  15.936   5.091
41614W        W42478  20.215  14.613   4.835
41615W        W42479  19.275  17.669   4.852
41616W        W42480  19.643  15.385   6.042
41617W        W42481  19.535  14.787   5.488
41618W        W42482  18.409  17.861   4.009
41619W        W42483  20.089  16.824   5.041
41620W        W42484  19.209  17.724   6.604
41621W        W42485  18.592  16.627   4.374
41622W        W42486  18.456  15.202   5.416
41623W        W42487  19.830  17.081   5.392
41624W        W42488  18.385  14.907   4.444
41625W        W42489  20.973  16.033   6.339
41626W        W42490  20.852  15.518   3.805
41627W        W42491  21.366  17.075   5.641
41628W        W42492  20.047  17.530   5.472
41629W        W42493  19.472  17.912   4.391
41630W        W42494  20.598  14.706   3.604
41631W        W42495  18.614  17.936   5.619
41632W        W42496  20.368  15.654   7.071
41633W        W42497  18.620  15.364   7.060
41634W        W42498  18.465  15.719   4.685
41635W        W42499  19.534  16.004   4.054
41636W        W42500  20.703  16.219   6.942
41637W        W42501  19.324  16.452   5.698
41638W        W42502  20.747  14.699   4.910
41639W        W42503  19.910  18.025   5.316
41640W        W42504  20.958  17.555   6.229
41641W        W42505  20.772  17.679   5.348
41642W        W42506  20.595  16.754   5.091
41643W        W42507  20.112  14.937   4.109
41644W        W42508  21.713  14.715   5.078
41645W        W42509  19.320  16.155   3.591
41646W        W42510  21.541  15.582   4.912
41647W        W42511  20.265  16.691   3.817
41648W        W42512  21.236  16.900   6.601
41649W        W42513  21.260  17.672   3.958
41650W        W42514  19.560  15.254   6.923
41651W        W42515  19.474  15.909   6.088
41652W        W42516  21.433  17.357   6.466
41653W        W42517  20.607  15.290   6.759
41654W        W42518  18.264  15.876   6.508
41655W        W42519  20.122  16.287   6.227
41656W        W42520  18.506  17.047   5.112
41657W        W42521  18.715  16.129   5.656
41658W        W42522  20.930  16.625   6.264
41659W        W42523  20.875  18.051   6.873
41660W        W42524  20.646  15.782   6.645
41661W        W42525  21.151  17.831   4.994
41662W        W42526  19.914  17.623   6.234
41663W        W42527  19.313  17.836   5.604
41664W        W42528  21.160  17.082   6.107
41665W        W42529  20.169  17.054   7.251
41666W        W42530  18.837  17.030   5.505
41667W        W42531  21.139  16.712   5.195
41668W        W42532  20.808  17.908   5.829
41669W        W42533  18.925  17.536   5.762
41670W        W42534  19.875  15.665   6.902
41671W        W42535  20.006  17.763   4.384
41672W        W42536  19.588  17.036   7.037
41673W        W42537  19.638  17.425   4.548
41674W        W42538  18.975  15.756   3.436
41675W        W42539  18.281  18.318  10.585
41676W        W42540  18.651  17.034  10.160
41677W        W42541  21.254  16.545   8.017
41678W        W42542  21.768  17.863   9.930
41679W        W42543  19.303  17.910   7.524
41680W        W42544  19.657  16.130   8.271
41681W        W42545  19.149  15.778   8.956
41682W        W42546  20.064  16.377   8.049
41683W        W42547  19.855  17.886  10.357
41684W        W42548  18.380  15.257  10.261
41685W        W42549  18.886  14.480  10.154
41686W        W42550  20.917  15.071   9.130
41687W        W42551  20.449  15.599   7.610
41688W        W42552  20.963  15.523  10.622
41689W        W42553  18.473  14.847   9.941
41690W        W42554  18.486  17.906  10.792
41691W        W42555  19.735  17.244   7.496
41692W        W42556  18.383  15.816   9.359
41693W        W42557  19.475  15.868  10.405
41694W        W42558  21.698  15.528   9.114
41695W        W42559  21.452  16.605   9.867
41696W        W42560  20.043  16.014   8.993
41697W        W42561  20.477  17.427   9.299
41698W        W42562  18.928  16.651   9.525
41699W        W42563  18.095  16.263   9.297
41700W        W42564  19.430  16.366  10.216
41701W        W42565  21.672  16.041  10.620
41702W        W42566  19.135  17.368   8.935
41703W        W42567  20.327  17.290  10.090
41704W        W42568  19.733  15.749   9.285
41705W        W42569  19.796  16.579   9.077
41706W        W42570  20.714  17.776  10.766
41707W        W42571  20.065  16.698  10.885
41708W        W42572  20.029  16.527  10.319
41709W        W42573  18.441  15.568  10.663
41710W        W42574  21.080  17.347  10.448
41711W        W42575  18.891  14.807   8.553
41712W        W42576  19.175  17.114   9.558
41713W        W42577  21.570  17.024   8.862
41714W        W42578  21.289  15.338   9.357
41715W        W42579  21.434  15.358   7.344
41716W        W42580  21.920  16.038   9.778
41717W        W42581  19.752  17.758   9.468
41718W        W42582  21.758  17.136   8.109
41719W        W42583  18.759  18.160   7.945
41720W        W42584  19.131  18.128   8.337
41721W        W42585  19.078  14.794   9.774
41722W        W42586  21.561  16.141  10.099
41723W        W42587  20.912  16.313   8.604
41724W        W42588  20.750  16.306   7.454
41725W        W42589  20.030  17.288   9.534
41726W        W42590  20.074  15.479   8.861
41727W        W42591  20.522  17.626   9.773
41728W        W42592  21.434  16.388   8.522
41729W        W42593  20.473  15.027   8.266
41730W        W42594  18.972  17.714   8.063
41731W        W42595  18.545  15.188   8.542
41732W        W42596  20.830  15.922   8.996
41733W        W42597  18.580  17.456   8.994
41734W        W42598  19.772  17.756   7.618
41735W        W42599  20.814  15.836   7.276
41736W        W42600  18.396  17.558   9.511
41737W        W42601  19.118  17.251  10.049
41738W        W42602  19.746  16.732   8.334
41739W        W42603  19.511  15.030   9.560
41740W        W42604  21.813  14.824   9.183
41741W        W42605  19.025  16.806   7.147
41742W        W42606  18.738  15.410   7.562
41743W        W42607  18.780  17.456   8.530
41744W        W42608  19.462  17.111   8.582
41745W        W42609  21.327  17.950  10.185
41746W        W42610  20.172  15.362   7.992
41747W        W42611  21.486  18.070   8.913
41748W        W42612  21.213  15.938  10.422
41749W        W42613  21.852  17.356   8.591
41750W        W42614  20.466  16.758  10.103
41751W        W42615  18.064  16.265   8.429
41752W        W42616  19.330  16.751   9.874
41753W        W42617  20.470  15.988   8.192
41754W        W42618  20.445  16.496   8.389
41755W        W42619  18.756  15.752   9.730
41756W        W42620  18.747  15.635  10.241
41757W        W42621  18.766  14.609   9.005
41758W        W42622  20.436  15.158   9.321
41759W        W42623  20.144  15.235  10.447
41760W        W42624  20.560  15.090   7.765
41761W        W42625  21.715  17.853  10.495
41762W        W42626  20.562  14.769  10.481
41763W        W42627  21.542  17.374  10.697
41764W        W42628  21.199  15.259  10.262
41765W        W42629  20.857  15.256   8.512
41766W        W42630  21.274  16.298  10.814
41767W        W42631  18.921  17.841   8.853
41768W        W42632  19.748  15.501   7.727
41769W        W42633  19.091  14.849  10.453
41770W        W42634  21.213  15.541   8.266
41771W        W42635  21.137  16.063   8.185
41772W        W42636  19.385  17.811  10.672
41773W        W42637  19.310  14.822   7.902
41774W        W42638  21.450  15.094   8.931
41775W        W42639  21.700  17.474   7.321
41776W        W42640  18.477  16.642   9.259
41777W        W42641  20.586  15.211   7.266
41778W        W42642  21.755  17.372   9.214
41779W        W42643  21.752  14.732   9.724
41780W        W42644  20.354  16.115  10.433
41781W        W42645  20.194  16.878   8.125
41782W        W42646  20.834  16.480  10.950
41783W        W42647  20.437  14.658   9.223
41784W        W42648  18.840  15.514   9.265
41785W        W42649  18.434  16.679   9.794
41786W        W42650  20.446  17.808   8.932
41787W        W42651  21.594  15.693   9.589
41788W        W42652  20.336  18.003  10.082
41789W        W42653  21.417  16.665   7.495
41790W        W42654  19.975  16.368   8.617
41791W        W42655  21.870  14.677  10.224
41792W        W42656  20.024  16.935   9.912
41793W        W42657  20.280  15.648   9.306
41794W        W42658  20.828  15.900   7.801
41795W        W42659  21.337  15.720   7.802
41796W        W42660  21.381  17.422   8.332
41797W        W42661  20.792  16.970   9.234
41798W        W42662  20.762  16.379   7.984
41799W        W42663  20.293  16.484   9.017
41800W        W42664  21.337  16.297   9.067
41801W        W42665  18.633  15.217   9.625
41802W        W42666  21.321  16.489  10.355
41803W        W42667  21.717  17.901   9.377
41804W        W42668  19.600  17.555   8.841
41805W        W42669  20.837  18.039   9.903
41806W        W42670  20.711  15.265   9.763
41807W        W42671  19.905  18.133   9.821
41808W        W42672  21.438  15.083   8.378
41809W        W42673  21.410  16.175   9.592
41810W        W42674  18.249  15.523   9.773
41811W        W42675  21.116  15.482   8.879
41812W        W42676  21.511  15.637  10.086
41813W        W42677  20.469  17.279   8.803
41814W        W42678  19.801  17.868   8.482
41815W        W42679  18.852  14.925   7.703
41816W        W42680  20.068  14.845   9.554
41817W        W42681  18.823  18.055   7.448
41818W        W42682  19.562  16.494   7.902
41819W        W42683  20.133  17.000  10.458
41820W        W42684  20.001  15.125   8.455
41821W        W42685  21.089  14.837   8.678
41822W        W42686  20.985  18.137   9.025
41823W        W42687  20.231  17.878   9.407
41824W        W42688  19.703  16.877   9.492
41825W        W42689  21.507  17.496   9.652
41826W        W42690  19.376  15.011   8.416
41827W        W42691  19.539  17.338   9.305
41828W        W42692  19.129  15.240   7.259
41829W        W42693  20.030  15.832   9.725
41830W        W42694  20.820  14.786   9.573
41831W        W42695  18.019  16.734   9.507
41832W        W42696  19.885  16.303   7.548
41833W        W42697  19.204  14.745   7.369
41834W        W42698  20.048  15.877   8.493
41835W        W42699  20.874  14.886  10.097
41836W        W42700  19.655  16.887  10.252
41837W        W42701  20.470  16.615  10.600
41838W        W42702  20.957  16.812  10.540
41839W        W42703  20.208  14.871  10.867
41840W        W42704  19.372  15.383   9.214
41841W        W42705  19.015  15.249   8.829
41842W        W42706  18.658  17.957   8.420
41843W        W42707  20.248  17.543  10.521
41844W        W42708  19.065  16.988   7.755
41845W        W42709  20.794  16.422   9.114
41846W        W42710  20.911  16.076   9.484
41847W        W42711  20.171  16.626   9.523
41848W        W42712  20.753  17.178   7.316
41849W        W42713  20.582  14.903   8.772
41850W        W42714  21.714  15.450   8.097
41851W        W42715  18.522  17.963  10.270
41852W        W42716  18.676  17.133   9.662
41853W        W42717  18.284  18.061   8.087
41854W        W42718  20.185  15.341   9.748
41855W        W42719  19.353  17.474   7.791
41856W        W42720  21.536  17.530   7.829
41857W        W42721  20.358  16.102   7.702
41858W        W42722  19.730  15.543   8.278
41859W        W42723  20.086  15.309   7.387
41860W        W42724  20.603  17.176  10.526
41861W        W42725  20.980  14.999   8.090
41862W        W42726  18.411  14.674   7.599
41863W        W42727  19.605  17.244   9.848
41864W        W42728  19.322  16.884   9.118
41865W        W42729  19.239  17.240   7.350
41866W        W42730  18.461  17.562   8.139
41867W        W42731  18.998  16.084  10.278
41868W        W42732  19.594  14.884  10.487
41869W        W42733  20.370  14.892   9.995
41870W        W42734  19.735  14.716   8.649
41871W        W42735  20.401  14.606   7.981
41872W        W42736  18.646  14.719   9.491
41873W        W42737  18.452  15.559   8.907
41874W        W42738  21.325  14.789   9.364
41875W        W42739  18.939  15.126   8.160
41876W        W42740  21.214  15.085   9.775
41877W        W42741  21.345  15.851   7.288
41878W        W42742  19.034  15.007   9.299
41879W        W42743  20.263  15.667  10.156
41880W        W42744  18.273  15.182   7.451
41881W        W42745  18.867  16.569  10.047
41882W        W42746  20.399  16.144   9.390
41883W        W42747  20.196  18.076   7.552
41884W        W42748  18.363  16.552   7.299
41885W        W42749  19.167  16.835  10.366
41886W        W42750  18.551  16.153  10.043
41887W        W42751  19.788  16.489   9.861
41888W        W42752  21.359  14.731  10.128
41889W        W42753  21.833  16.557  10.248
41890W        W42754  21.652  16.140   7.861
41891W        W42755  20.402  16.613   7.691
41892W        W42756  21.073  18.098   7.348
41893W        W42757  20.373  16.205  10.949
41894W        W42758  18.859  17.184  10.609
41895W        W42759  21.958  15.170  10.836
41896W        W42760  21.283  15.826   9.216
41897W        W42761  19.833  18.081  10.850
41898W        W42762  19.672  14.612   7.598
41899W        W42763  21.268  17.205   7.431
41900W        W42764  19.203  15.417  10.411
41901W        W42765  19.813  17.372  10.304
41902W        W42766  21.656  15.148  10.024
41903W        W42767  21.202  17.899   8.068
41904W        W42768  21.144  16.613   9.440
41905W        W42769  19.379  15.107  10.059
41906W        W42770  19.909  16.223  10.723
41907W        W42771  19.122  17.239   8.203
41908W        W42772  20.916  16.761   8.339
41909W        W42773  18.862  15.148  10.100
41910W        W42774  19.993  17.349   8.569
41911W        W42775  21.731  15.999   8.848
41912W        W42776  20.058  14.726  10.402
41913W        W42777  20.917  17.403   9.522
41914W        W42778  21.243  17.752   9.284
41915W        W42779  20.117  17.572   7.291
41916W        W42780  18.434  17.475  10.497
41917W        W42781  19.116  15.336   9.679
41918W        W42782  19.275  14.799   8.891
41919W        W42783  20.819  15.554   9.349
41920W        W42784  19.463  16.753   7.452
41921W        W42785  21.619  16.808   9.356
41922W        W42786  18.935  17.636  10.366
41923W        W42787  21.361  18.249   8.416
41924W        W42788  19.643  15.183   8.838
41925W        W42789  19.011  16.190   9.258
41926W        W42790  19.454  18.164   9.538
41927W        W42791  21.371  18.272  10.590
41928W        W42792  20.666  16.534   9.625
41929W        W42793  18.508  15.834   7.297
41930W        W42794  21.648  17.835   8.477
41931W        W42795  21.383  15.173   7.825
41932W        W42796  19.418  14.571  10.121
41933W        W42797  21.433  17.534   8.852
41934W        W42798  21.256  15.931   8.689
41935W        W42799  19.632  15.716   8.773
41936W        W42800  19.895  16.053  10.182
41937W        W42801  20.819  17.162  10.040
41938W        W42802  19.771  15.519  10.169
41939W        W42803  19.400  18.033   8.770
41940W        W42804  18.953  18.093  10.602
41941W        W42805  18.874  17.531   7.594
41942W        W42806  21.413  16.888   8.402
41943W        W42807  19.214  15.712   9.994
41944W        W42808  21.792  15.692   7.555
41945W        W42809  19.549  17.016   7.938
41946W        W42810  20.837  16.322  10.404
41947W        W42811  20.557  15.780   9.742
41948W        W42812  19.066  16.189   9.777
41949W        W42813  21.314  18.062   9.687
41950W        W42814  21.069  14.869  10.596
41951W        W42815  18.568  14.787  10.434
41952W        W42816  19.239  15.798   9.476
41953W        W42817  19.514  15.632   7.287
41954W        W42818  18.282  17.577  10.017
41955W        W42819  19.881  16.220   9.431
41956W        W42820  19.611  15.097   7.444
41957W        W42821  19.418  16.581   8.714
41958W        W42822  18.456  18.061   9.753
41959W        W42823  21.204  16.205   7.642
41960W        W42824  21.595  15.023  10.510
41961W        W42825  21.067  17.179   8.685
41962W        W42826  18.540  16.062  10.545
41963W        W42827  21.392  14.623   7.768
41964W        W42828  21.263  17.063   7.934
41965W        W42829  20.014  15.860   7.973
41966W        W42830  21.008  14.950   7.557
41967W        W42831  21.089  15.657   9.782
41968W        W42832  18.549  16.190   9.016
41969W        W42833  18.972  16.977   8.642
41970W        W42834  20.813  15.772   8.503
41971W        W42835  19.897  15.263   9.305
41972W        W42836  21.710  17.065   9.864
41973W        W42837  21.766  15.203   9.522
41974W        W42838  18.334  17.870   8.797
41975W        W42839  18.589  17.045   8.277
41976W        W42840  18.614  14.806  10.960
41977W        W42841  19.817  17.575  10.790
41978W        W42842  21.764  16.547   8.909
41979W        W42843  20.928  16.760   7.626
41980W        W42844  20.427  18.279   9.651
41981W        W42845  21.095  17.136  10.941
41982W        W42846  19.779  14.608   8.133
41983W        W42847  20.589  15.445   8.908
41984W        W42848  18.314  17.113   9.272
41985W        W42849  19.704  15.102   8.026
41986W        W42850  19.578  16.596  10.665
41987W        W42851  20.379  15.501   8.443
41988W        W42852  20.487  17.044   9.654
41989W        W42853  18.775  17.613   9.880
41990W        W42854  19.345  17.323  10.507
41991W        W42855  19.250  15.313   7.757
41992W        W42856  20.721  15.476   8.062
41993W        W42857  20.688  17.651  10.264
41994W        W42858  19.510  16.151   9.046
41995W        W42859  18.957  17.994   9.595
41996W        W42860  21.554  17.949   7.464
41997W        W42861  18.377  16.588  10.302
41998W        W42862  20.257  16.980   9.166
41999W        W42863  19.229  16.739   8.246
42000W        W42864  19.293  17.617   9.688
42001W        W42865  20.108  14.951   8.941
42002W        W42866  18.275  16.871   7.839
42003W        W42867  20.001  15.825   7.408
42004W        W42868  18.903  16.585   8.960
42005W        W42869  19.869  15.027  10.013
42006W        W42870  21.457  14.848   7.321
42007W        W42871  21.452  16.854  10.700
42008W        W42872  20.291  18.038  10.583
42009W        W42873  21.838  17.060  10.384
42010W        W42874  21.223  17.784  10.654
42011W        W42875  19.054  18.241   9.176
42012W        W42876  21.933  16.844   8.513
42013W        W42877  20.455  16.097   8.709
42014W        W42878  20.210  14.627   8.478
42015W        W42879  19.251  17.646   8.486
42016W        W42880  19.611  15.500   9.702
42017W        W42881  19.706  14.744   9.182
42018W        W42882  18.440  17.791   7.680
42019W        W42883  20.145  16.853   8.662
42020W        W42884  19.407  17.735  10.163
42021W        W42885  18.580  16.534   8.531
42022W        W42886  18.578  15.084   9.093
42023W        W42887  19.791  17.069   8.967
42024W        W42888  18.454  15.144   7.958
42025W        W42889  21.059  16.166   9.969
42026W        W42890  20.956  15.446   7.586
42027W        W42891  21.261  17.196   9.217
42028W        W42892  20.041  17.504   9.072
42029W        W42893  19.506  17.919   8.042
42030W        W42894  20.561  14.710   7.415
42031W        W42895  18.591  17.944   9.236
42032W        W42896  20.462  15.638  10.628
42033W        W42897  18.782  15.209  10.625
42034W        W42898  18.091  15.546   8.493
42035W        W42899  19.556  15.972   7.759
42036W        W42900  20.814  15.984  10.784
42037W        W42901  19.414  16.447   9.463
42038W        W42902  20.758  14.603   8.367
42039W        W42903  19.881  17.987   9.000
42040W        W42904  21.092  17.581   9.951
42041W        W42905  20.889  17.537   9.003
42042W        W42906  20.645  16.786   8.777
42043W        W42907  20.073  14.916   7.738
42044W        W42908  21.757  14.673   8.503
42045W        W42909  19.367  16.170   7.315
42046W        W42910  21.588  15.513   8.624
42047W        W42911  19.931  16.797   7.669
42048W        W42912  21.341  16.983  10.213
42049W        W42913  21.079  17.657   7.611
42050W        W42914  19.662  15.365  10.642
42051W        W42915  19.559  16.033   9.796
42052W        W42916  21.538  17.463  10.186
42053W        W42917  20.633  15.299  10.272
42054W        W42918  18.250  15.775  10.227
42055W        W42919  20.291  16.266   9.907
42056W        W42920  18.491  16.944   8.815
42057W        W42921  18.587  16.242   9.550
42058W        W42922  20.968  16.673  10.019
42059W        W42923  20.886  18.125  10.413
42060W        W42924  20.755  15.818  10.228
42061W        W42925  21.109  17.836   8.602
42062W        W42926  19.998  17.639   9.907
42063W        W42927  19.305  17.792   9.205
42064W        W42928  21.217  17.046   9.716
42065W        W42929  20.177  17.223  10.937
42066W        W42930  18.828  17.040   9.182
42067W        W42931  21.155  16.717   8.866
42068W        W42932  20.744  17.883   9.393
42069W        W42933  18.899  17.523   9.377
42070W        W42934  19.975  15.748  10.595
42071W        W42935  20.040  17.696   8.054
42072W        W42936  19.721  17.075  10.749
42073W        W42937  19.627  17.438   8.221
42074W        W42938  19.008  15.753   7.197
42075W        W42939  18.325  18.317  14.379
42076W        W42940  18.799  17.115  13.867
42077W        W42941  21.400  16.756  11.733
42078W        W42942  21.656  17.866  13.695
42079W        W42943  19.322  17.885  11.176
42080W        W42944  19.620  16.051  12.234
42081W        W42945  19.175  15.891  12.599
42082W        W42946  20.192  16.540  11.736
42083W        W42947  19.692  17.904  14.012
42084W        W42948  18.275  15.359  14.013
42085W        W42949  18.940  14.516  13.804
42086W        W42950  20.847  14.963  12.664
42087W        W42951  20.481  15.725  11.124
42088W        W42952  20.942  15.463  14.270
42089W        W42953  18.356  15.032  13.621
42090W        W42954  18.497  17.845  14.505
42091W        W42955  20.131  16.910  11.368
42092W        W42956  18.304  15.692  13.061
42093W        W42957  19.433  15.874  14.179
42094W        W42958  21.711  15.632  12.937
42095W        W42959  21.330  16.570  13.502
42096W        W42960  19.945  16.203  12.654
42097W        W42961  20.460  17.480  12.970
42098W        W42962  18.831  16.761  13.050
42099W        W42963  17.968  16.077  12.893
42100W        W42964  19.412  16.278  13.877
42101W        W42965  21.557  16.101  14.222
42102W        W42966  19.031  17.671  12.664
42103W        W42967  20.307  17.284  13.758
42104W        W42968  19.614  15.918  12.941
42105W        W42969  19.759  16.715  12.695
42106W        W42970  20.604  17.671  14.454
42107W        W42971  19.905  16.646  14.487
42108W        W42972  19.883  16.555  13.963
42109W        W42973  17.995  15.625  14.369
42110W        W42974  21.041  17.294  14.294
42111W        W42975  18.711  14.735  12.169
42112W        W42976  19.250  17.430  13.208
42113W        W42977  21.582  16.959  12.621
42114W        W42978  20.888  15.319  13.059
42115W        W42979  21.299  15.247  10.882
42116W        W42980  21.839  15.988  13.412
42117W        W42981  19.913  17.927  13.173
42118W        W42982  21.701  17.169  11.832
42119W        W42983  18.651  18.280  11.601
42120W        W42984  19.152  18.183  11.998
42121W        W42985  19.032  14.844  13.409
42122W        W42986  21.417  16.035  13.729
42123W        W42987  20.892  16.260  12.292
42124W        W42988  20.846  16.045  11.300
42125W        W42989  20.131  17.264  13.281
42126W        W42990  20.096  15.361  12.447
42127W        W42991  20.442  17.697  13.444
42128W        W42992  21.372  16.355  12.100
42129W        W42993  20.346  15.083  11.748
42130W        W42994  18.830  17.829  11.803
42131W        W42995  18.280  15.150  12.314
42132W        W42996  20.808  15.859  12.656
42133W        W42997  18.528  17.528  12.756
42134W        W42998  19.819  17.791  11.289
42135W        W42999  21.284  15.794  10.919
42136W        W43000  18.361  17.583  13.255
42137W        W43001  19.168  17.443  13.706
42138W        W43002  19.593  16.581  12.220
42139W        W43003  19.401  15.070  13.141
42140W        W43004  21.817  14.775  12.741
42141W        W43005  18.824  16.501  10.560
42142W        W43006  18.601  15.318  11.095
42143W        W43007  18.679  17.605  12.263
42144W        W43008  19.596  17.080  12.369
42145W        W43009  21.186  17.896  13.909
42146W        W43010  20.148  15.531  11.495
42147W        W43011  21.291  17.984  12.647
42148W        W43012  21.059  15.962  14.100
42149W        W43013  21.790  17.354  12.316
42150W        W43014  20.407  16.753  13.830
42151W        W43015  17.991  16.383  12.026
42152W        W43016  19.197  16.942  13.462
42153W        W43017  20.482  16.020  12.010
42154W        W43018  20.494  16.544  12.146
42155W        W43019  18.684  15.823  13.386
42156W        W43020  18.681  15.689  13.881
42157W        W43021  18.648  14.780  12.677
42158W        W43022  20.447  15.039  13.065
42159W        W43023  20.065  15.201  14.006
42160W        W43024  20.508  15.238  11.273
42161W        W43025  21.612  17.794  14.237
42162W        W43026  20.563  14.677  14.000
42163W        W43027  21.546  17.153  14.392
42164W        W43028  21.066  15.333  13.773
42165W        W43029  21.019  15.109  12.146
42166W        W43030  21.185  16.328  14.503
42167W        W43031  18.821  18.079  12.407
42168W        W43032  19.693  15.425  11.255
42169W        W43033  19.116  14.924  14.096
42170W        W43034  21.161  15.484  11.830
42171W        W43035  21.501  15.903  11.906
42172W        W43036  19.345  18.131  14.325
42173W        W43037  19.166  14.591  11.518
42174W        W43038  21.548  15.210  12.686
42175W        W43039  21.858  17.565  11.062
42176W        W43040  18.354  16.596  12.882
42177W        W43041  20.621  15.176  10.782
42178W        W43042  21.741  17.423  12.846
42179W        W43043  21.652  14.737  13.415
42180W        W43044  20.303  16.031  14.054
42181W        W43045  20.142  17.183  11.818
42182W        W43046  20.732  16.491  14.628
42183W        W43047  20.502  14.594  12.798
42184W        W43048  18.789  15.630  12.890
42185W        W43049  18.702  16.732  13.539
42186W        W43050  20.459  17.859  12.459
42187W        W43051  21.466  15.609  13.411
42188W        W43052  20.278  18.027  13.846
42189W        W43053  21.413  16.636  11.187
42190W        W43054  20.044  16.330  12.173
42191W        W43055  21.732  14.750  13.926
42192W        W43056  19.979  16.907  13.606
42193W        W43057  20.092  15.718  12.830
42194W        W43058  20.982  15.964  11.855
42195W        W43059  21.290  15.783  11.438
42196W        W43060  21.356  17.542  11.979
42197W        W43061  21.078  17.110  12.697
42198W        W43062  20.718  16.373  11.713
42199W        W43063  20.272  16.640  12.630
42200W        W43064  21.237  16.179  12.714
42201W        W43065  18.598  15.323  13.285
42202W        W43066  21.212  16.437  14.002
42203W        W43067  21.707  17.918  13.125
42204W        W43068  19.534  17.553  12.576
42205W        W43069  20.771  18.064  13.626
42206W        W43070  20.596  15.377  13.488
42207W        W43071  19.843  18.203  13.600
42208W        W43072  21.509  15.034  11.911
42209W        W43073  21.353  16.126  13.236
42210W        W43074  18.237  15.562  13.557
42211W        W43075  21.081  15.410  12.566
42212W        W43076  21.427  15.591  14.047
42213W        W43077  20.453  17.326  12.485
42214W        W43078  19.718  17.835  12.198
42215W        W43079  18.739  14.897  11.451
42216W        W43080  20.020  14.703  13.075
42217W        W43081  18.823  18.108  11.124
42218W        W43082  19.713  16.345  11.754
42219W        W43083  20.010  17.036  14.108
42220W        W43084  20.010  14.977  12.120
42221W        W43085  21.313  14.808  12.439
42222W        W43086  20.807  18.143  12.710
42223W        W43087  20.377  17.978  12.966
42224W        W43088  19.730  16.932  13.161
42225W        W43089  21.553  17.464  13.401
42226W        W43090  19.091  14.940  11.885
42227W        W43091  19.732  17.456  13.050
42228W        W43092  19.221  15.287  10.910
42229W        W43093  20.006  15.909  13.305
42230W        W43094  20.890  14.744  13.134
42231W        W43095  18.233  16.597  13.393
42232W        W43096  20.002  16.384  11.288
42233W        W43097  19.151  14.762  10.982
42234W        W43098  20.093  15.844  12.322
42235W        W43099  20.795  14.915  13.599
42236W        W43100  19.502  16.927  13.907
42237W        W43101  20.374  16.725  14.334
42238W        W43102  20.852  16.817  14.197
42239W        W43103  20.091  14.794  14.452
42240W        W43104  19.304  15.482  12.865
42241W        W43105  18.778  15.230  12.442
42242W        W43106  18.418  18.053  12.019
42243W        W43107  20.129  17.598  14.129
42244W        W43108  19.774  17.284  11.420
42245W        W43109  20.761  16.496  12.761
42246W        W43110  20.854  16.123  13.105
42247W        W43111  20.199  16.748  13.133
42248W        W43112  20.605  16.938  10.991
42249W        W43113  20.507  15.077  12.264
42250W        W43114  21.664  15.475  11.678
42251W        W43115  18.509  18.014  13.983
42252W        W43116  18.780  17.243  13.377
42253W        W43117  18.024  17.993  11.680
42254W        W43118  20.125  15.392  13.267
42255W        W43119  19.407  17.395  11.031
42256W        W43120  21.636  17.613  11.538
42257W        W43121  20.359  16.064  11.490
42258W        W43122  19.798  15.479  12.041
42259W        W43123  20.115  15.382  10.951
42260W        W43124  20.486  17.220  14.235
42261W        W43125  20.864  15.113  11.630
42262W        W43126  18.303  14.504  11.287
42263W        W43127  19.627  17.273  13.522
42264W        W43128  19.402  17.121  12.835
42265W        W43129  19.238  16.927  10.868
42266W        W43130  18.298  17.565  11.886
42267W        W43131  18.952  16.115  14.084
42268W        W43132  19.624  14.787  14.222
42269W        W43133  20.288  14.979  13.588
42270W        W43134  19.550  14.737  12.047
42271W        W43135  20.534  14.749  11.411
42272W        W43136  18.558  14.796  13.199
42273W        W43137  18.380  15.622  12.547
42274W        W43138  21.370  14.783  12.957
42275W        W43139  18.600  15.167  11.903
42276W        W43140  21.232  15.079  13.349
42277W        W43141  21.591  16.129  11.183
42278W        W43142  18.923  15.131  12.947
42279W        W43143  20.186  15.625  13.730
42280W        W43144  18.196  15.042  11.275
42281W        W43145  19.048  16.650  13.918
42282W        W43146  20.320  16.218  13.019
42283W        W43147  20.170  18.230  11.210
42284W        W43148  18.217  16.356  10.828
42285W        W43149  19.168  17.325  14.198
42286W        W43150  18.585  16.228  13.727
42287W        W43151  19.585  16.588  13.520
42288W        W43152  21.247  14.721  13.746
42289W        W43153  21.717  16.470  13.848
42290W        W43154  21.697  16.336  11.667
42291W        W43155  20.574  16.884  11.737
42292W        W43156  21.078  18.131  11.003
42293W        W43157  20.281  16.262  14.522
42294W        W43158  18.685  17.355  14.585
42295W        W43159  21.852  15.163  14.481
42296W        W43160  21.204  15.720  12.959
42297W        W43161  19.801  18.074  14.550
42298W        W43162  19.645  14.661  11.349
42299W        W43163  21.419  17.139  11.370
42300W        W43164  19.151  15.488  14.001
42301W        W43165  19.654  17.404  14.009
42302W        W43166  21.584  15.191  13.688
42303W        W43167  21.365  18.051  11.439
42304W        W43168  20.990  16.781  13.145
42305W        W43169  19.363  15.149  13.678
42306W        W43170  19.832  16.177  14.291
42307W        W43171  19.272  16.940  12.003
42308W        W43172  20.983  16.692  12.009
42309W        W43173  18.831  15.201  13.730
42310W        W43174  19.987  17.394  12.272
42311W        W43175  21.665  15.904  12.490
42312W        W43176  20.046  14.688  13.943
42313W        W43177  20.910  17.307  13.134
42314W        W43178  21.286  17.618  13.002
42315W        W43179  20.252  17.753  11.008
42316W        W43180  18.373  17.165  14.180
42317W        W43181  19.094  15.463  13.346
42318W        W43182  19.155  14.841  12.426
42319W        W43183  20.532  15.714  13.098
42320W        W43184  19.654  16.794  11.190
42321W        W43185  21.441  16.584  12.974
42322W        W43186  18.694  17.553  14.116
42323W        W43187  21.326  18.179  11.972
42324W        W43188  19.608  15.128  12.406
42325W        W43189  19.209  16.750  12.561
42326W        W43190  19.443  18.315  13.270
42327W        W43191  21.335  18.241  14.267
42328W        W43192  20.599  16.502  13.345
42329W        W43193  18.439  15.914  11.047
42330W        W43194  21.650  17.864  12.253
42331W        W43195  21.333  15.197  11.399
42332W        W43196  19.458  14.632  13.748
42333W        W43197  21.343  17.497  12.497
42334W        W43198  21.193  15.853  12.312
42335W        W43199  19.664  15.630  12.529
42336W        W43200  19.868  16.049  13.793
42337W        W43201  20.808  17.188  13.845
42338W        W43202  19.602  15.614  13.765
42339W        W43203  19.328  18.049  12.507
42340W        W43204  18.839  18.234  14.324
42341W        W43205  18.943  17.642  10.883
42342W        W43206  21.318  17.059  12.194
42343W        W43207  19.130  15.877  13.662
42344W        W43208  21.675  15.525  11.123
42345W        W43209  19.749  16.863  11.773
42346W        W43210  20.701  16.345  14.101
42347W        W43211  20.471  16.017  13.514
42348W        W43212  19.089  16.378  13.465
42349W        W43213  21.245  17.989  13.389
42350W        W43214  20.942  14.910  14.309
42351W        W43215  18.581  14.868  14.046
42352W        W43216  19.118  15.961  13.124
42353W        W43217  19.509  15.780  10.905
42354W        W43218  18.333  17.325  13.691
42355W        W43219  19.808  16.390  13.102
42356W        W43220  19.667  14.997  10.980
42357W        W43221  18.943  16.335  12.788
42358W        W43222  18.528  18.136  13.456
42359W        W43223  21.208  16.309  11.548
42360W        W43224  21.401  15.076  14.145
42361W        W43225  20.909  17.361  12.229
42362W        W43226  18.303  16.292  14.311
42363W        W43227  21.523  14.712  11.481
42364W        W43228  21.057  17.149  11.756
42365W        W43229  19.997  15.921  11.824
42366W        W43230  20.941  14.967  11.128
42367W        W43231  20.965  15.729  13.425
42368W        W43232  18.474  16.089  12.765
42369W        W43233  19.051  17.224  12.387
42370W        W43234  20.771  15.587  12.185
42371W        W43235  19.816  15.241  12.877
42372W        W43236  21.663  16.969  13.552
42373W        W43237  21.729  15.176  13.177
42374W        W43238  18.314  17.910  12.493
42375W        W43239  18.538  17.144  12.074
42376W        W43240  18.710  14.912  14.566
42377W        W43241  19.541  17.637  14.460
42378W        W43242  21.675  16.439  12.540
42379W        W43243  20.961  16.757  11.406
42380W        W43244  20.318  18.255  13.389
42381W        W43245  21.169  16.852  14.583
42382W        W43246  20.009  14.649  11.724
42383W        W43247  20.552  15.405  12.671
42384W        W43248  18.414  17.096  13.057
42385W        W43249  19.711  15.088  11.699
42386W        W43250  19.438  16.574  14.291
42387W        W43251  20.308  15.520  11.993
42388W        W43252  20.579  17.020  13.405
42389W        W43253  18.704  17.685  13.631
42390W        W43254  19.013  17.757  14.469
42391W        W43255  19.302  15.067  11.378
42392W        W43256  20.666  15.623  11.618
42393W        W43257  20.634  17.657  13.939
42394W        W43258  19.451  16.312  12.662
42395W        W43259  19.050  18.029  13.458
42396W        W43260  21.594  18.001  10.977
42397W        W43261  18.503  16.678  14.016
42398W        W43262  20.580  16.986  12.884
42399W        W43263  18.833  16.748  12.222
42400W        W43264  19.500  17.803  13.508
42401W        W43265  20.123  14.898  12.623
42402W        W43266  18.137  17.068  11.742
42403W        W43267  19.983  15.878  11.120
42404W        W43268  18.425  16.470  12.385
42405W        W43269  19.797  14.984  13.460
42406W        W43270  21.593  14.846  10.998
42407W        W43271  21.580  16.628  14.318
42408W        W43272  20.271  18.050  14.357
42409W        W43273  21.846  16.966  14.025
42410W        W43274  21.112  17.796  14.409
42411W        W43275  19.014  18.152  12.927
42412W        W43276  21.722  16.755  12.152
42413W        W43277  20.435  16.169  12.510
42414W        W43278  20.316  14.563  12.279
42415W        W43279  19.208  17.681  12.162
42416W        W43280  19.621  15.526  13.272
42417W        W43281  19.602  14.755  12.761
42418W        W43282  18.370  17.937  11.315
42419W        W43283  20.050  16.857  12.219
42420W        W43284  19.066  17.884  13.964
42421W        W43285  18.423  16.657  11.897
42422W        W43286  18.413  15.211  12.826
42423W        W43287  20.056  17.131  12.768
42424W        W43288  18.283  14.800  11.722
42425W        W43289  20.940  16.203  13.627
42426W        W43290  20.942  15.496  11.173
42427W        W43291  21.421  17.090  13.082
42428W        W43292  20.049  17.657  12.707
42429W        W43293  19.528  17.955  11.716
42430W        W43294  20.655  14.563  10.946
42431W        W43295  18.506  18.037  12.939
42432W        W43296  20.405  15.578  14.284
42433W        W43297  18.742  15.310  14.237
42434W        W43298  18.354  15.624  12.040
42435W        W43299  19.554  16.271  11.098
42436W        W43300  20.692  15.953  14.489
42437W        W43301  19.331  16.617  13.059
42438W        W43302  20.842  14.623  12.266
42439W        W43303  19.821  18.112  12.664
42440W        W43304  20.992  17.577  13.561
42441W        W43305  20.870  17.607  12.682
42442W        W43306  20.730  16.895  12.404
42443W        W43307  20.049  15.013  11.330
42444W        W43308  21.765  14.675  12.245
42445W        W43309  19.236  16.209  10.705
42446W        W43310  21.486  15.445  12.226
42447W        W43311  20.485  16.552  11.307
42448W        W43312  21.314  16.929  13.978
42449W        W43313  21.310  17.597  11.127
42450W        W43314  19.579  15.282  14.173
42451W        W43315  19.529  16.077  13.415
42452W        W43316  21.430  17.421  13.909
42453W        W43317  20.590  15.195  13.989
42454W        W43318  18.209  15.891  13.946
42455W        W43319  20.116  16.404  13.517
42456W        W43320  18.540  17.001  12.569
42457W        W43321  18.635  16.304  13.214
42458W        W43322  20.894  16.710  13.700
42459W        W43323  20.773  18.101  14.158
42460W        W43324  20.688  15.710  13.872
42461W        W43325  20.974  17.895  12.256
42462W        W43326  19.968  17.655  13.632
42463W        W43327  19.431  17.871  12.985
42464W        W43328  21.177  17.100  13.519
42465W        W43329  20.128  17.110  14.612
42466W        W43330  18.907  17.224  12.880
42467W        W43331  21.190  16.646  12.494
42468W        W43332  20.833  17.835  13.138
42469W        W43333  18.839  17.704  13.133
42470W        W43334  19.913  15.685  14.174
42471W        W43335  19.979  17.680  11.777
42472W        W43336  19.599  17.083  14.428
42473W        W43337  19.590  17.371  11.933
42474W        W43338  18.948  15.748  10.711
42475W        W43339  18.324  18.213  18.038
42476W        W43340  18.690  17.142  17.519
42477W        W43341  21.537  16.680  15.307
42478W        W43342  21.676  17.821  17.277
42479W        W43343  19.318  17.956  14.832
42480W        W43344  19.663  15.986  15.709
42481W        W43345  18.992  15.846  16.114
42482W        W43346  20.081  16.654  15.331
42483W        W43347  19.764  17.906  17.604
42484W        W43348  18.310  15.451  17.595
42485W        W43349  18.990  14.691  17.396
42486W        W43350  20.844  15.052  16.396
42487W        W43351  20.389  15.554  14.815
42488W        W43352  20.832  15.479  17.870
42489W        W43353  18.384  15.178  17.171
42490W        W43354  18.465  17.732  18.146
42491W        W43355  19.726  17.344  14.866
42492W        W43356  18.317  15.875  16.652
42493W        W43357  19.362  15.937  17.810
42494W        W43358  21.628  15.577  16.385
42495W        W43359  21.423  16.632  17.123
42496W        W43360  19.888  15.902  16.212
42497W        W43361  20.524  17.419  16.661
42498W        W43362  18.914  16.757  16.863
42499W        W43363  18.234  16.360  16.488
42500W        W43364  19.346  16.330  17.453
42501W        W43365  21.517  16.070  17.840
42502W        W43366  19.082  17.570  16.333
42503W        W43367  20.332  17.252  17.328
42504W        W43368  19.559  15.680  16.574
42505W        W43369  19.633  16.661  16.299
42506W        W43370  20.515  17.544  18.081
42507W        W43371  19.824  16.729  18.068
42508W        W43372  19.825  16.543  17.583
42509W        W43373  18.234  15.738  18.051
42510W        W43374  20.955  17.284  17.920
42511W        W43375  18.728  14.773  15.819
42512W        W43376  19.205  17.208  16.936
42513W        W43377  21.704  16.946  16.256
42514W        W43378  21.226  15.341  16.667
42515W        W43379  21.386  15.382  14.553
42516W        W43380  21.732  16.135  17.063
42517W        W43381  19.837  17.899  16.823
42518W        W43382  21.794  17.140  15.393
42519W        W43383  18.665  18.048  15.327
42520W        W43384  19.041  18.086  15.729
42521W        W43385  18.895  15.081  17.072
42522W        W43386  21.351  15.889  17.314
42523W        W43387  20.814  16.328  15.890
42524W        W43388  20.909  16.113  14.943
42525W        W43389  20.101  17.217  16.875
42526W        W43390  19.925  15.375  16.173
42527W        W43391  20.459  17.692  17.098
42528W        W43392  21.303  16.399  15.697
42529W        W43393  20.519  14.890  15.565
42530W        W43394  18.962  17.648  15.467
42531W        W43395  18.444  15.242  15.862
42532W        W43396  20.773  15.974  16.247
42533W        W43397  18.562  17.573  16.407
42534W        W43398  19.781  17.846  15.041
42535W        W43399  21.185  15.832  14.573
42536W        W43400  18.371  17.607  16.909
42537W        W43401  19.167  17.321  17.443
42538W        W43402  19.328  16.697  15.870
42539W        W43403  19.420  15.077  16.880
42540W        W43404  21.781  14.725  16.524
42541W        W43405  18.845  16.927  14.339
42542W        W43406  18.716  15.420  14.739
42543W        W43407  18.756  17.527  15.923
42544W        W43408  19.586  17.139  15.972
42545W        W43409  21.212  17.806  17.533
42546W        W43410  20.195  15.669  15.282
42547W        W43411  21.468  18.123  16.195
42548W        W43412  21.023  15.926  17.688
42549W        W43413  21.993  17.377  16.054
42550W        W43414  20.465  16.767  17.408
42551W        W43415  18.217  16.138  15.676
42552W        W43416  19.336  16.764  17.169
42553W        W43417  20.499  15.979  15.591
42554W        W43418  20.339  16.481  15.723
42555W        W43419  18.794  15.865  16.907
42556W        W43420  18.658  15.826  17.707
42557W        W43421  18.739  14.625  16.372
42558W        W43422  20.386  15.219  16.564
42559W        W43423  20.019  15.225  17.781
42560W        W43424  20.585  15.196  15.145
42561W        W43425  21.675  17.695  17.790
42562W        W43426  20.456  14.813  17.753
42563W        W43427  21.470  17.214  17.931
42564W        W43428  21.012  15.470  17.397
42565W        W43429  20.878  15.139  15.858
42566W        W43430  21.100  16.329  18.017
42567W        W43431  18.800  17.985  16.184
42568W        W43432  19.878  15.436  14.970
42569W        W43433  19.130  14.957  17.806
42570W        W43434  21.131  15.455  15.500
42571W        W43435  21.470  15.870  15.529
42572W        W43436  19.438  18.083  17.966
42573W        W43437  19.345  14.706  15.094
42574W        W43438  21.526  15.101  16.267
42575W        W43439  21.920  17.310  14.755
42576W        W43440  18.598  16.701  16.461
42577W        W43441  20.529  15.142  14.536
42578W        W43442  21.724  17.455  16.478
42579W        W43443  21.618  14.742  17.025
42580W        W43444  20.198  16.085  17.719
42581W        W43445  20.032  17.183  15.281
42582W        W43446  20.662  16.505  18.201
42583W        W43447  20.318  14.732  16.404
42584W        W43448  19.049  15.556  16.530
42585W        W43449  18.574  16.715  17.253
42586W        W43450  20.377  17.794  16.147
42587W        W43451  21.549  15.698  16.877
42588W        W43452  20.297  17.987  17.498
42589W        W43453  21.513  16.562  14.818
42590W        W43454  19.822  16.477  15.821
42591W        W43455  21.679  14.846  17.521
42592W        W43456  20.019  16.817  17.185
42593W        W43457  20.083  15.631  16.617
42594W        W43458  20.990  16.046  15.479
42595W        W43459  21.244  15.734  15.076
42596W        W43460  21.522  17.609  15.474
42597W        W43461  20.851  17.006  16.392
42598W        W43462  20.610  16.417  15.287
42599W        W43463  20.151  16.582  16.222
42600W        W43464  21.130  16.347  16.354
42601W        W43465  18.616  15.401  16.769
42602W        W43466  21.240  16.361  17.525
42603W        W43467  21.721  17.918  16.753
42604W        W43468  19.598  17.571  16.274
42605W        W43469  20.803  18.022  17.302
42606W        W43470  20.736  15.277  16.991
42607W        W43471  19.917  18.210  17.222
42608W        W43472  21.388  15.059  15.740
42609W        W43473  21.266  16.196  16.883
42610W        W43474  18.294  15.671  17.106
42611W        W43475  21.128  15.452  16.182
42612W        W43476  21.404  15.575  17.757
42613W        W43477  20.417  17.252  16.181
42614W        W43478  19.726  17.878  15.869
42615W        W43479  18.961  15.021  14.986
42616W        W43480  19.876  14.642  16.691
42617W        W43481  18.802  18.131  14.825
42618W        W43482  19.621  16.408  15.333
42619W        W43483  19.977  17.041  17.661
42620W        W43484  20.030  15.140  15.671
42621W        W43485  21.176  14.767  16.108
42622W        W43486  20.935  18.098  16.291
42623W        W43487  20.327  17.934  16.664
42624W        W43488  19.694  16.892  16.790
42625W        W43489  21.466  17.498  16.939
42626W        W43490  19.262  15.084  15.447
42627W        W43491  19.649  17.424  16.763
42628W        W43492  19.172  15.232  14.521
42629W        W43493  19.992  15.955  17.004
42630W        W43494  20.826  14.767  16.918
42631W        W43495  18.250  16.738  16.847
42632W        W43496  19.937  16.319  14.916
42633W        W43497  19.238  14.729  14.576
42634W        W43498  20.085  15.694  15.781
42635W        W43499  20.820  14.938  17.418
42636W        W43500  19.479  16.938  17.626
42637W        W43501  20.280  16.624  17.856
42638W        W43502  20.830  16.759  17.791
42639W        W43503  20.069  14.870  18.189
42640W        W43504  19.429  15.216  16.373
42641W        W43505  18.937  15.307  16.075
42642W        W43506  18.455  17.920  15.790
42643W        W43507  20.135  17.537  17.726
42644W        W43508  19.373  17.029  15.104
42645W        W43509  20.631  16.478  16.392
42646W        W43510  20.794  16.118  16.721
42647W        W43511  20.067  16.538  16.739
42648W        W43512  20.675  17.008  14.663
42649W        W43513  20.389  15.112  16.050
42650W        W43514  21.643  15.359  15.400
42651W        W43515  18.509  17.942  17.633
42652W        W43516  18.624  17.175  17.010
42653W        W43517  18.138  18.055  15.390
42654W        W43518  20.217  15.324  17.043
42655W        W43519  19.351  17.540  15.149
42656W        W43520  21.777  17.717  15.048
42657W        W43521  20.387  16.054  14.990
42658W        W43522  19.698  15.492  15.473
42659W        W43523  20.026  15.312  14.504
42660W        W43524  20.461  17.117  17.807
42661W        W43525  21.006  14.953  15.377
42662W        W43526  18.403  14.615  14.905
42663W        W43527  19.661  17.184  17.213
42664W        W43528  19.388  17.119  16.452
42665W        W43529  19.206  17.325  14.706
42666W        W43530  18.180  17.546  15.500
42667W        W43531  18.943  16.243  17.817
42668W        W43532  19.604  14.836  17.986
42669W        W43533  20.321  14.862  17.263
42670W        W43534  19.683  14.728  15.662
42671W        W43535  20.511  14.655  15.060
42672W        W43536  18.518  14.876  16.793
42673W        W43537  18.561  15.595  16.292
42674W        W43538  21.272  14.829  16.635
42675W        W43539  18.753  15.175  15.446
42676W        W43540  21.214  15.066  17.103
42677W        W43541  21.610  16.057  14.735
42678W        W43542  18.966  15.050  16.553
42679W        W43543  20.066  15.628  17.433
42680W        W43544  18.408  15.108  14.998
42681W        W43545  18.989  16.706  17.569
42682W        W43546  20.293  16.101  16.573
42683W        W43547  20.175  18.228  14.992
42684W        W43548  18.249  16.819  14.528
42685W        W43549  19.085  17.096  17.918
42686W        W43550  18.646  16.218  17.382
42687W        W43551  19.712  16.411  17.087
42688W        W43552  21.226  14.628  17.383
42689W        W43553  21.747  16.449  17.474
42690W        W43554  21.870  16.307  15.111
42691W        W43555  20.471  16.941  15.500
42692W        W43556  21.073  18.204  14.725
42693W        W43557  20.222  16.243  18.193
42694W        W43558  18.706  17.213  18.256
42695W        W43559  21.670  15.144  17.970
42696W        W43560  21.215  15.856  16.498
42697W        W43561  19.836  18.116  18.328
42698W        W43562  19.836  14.598  14.917
42699W        W43563  21.471  17.078  14.955
42700W        W43564  19.058  15.481  17.701
42701W        W43565  19.619  17.435  17.647
42702W        W43566  21.559  15.381  17.302
42703W        W43567  21.270  17.871  15.092
42704W        W43568  21.032  16.679  16.755
42705W        W43569  19.307  15.144  17.375
42706W        W43570  19.755  16.216  17.982
42707W        W43571  19.211  17.176  15.570
42708W        W43572  20.933  16.728  15.583
42709W        W43573  18.744  15.514  17.299
42710W        W43574  20.001  17.456  15.957
42711W        W43575  21.745  15.965  16.044
42712W        W43576  19.978  14.725  17.668
42713W        W43577  21.028  17.352  16.714
42714W        W43578  21.285  17.755  16.511
42715W        W43579  20.080  17.644  14.638
42716W        W43580  18.350  17.273  17.884
42717W        W43581  19.191  15.524  17.025
42718W        W43582  19.163  14.846  16.086
42719W        W43583  20.764  15.566  16.550
42720W        W43584  19.813  16.837  14.946
42721W        W43585  21.527  16.558  16.626
42722W        W43586  18.807  17.543  17.816
42723W        W43587  21.420  18.112  15.656
42724W        W43588  19.539  15.170  15.872
42725W        W43589  19.091  16.712  16.336
42726W        W43590  19.464  18.242  16.984
42727W        W43591  21.409  18.168  17.824
42728W        W43592  20.550  16.528  16.924
42729W        W43593  18.489  15.746  14.371
42730W        W43594  21.743  17.786  15.902
42731W        W43595  21.296  15.226  15.040
42732W        W43596  19.501  14.667  17.489
42733W        W43597  21.277  17.278  16.278
42734W        W43598  21.232  15.972  15.987
42735W        W43599  19.465  15.644  16.065
42736W        W43600  19.764  16.046  17.464
42737W        W43601  20.833  17.136  17.452
42738W        W43602  19.512  15.607  17.451
42739W        W43603  19.327  18.008  16.175
42740W        W43604  18.911  18.044  17.978
42741W        W43605  18.881  17.655  14.962
42742W        W43606  21.544  17.279  15.858
42743W        W43607  19.069  15.900  17.383
42744W        W43608  21.717  15.569  14.906
42745W        W43609  19.666  16.901  15.519
42746W        W43610  20.650  16.321  17.628
42747W        W43611  20.490  15.767  16.965
42748W        W43612  19.044  16.298  17.049
42749W        W43613  21.246  17.962  17.017
42750W        W43614  20.920  14.919  17.986
42751W        W43615  18.662  15.063  17.596
42752W        W43616  19.183  16.050  16.590
42753W        W43617  19.564  15.577  14.585
42754W        W43618  18.284  17.469  17.396
42755W        W43619  19.724  16.173  16.610
42756W        W43620  19.644  15.031  14.695
42757W        W43621  18.941  16.348  16.010
42758W        W43622  18.508  18.163  17.157
42759W        W43623  21.361  16.224  15.175
42760W        W43624  21.257  15.093  17.651
42761W        W43625  20.943  17.201  15.890
42762W        W43626  18.407  16.251  17.864
42763W        W43627  21.404  14.717  15.103
42764W        W43628  21.277  17.096  15.464
42765W        W43629  20.063  16.154  15.421
42766W        W43630  20.913  14.938  14.848
42767W        W43631  21.027  15.719  16.958
42768W        W43632  18.695  16.143  16.419
42769W        W43633  19.074  17.143  16.056
42770W        W43634  20.830  15.686  15.840
42771W        W43635  19.877  15.156  16.648
42772W        W43636  21.741  17.088  17.115
42773W        W43637  21.715  15.206  16.797
42774W        W43638  18.235  17.978  16.266
42775W        W43639  18.336  17.075  15.687
42776W        W43640  18.694  14.931  18.101
42777W        W43641  19.776  17.670  18.078
42778W        W43642  21.592  16.434  16.137
42779W        W43643  21.048  16.627  15.054
42780W        W43644  20.402  18.251  17.059
42781W        W43645  21.161  16.842  18.162
42782W        W43646  20.091  14.704  15.360
42783W        W43647  20.398  15.614  16.185
42784W        W43648  18.328  17.159  16.581
42785W        W43649  19.726  15.025  15.229
42786W        W43650  19.361  16.543  17.904
42787W        W43651  20.483  15.403  15.615
42788W        W43652  20.681  17.036  16.973
42789W        W43653  18.764  17.627  17.301
42790W        W43654  19.271  17.584  18.014
42791W        W43655  19.369  15.344  15.009
42792W        W43656  20.725  15.690  15.220
42793W        W43657  20.648  17.597  17.586
42794W        W43658  19.438  16.195  16.154
42795W        W43659  19.018  18.011  17.069
42796W        W43660  21.569  18.047  14.703
42797W        W43661  18.495  16.749  17.788
42798W        W43662  20.381  16.905  16.569
42799W        W43663  18.800  16.800  15.794
42800W        W43664  19.455  17.692  17.165
42801W        W43665  19.805  14.867  16.210
42802W        W43666  18.212  16.802  15.060
42803W        W43667  20.001  15.850  14.667
42804W        W43668  18.427  16.478  16.015
42805W        W43669  19.823  15.069  17.301
42806W        W43670  21.403  14.881  14.628
42807W        W43671  21.585  16.598  17.950
42808W        W43672  20.230  17.988  18.007
42809W        W43673  21.798  16.959  17.599
42810W        W43674  21.238  17.696  18.051
42811W        W43675  19.042  18.247  16.599
42812W        W43676  21.664  16.792  15.775
42813W        W43677  20.323  16.112  16.057
42814W        W43678  20.157  14.671  15.883
42815W        W43679  19.284  17.601  15.860
42816W        W43680  19.732  15.498  17.013
42817W        W43681  19.386  14.711  16.519
42818W        W43682  18.366  17.738  15.021
42819W        W43683  20.078  16.943  15.850
42820W        W43684  19.188  17.840  17.571
42821W        W43685  18.418  16.587  15.497
42822W        W43686  18.473  15.087  16.341
42823W        W43687  19.933  17.073  16.357
42824W        W43688  18.307  14.924  15.461
42825W        W43689  20.874  16.131  17.221
42826W        W43690  20.897  15.456  14.785
42827W        W43691  21.459  17.047  16.689
42828W        W43692  20.065  17.544  16.477
42829W        W43693  19.446  17.929  15.452
42830W        W43694  20.568  14.633  14.547
42831W        W43695  18.596  18.012  16.666
42832W        W43696  20.330  15.642  17.940
42833W        W43697  18.637  15.420  17.999
42834W        W43698  18.570  15.746  15.794
42835W        W43699  19.725  15.896  15.133
42836W        W43700  20.666  16.012  18.033
42837W        W43701  19.361  16.516  16.716
42838W        W43702  20.669  14.661  16.008
42839W        W43703  19.914  18.011  16.327
42840W        W43704  20.965  17.543  17.171
42841W        W43705  20.837  17.567  16.280
42842W        W43706  20.605  16.808  15.996
42843W        W43707  20.160  15.011  14.915
42844W        W43708  21.697  14.672  15.987
42845W        W43709  19.518  16.087  14.679
42846W        W43710  21.532  15.521  15.888
42847W        W43711  20.312  16.672  14.864
42848W        W43712  21.287  16.874  17.586
42849W        W43713  21.449  17.544  14.697
42850W        W43714  19.510  15.320  17.878
42851W        W43715  19.460  15.965  17.033
42852W        W43716  21.452  17.363  17.444
42853W        W43717  20.470  15.297  17.530
42854W        W43718  18.199  15.951  17.509
42855W        W43719  20.212  16.334  17.272
42856W        W43720  18.561  17.097  16.137
42857W        W43721  18.553  16.328  16.886
42858W        W43722  20.927  16.653  17.262
42859W        W43723  20.840  18.011  17.839
42860W        W43724  20.569  15.800  17.490
42861W        W43725  21.237  17.704  15.971
42862W        W43726  19.965  17.608  17.231
42863W        W43727  19.349  17.841  16.672
42864W        W43728  21.192  17.077  17.110
42865W        W43729  20.091  17.206  18.165
42866W        W43730  18.864  17.152  16.541
42867W        W43731  21.208  16.785  16.059
42868W        W43732  20.825  17.842  16.750
42869W        W43733  18.890  17.596  16.806
42870W        W43734  19.831  15.720  17.889
42871W        W43735  20.059  17.761  15.492
42872W        W43736  19.583  17.173  18.086
42873W        W43737  19.662  17.438  15.548
42874W        W43738  19.018  15.723  14.439
42875W        W43739  18.246  18.353  21.645
42876W        W43740  18.813  17.290  21.105
42877W        W43741  21.381  16.823  18.796
42878W        W43742  21.629  17.827  20.928
42879W        W43743  19.076  18.050  18.771
42880W        W43744  19.500  16.059  19.209
42881W        W43745  19.139  15.812  19.620
42882W        W43746  19.856  16.421  18.978
42883W        W43747  19.768  17.947  21.243
42884W        W43748  18.372  15.273  21.151
42885W        W43749  19.383  14.568  20.914
42886W        W43750  20.768  14.942  19.847
42887W        W43751  20.446  15.849  18.457
42888W        W43752  21.073  15.271  21.481
42889W        W43753  18.416  15.010  20.721
42890W        W43754  18.441  17.887  21.746
42891W        W43755  19.684  17.424  18.542
42892W        W43756  18.492  15.835  20.208
42893W        W43757  19.363  16.069  21.242
42894W        W43758  21.653  15.457  20.088
42895W        W43759  21.407  16.596  20.757
42896W        W43760  20.049  15.754  19.944
42897W        W43761  20.604  17.361  20.231
42898W        W43762  18.750  16.806  20.396
42899W        W43763  18.140  16.234  20.138
42900W        W43764  19.408  16.454  20.901
42901W        W43765  21.498  15.994  21.461
42902W        W43766  19.143  17.559  19.852
42903W        W43767  20.216  17.282  20.882
42904W        W43768  19.512  15.848  20.090
42905W        W43769  19.722  16.670  19.775
42906W        W43770  20.577  17.618  21.673
42907W        W43771  20.006  16.730  21.633
42908W        W43772  19.958  16.523  21.132
42909W        W43773  18.088  15.631  21.658
42910W        W43774  21.042  17.279  21.280
42911W        W43775  18.624  14.881  19.394
42912W        W43776  19.313  17.401  20.338
42913W        W43777  21.502  16.980  19.753
42914W        W43778  21.228  15.337  20.388
42915W        W43779  21.214  15.292  18.165
42916W        W43780  21.918  16.019  20.739
42917W        W43781  19.961  17.948  20.343
42918W        W43782  21.562  17.344  18.766
42919W        W43783  18.620  18.195  18.937
42920W        W43784  18.976  18.040  19.294
42921W        W43785  19.235  14.925  20.500
42922W        W43786  21.464  16.075  20.952
42923W        W43787  20.779  16.197  19.451
42924W        W43788  20.911  16.159  18.495
42925W        W43789  20.149  17.476  20.410
42926W        W43790  19.928  15.311  19.674
42927W        W43791  20.547  17.646  20.679
42928W        W43792  21.286  16.331  19.428
42929W        W43793  20.395  14.843  19.050
42930W        W43794  18.750  17.693  18.983
42931W        W43795  18.253  15.233  19.378
42932W        W43796  20.728  15.871  19.867
42933W        W43797  18.592  17.579  19.995
42934W        W43798  19.412  17.856  18.431
42935W        W43799  21.122  15.806  18.181
42936W        W43800  18.431  17.634  20.492
42937W        W43801  19.263  17.359  20.860
42938W        W43802  19.500  16.569  19.328
42939W        W43803  19.743  14.985  20.627
42940W        W43804  21.712  14.785  20.130
42941W        W43805  18.888  16.663  18.134
42942W        W43806  18.696  15.553  18.494
42943W        W43807  18.740  17.529  19.494
42944W        W43808  19.463  17.094  19.390
42945W        W43809  21.178  17.780  21.214
42946W        W43810  20.207  15.495  18.739
42947W        W43811  21.343  17.937  20.024
42948W        W43812  21.089  15.760  21.247
42949W        W43813  21.848  17.481  19.589
42950W        W43814  20.401  16.795  21.025
42951W        W43815  18.311  16.284  19.302
42952W        W43816  19.270  16.910  20.418
42953W        W43817  20.463  15.864  18.977
42954W        W43818  20.299  16.281  19.227
42955W        W43819  18.889  15.775  20.526
42956W        W43820  18.738  15.671  21.044
42957W        W43821  18.686  14.767  19.890
42958W        W43822  20.252  15.106  20.050
42959W        W43823  20.177  15.064  21.461
42960W        W43824  20.455  15.063  18.585
42961W        W43825  21.627  17.783  21.475
42962W        W43826  20.606  14.684  21.427
42963W        W43827  21.424  17.166  21.597
42964W        W43828  21.068  15.289  20.961
42965W        W43829  20.768  15.162  19.378
42966W        W43830  21.150  16.222  21.783
42967W        W43831  18.829  17.982  19.778
42968W        W43832  19.697  15.522  18.697
42969W        W43833  19.148  14.699  21.338
42970W        W43834  21.169  15.454  19.187
42971W        W43835  21.418  15.913  19.145
42972W        W43836  19.310  17.920  21.606
42973W        W43837  19.131  14.711  18.772
42974W        W43838  21.316  15.057  19.946
42975W        W43839  21.675  17.505  18.292
42976W        W43840  18.400  16.685  20.004
42977W        W43841  20.463  15.181  18.085
42978W        W43842  21.726  17.387  20.089
42979W        W43843  21.713  14.666  20.658
42980W        W43844  20.211  16.080  21.231
42981W        W43845  19.800  16.916  18.568
42982W        W43846  20.866  16.510  22.103
42983W        W43847  20.332  14.606  19.903
42984W        W43848  18.949  15.613  20.048
42985W        W43849  18.498  17.015  20.786
42986W        W43850  20.506  17.914  19.673
42987W        W43851  21.585  15.697  20.528
42988W        W43852  20.364  18.058  21.110
42989W        W43853  21.607  16.994  18.371
42990W        W43854  19.882  16.244  19.495
42991W        W43855  21.683  14.602  21.184
42992W        W43856  19.989  16.822  20.716
42993W        W43857  20.258  15.541  20.369
42994W        W43858  20.965  15.861  18.921
42995W        W43859  21.191  15.473  18.643
42996W        W43860  21.313  17.660  19.106
42997W        W43861  21.057  17.141  19.975
42998W        W43862  20.718  16.338  18.950
42999W        W43863  20.244  16.651  19.806
43000W        W43864  21.223  16.249  19.930
43001W        W43865  18.602  15.314  20.292
43002W        W43866  21.137  16.353  21.260
43003W        W43867  21.722  17.828  20.394
43004W        W43868  19.637  17.587  19.653
43005W        W43869  20.854  18.054  20.882
43006W        W43870  20.591  15.391  20.745
43007W        W43871  19.930  18.254  20.820
43008W        W43872  21.252  14.993  19.421
43009W        W43873  21.417  16.176  20.428
43010W        W43874  18.398  15.526  20.692
43011W        W43875  20.963  15.417  19.790
43012W        W43876  21.504  15.570  21.024
43013W        W43877  20.575  17.188  19.733
43014W        W43878  19.915  17.899  19.340
43015W        W43879  18.795  15.047  18.584
43016W        W43880  19.969  14.712  20.238
43017W        W43881  18.696  18.128  18.434
43018W        W43882  19.381  16.529  18.806
43019W        W43883  19.978  17.047  21.253
43020W        W43884  19.929  15.003  19.243
43021W        W43885  21.151  14.609  19.737
43022W        W43886  20.860  18.147  19.974
43023W        W43887  20.443  17.850  20.181
43024W        W43888  19.754  16.875  20.251
43025W        W43889  21.624  17.392  20.628
43026W        W43890  19.025  15.075  19.126
43027W        W43891  19.755  17.392  20.107
43028W        W43892  19.086  15.300  18.196
43029W        W43893  19.905  15.927  20.425
43030W        W43894  20.652  14.777  20.309
43031W        W43895  18.261  16.650  20.503
43032W        W43896  19.786  16.399  18.465
43033W        W43897  19.183  14.803  18.278
43034W        W43898  20.165  15.794  19.417
43035W        W43899  20.754  14.883  20.808
43036W        W43900  19.556  16.939  20.964
43037W        W43901  20.424  16.505  21.459
43038W        W43902  20.830  16.795  21.329
43039W        W43903  20.266  14.727  21.847
43040W        W43904  19.393  15.401  19.874
43041W        W43905  18.917  15.310  19.602
43042W        W43906  18.477  17.960  19.385
43043W        W43907  20.179  17.589  21.307
43044W        W43908  18.943  16.874  18.657
43045W        W43909  20.712  16.375  19.951
43046W        W43910  20.915  16.073  20.303
43047W        W43911  20.182  16.577  20.298
43048W        W43912  20.673  17.023  18.269
43049W        W43913  20.329  14.979  19.560
43050W        W43914  21.623  15.517  18.904
43051W        W43915  18.468  18.006  21.235
43052W        W43916  18.844  17.305  20.566
43053W        W43917  18.125  18.134  19.022
43054W        W43918  20.262  15.029  20.552
43055W        W43919  19.253  17.574  18.829
43056W        W43920  21.336  17.804  18.610
43057W        W43921  20.260  16.262  18.696
43058W        W43922  19.816  15.491  19.184
43059W        W43923  20.005  15.386  18.276
43060W        W43924  20.495  17.180  21.369
43061W        W43925  20.924  14.798  19.059
43062W        W43926  18.323  14.815  18.461
43063W        W43927  19.732  17.258  20.607
43064W        W43928  19.398  17.067  19.914
43065W        W43929  19.205  17.257  18.419
43066W        W43930  18.238  17.602  19.104
43067W        W43931  19.016  16.496  21.234
43068W        W43932  19.770  14.810  21.719
43069W        W43933  20.289  14.798  21.008
43070W        W43934  19.502  14.705  19.293
43071W        W43935  20.691  14.504  18.711
43072W        W43936  18.742  14.817  20.390
43073W        W43937  18.567  15.699  19.716
43074W        W43938  21.158  14.626  20.242
43075W        W43939  18.552  15.310  18.957
43076W        W43940  21.251  14.909  20.659
43077W        W43941  21.389  16.456  18.428
43078W        W43942  19.022  15.108  20.075
43079W        W43943  20.163  15.745  20.837
43080W        W43944  18.220  15.331  18.506
43081W        W43945  19.006  16.866  20.843
43082W        W43946  20.374  16.069  20.240
43083W        W43947  20.269  18.171  18.620
43084W        W43948  18.368  16.549  18.281
43085W        W43949  19.317  17.455  21.380
43086W        W43950  18.641  16.509  20.821
43087W        W43951  19.738  16.411  20.515
43088W        W43952  21.152  14.787  21.184
43089W        W43953  21.825  16.441  21.073
43090W        W43954  21.722  16.415  18.842
43091W        W43955  20.344  16.711  18.928
43092W        W43956  21.139  18.152  18.254
43093W        W43957  20.504  16.226  21.891
43094W        W43958  18.902  17.268  21.628
43095W        W43959  21.915  15.120  21.792
43096W        W43960  21.242  15.755  20.086
43097W        W43961  19.744  18.022  21.898
43098W        W43962  19.612  14.694  18.572
43099W        W43963  21.180  17.311  18.403
43100W        W43964  18.888  15.161  21.242
43101W        W43965  19.725  17.457  21.080
43102W        W43966  21.578  15.074  21.008
43103W        W43967  20.858  18.196  18.706
43104W        W43968  21.092  16.593  20.314
43105W        W43969  19.350  15.141  20.946
43106W        W43970  18.946  17.228  19.075
43107W        W43971  21.038  16.726  19.177
43108W        W43972  18.890  15.287  20.714
43109W        W43973  19.904  17.136  19.675
43110W        W43974  21.622  15.939  19.768
43111W        W43975  20.096  14.560  21.405
43112W        W43976  20.944  17.080  20.458
43113W        W43977  21.254  17.502  20.287
43114W        W43978  20.149  17.684  18.426
43115W        W43979  18.421  17.434  21.478
43116W        W43980  19.293  15.440  20.397
43117W        W43981  19.146  14.846  19.649
43118W        W43982  20.772  15.573  20.285
43119W        W43983  19.362  16.770  18.351
43120W        W43984  21.589  16.573  20.123
43121W        W43985  18.872  17.726  21.369
43122W        W43986  21.178  18.195  19.143
43123W        W43987  19.461  15.200  19.421
43124W        W43988  18.930  16.645  19.940
43125W        W43989  19.565  18.244  20.469
43126W        W43990  21.282  18.143  21.577
43127W        W43991  20.629  16.457  20.499
43128W        W43992  18.562  16.047  18.312
43129W        W43993  21.532  17.906  19.489
43130W        W43994  21.344  15.047  18.898
43131W        W43995  19.765  14.881  21.151
43132W        W43996  21.353  17.494  19.736
43133W        W43997  21.151  15.855  19.575
43134W        W43998  19.667  15.760  19.599
43135W        W43999  19.759  16.053  20.916
43136W        W44000  20.723  17.200  20.900
43137W        W44001  19.244  15.652  20.893
43138W        W44002  19.348  18.017  19.661
43139W        W44003  18.849  18.181  21.608
43140W        W44004  18.920  17.679  18.406
43141W        W44005  21.532  17.222  19.272
43142W        W44006  18.972  16.112  20.898
43143W        W44007  21.396  15.950  18.612
43144W        W44008  19.397  17.060  18.867
43145W        W44009  20.621  16.326  21.028
43146W        W44010  20.608  15.930  20.680
43147W        W44011  19.073  16.435  20.516
43148W        W44012  21.309  18.072  20.588
43149W        W44013  21.079  14.805  21.715
43150W        W44014  18.917  14.806  20.874
43151W        W44015  19.041  16.123  20.072
43152W        W44016  19.463  15.677  18.262
43153W        W44017  18.362  17.495  20.976
43154W        W44018  19.883  16.249  20.023
43155W        W44019  19.550  15.160  18.379
43156W        W44020  18.996  16.341  19.516
43157W        W44021  18.529  18.167  20.745
43158W        W44022  21.222  16.332  18.907
43159W        W44023  21.523  14.970  21.508
43160W        W44024  21.050  17.166  19.464
43161W        W44025  18.528  16.190  21.208
43162W        W44026  21.252  14.559  18.739
43163W        W44027  21.088  17.214  18.938
43164W        W44028  19.957  15.921  18.946
43165W        W44029  20.956  14.973  18.539
43166W        W44030  21.096  15.740  20.696
43167W        W44031  18.571  16.230  19.806
43168W        W44032  18.988  17.070  19.576
43169W        W44033  20.721  15.677  19.367
43170W        W44034  19.799  15.349  20.196
43171W        W44035  21.802  16.951  20.835
43172W        W44036  21.717  15.160  20.508
43173W        W44037  18.244  17.985  19.849
43174W        W44038  18.462  17.148  19.255
43175W        W44039  18.516  14.751  21.171
43176W        W44040  19.763  17.593  21.615
43177W        W44041  21.849  16.560  19.691
43178W        W44042  20.925  16.681  18.614
43179W        W44043  20.384  18.142  20.599
43180W        W44044  21.150  16.733  21.717
43181W        W44045  19.888  14.582  18.976
43182W        W44046  20.437  15.461  19.733
43183W        W44047  18.404  17.155  20.265
43184W        W44048  19.510  15.065  18.919
43185W        W44049  19.525  16.621  21.390
43186W        W44050  20.319  15.354  19.214
43187W        W44051  20.444  16.966  20.541
43188W        W44052  18.813  17.743  20.850
43189W        W44053  19.335  17.478  21.889
43190W        W44054  19.179  15.392  18.691
43191W        W44055  20.733  15.378  18.900
43192W        W44056  20.680  17.637  21.166
43193W        W44057  19.440  16.215  19.726
43194W        W44058  19.117  18.104  20.645
43195W        W44059  21.628  18.004  18.250
43196W        W44060  18.624  16.830  21.252
43197W        W44061  20.657  16.840  20.102
43198W        W44062  19.045  16.740  19.172
43199W        W44063  19.564  17.752  20.644
43200W        W44064  19.852  14.779  19.708
43201W        W44065  18.208  16.901  18.644
43202W        W44066  19.928  15.886  18.402
43203W        W44067  18.592  16.684  19.508
43204W        W44068  20.077  15.263  20.974
43205W        W44069  21.379  14.821  18.295
43206W        W44070  21.580  16.495  21.544
43207W        W44071  20.178  18.026  21.591
43208W        W44072  21.853  16.899  21.339
43209W        W44073  21.176  17.611  21.698
43210W        W44074  19.085  18.237  20.149
43211W        W44075  21.580  16.715  19.264
43212W        W44076  20.321  16.152  19.732
43213W        W44077  20.178  14.516  19.405
43214W        W44078  19.222  17.577  19.344
43215W        W44079  19.715  15.520  20.676
43216W        W44080  19.514  14.924  20.063
43217W        W44081  18.360  17.815  18.650
43218W        W44082  20.024  16.733  19.350
43219W        W44083  19.289  17.850  21.068
43220W        W44084  18.558  16.690  18.981
43221W        W44085  18.447  15.206  19.833
43222W        W44086  20.194  17.075  20.096
43223W        W44087  18.162  14.957  18.945
43224W        W44088  21.032  16.243  20.759
43225W        W44089  20.760  15.458  18.383
43226W        W44090  21.436  17.008  20.334
43227W        W44091  20.172  17.556  19.863
43228W        W44092  19.456  17.994  19.138
43229W        W44093  20.561  14.693  18.253
43230W        W44094  18.583  18.060  20.227
43231W        W44095  20.674  15.580  21.654
43232W        W44096  18.480  15.038  21.598
43233W        W44097  18.348  15.759  19.257
43234W        W44098  19.517  16.015  18.693
43235W        W44099  20.751  16.078  21.472
43236W        W44100  19.404  16.499  20.138
43237W        W44101  20.690  14.587  19.476
43238W        W44102  19.898  18.051  19.840
43239W        W44103  21.078  17.566  20.769
43240W        W44104  20.889  17.633  19.927
43241W        W44105  20.585  16.680  19.428
43242W        W44106  19.969  15.037  18.704
43243W        W44107  21.644  14.682  19.588
43244W        W44108  19.301  16.202  18.268
43245W        W44109  21.450  15.441  19.620
43246W        W44110  20.239  16.721  18.392
43247W        W44111  21.348  16.821  21.229
43248W        W44112  20.850  17.761  18.397
43249W        W44113  19.414  15.124  21.458
43250W        W44114  19.378  16.019  20.553
43251W        W44115  21.536  17.371  21.151
43252W        W44116  20.625  15.177  21.229
43253W        W44117  18.223  15.765  21.120
43254W        W44118  20.197  16.273  20.726
43255W        W44119  18.523  17.120  19.768
43256W        W44120  18.621  16.319  20.316
43257W        W44121  20.906  16.727  20.832
43258W        W44122  20.786  18.050  21.455
43259W        W44123  20.584  15.706  21.150
43260W        W44124  21.009  17.855  19.495
43261W        W44125  20.055  17.763  20.825
43262W        W44126  19.479  17.856  20.131
43263W        W44127  21.268  17.094  20.827
43264W        W44128  20.130  17.246  21.727
43265W        W44129  18.919  17.166  20.084
43266W        W44130  21.041  16.696  19.716
43267W        W44131  20.900  17.870  20.391
43268W        W44132  18.961  17.748  20.313
43269W        W44133  19.670  15.546  21.182
43270W        W44134  19.824  17.867  18.791
43271W        W44135  19.611  17.088  21.641
43272W        W44136  19.675  17.481  19.110
43273W        W44137  18.976  15.803  18.119
43274W        W44138  18.425  18.095  25.428
43275W        W44139  18.725  17.083  24.808
43276W        W44140  21.494  16.793  22.855
43277W        W44141  21.737  17.873  24.672
43278W        W44142  19.277  17.947  22.156
43279W        W44143  19.718  16.025  23.201
43280W        W44144  19.236  15.841  23.653
43281W        W44145  20.420  16.657  22.370
43282W        W44146  19.699  17.851  25.042
43283W        W44147  18.343  15.367  25.007
43284W        W44148  18.900  14.605  24.937
43285W        W44149  20.898  14.992  23.671
43286W        W44150  20.578  15.637  22.525
43287W        W44151  21.001  15.404  25.272
43288W        W44152  18.447  15.012  24.610
43289W        W44153  18.499  17.570  25.531
43290W        W44154  19.785  17.414  22.112
43291W        W44155  18.131  15.663  24.032
43292W        W44156  19.402  15.911  25.199
43293W        W44157  21.608  15.647  23.723
43294W        W44158  21.372  16.525  24.495
43295W        W44159  19.994  16.134  23.642
43296W        W44160  20.563  17.391  24.024
43297W        W44161  18.878  16.755  24.199
43298W        W44162  18.147  16.208  23.905
43299W        W44163  19.423  16.311  24.885
43300W        W44164  21.532  16.084  25.136
43301W        W44165  19.080  17.602  23.677
43302W        W44166  20.286  17.292  24.744
43303W        W44167  19.578  15.719  24.055
43304W        W44168  19.862  16.632  23.775
43305W        W44169  20.695  17.688  25.389
43306W        W44170  19.897  16.684  25.481
43307W        W44171  19.886  16.530  24.977
43308W        W44172  18.192  15.711  25.354
43309W        W44173  21.095  17.187  25.128
43310W        W44174  18.797  14.806  23.162
43311W        W44175  19.226  17.441  24.301
43312W        W44176  21.534  17.028  23.672
43313W        W44177  21.293  15.254  23.910
43314W        W44178  21.317  15.234  21.940
43315W        W44179  21.841  16.046  24.396
43316W        W44180  19.985  17.877  24.165
43317W        W44181  21.682  17.297  22.885
43318W        W44182  18.641  18.160  22.634
43319W        W44183  19.013  18.115  23.077
43320W        W44184  18.934  14.817  24.449
43321W        W44185  21.399  15.975  24.645
43322W        W44186  20.867  16.377  23.145
43323W        W44187  20.831  15.918  22.148
43324W        W44188  20.103  17.356  24.281
43325W        W44189  20.157  15.406  23.491
43326W        W44190  20.453  17.722  24.408
43327W        W44191  21.248  16.346  22.819
43328W        W44192  20.574  14.950  22.847
43329W        W44193  18.932  17.727  22.748
43330W        W44194  18.449  15.153  23.384
43331W        W44195  20.903  15.975  23.460
43332W        W44196  18.550  17.612  23.745
43333W        W44197  19.758  17.846  22.399
43334W        W44198  21.154  15.708  21.785
43335W        W44199  18.442  17.566  24.256
43336W        W44200  19.204  17.276  24.806
43337W        W44201  19.447  16.794  23.498
43338W        W44202  19.352  15.037  24.216
43339W        W44203  21.758  14.760  23.781
43340W        W44204  19.178  16.986  21.293
43341W        W44205  18.224  15.244  22.444
43342W        W44206  18.753  17.630  23.265
43343W        W44207  19.821  17.130  23.621
43344W        W44208  21.253  17.909  24.895
43345W        W44209  20.210  15.239  22.591
43346W        W44210  21.435  18.103  23.451
43347W        W44211  20.934  15.798  24.881
43348W        W44212  21.903  17.445  23.358
43349W        W44213  20.423  16.772  24.827
43350W        W44214  18.085  16.460  23.090
43351W        W44215  19.294  16.931  24.432
43352W        W44216  20.563  16.026  22.914
43353W        W44217  20.469  16.665  22.960
43354W        W44218  18.685  15.799  24.303
43355W        W44219  18.667  15.805  25.151
43356W        W44220  18.678  14.685  23.651
43357W        W44221  20.413  15.150  23.867
43358W        W44222  20.103  15.198  25.234
43359W        W44223  20.526  14.950  22.279
43360W        W44224  21.685  17.898  25.197
43361W        W44225  20.515  14.794  25.143
43362W        W44226  21.507  17.348  25.444
43363W        W44227  21.061  15.289  24.775
43364W        W44228  20.976  15.137  23.147
43365W        W44229  21.221  16.341  25.481
43366W        W44230  18.809  18.041  23.574
43367W        W44231  19.847  15.504  23.077
43368W        W44232  19.251  15.023  25.171
43369W        W44233  21.285  15.507  22.866
43370W        W44234  21.528  15.927  22.667
43371W        W44235  19.339  18.126  25.285
43372W        W44236  19.339  14.597  22.648
43373W        W44237  21.589  15.152  23.496
43374W        W44238  21.658  17.466  21.945
43375W        W44239  18.464  16.748  23.861
43376W        W44240  20.644  15.072  21.770
43377W        W44241  21.768  17.447  23.876
43378W        W44242  21.659  14.769  24.320
43379W        W44243  20.245  16.236  25.177
43380W        W44244  20.003  17.000  23.082
43381W        W44245  20.743  16.476  25.618
43382W        W44246  20.480  14.667  23.674
43383W        W44247  18.910  15.549  23.910
43384W        W44248  18.622  16.612  24.626
43385W        W44249  20.370  17.850  23.410
43386W        W44250  21.509  15.637  24.232
43387W        W44251  20.365  18.087  24.786
43388W        W44252  21.498  16.545  22.047
43389W        W44253  20.398  16.314  23.339
43390W        W44254  21.746  14.769  24.863
43391W        W44255  19.983  16.910  24.593
43392W        W44256  20.087  15.674  23.928
43393W        W44257  21.001  15.908  22.671
43394W        W44258  21.265  15.655  22.303
43395W        W44259  21.259  17.599  22.952
43396W        W44260  21.048  17.200  23.670
43397W        W44261  20.795  16.395  22.609
43398W        W44262  20.422  16.470  23.829
43399W        W44263  21.368  16.144  23.620
43400W        W44264  18.752  15.280  24.316
43401W        W44265  21.118  16.294  24.961
43402W        W44266  21.799  17.921  24.116
43403W        W44267  19.583  17.594  23.575
43404W        W44268  20.843  18.015  24.587
43405W        W44269  20.611  15.433  24.557
43406W        W44270  19.888  18.211  24.529
43407W        W44271  21.499  15.053  22.985
43408W        W44272  21.337  16.119  24.144
43409W        W44273  18.294  15.489  24.488
43410W        W44274  21.206  15.505  23.424
43411W        W44275  21.422  15.588  24.992
43412W        W44276  20.463  17.278  23.527
43413W        W44277  19.703  17.925  23.180
43414W        W44278  18.468  14.777  22.409
43415W        W44279  20.056  14.771  24.076
43416W        W44280  18.778  18.157  22.136
43417W        W44281  19.885  16.516  23.285
43418W        W44282  20.025  17.020  25.094
43419W        W44283  20.062  15.028  23.064
43420W        W44284  21.265  14.764  23.385
43421W        W44285  20.817  18.184  23.678
43422W        W44286  20.431  17.897  23.916
43423W        W44287  19.726  16.980  24.144
43424W        W44288  21.616  17.446  24.402
43425W        W44289  19.287  14.982  23.064
43426W        W44290  19.667  17.494  24.068
43427W        W44291  18.970  14.936  21.742
43428W        W44292  19.979  15.801  24.424
43429W        W44293  20.775  14.696  24.116
43430W        W44294  18.224  16.593  24.296
43431W        W44295  20.072  16.428  22.053
43432W        W44296  19.432  14.436  21.870
43433W        W44297  20.199  15.853  23.245
43434W        W44298  20.716  14.918  24.664
43435W        W44299  19.544  16.891  24.881
43436W        W44300  20.385  16.717  25.336
43437W        W44301  20.873  16.700  25.159
43438W        W44302  20.175  14.844  25.589
43439W        W44303  19.348  15.326  23.785
43440W        W44304  18.946  15.198  23.485
43441W        W44305  18.502  18.050  23.117
43442W        W44306  20.160  17.578  25.161
43443W        W44307  19.716  17.123  22.569
43444W        W44308  20.933  16.462  23.660
43445W        W44309  20.784  16.119  24.025
43446W        W44310  20.089  16.597  24.217
43447W        W44311  20.874  17.169  21.757
43448W        W44312  20.498  15.052  23.346
43449W        W44313  21.764  15.441  22.701
43450W        W44314  18.602  17.837  24.964
43451W        W44315  18.489  17.048  24.343
43452W        W44316  18.139  18.073  22.683
43453W        W44317  20.188  15.315  24.303
43454W        W44318  19.356  17.510  22.420
43455W        W44319  21.553  17.774  22.564
43456W        W44320  20.405  16.125  22.412
43457W        W44321  19.296  15.501  23.262
43458W        W44322  20.347  15.392  22.087
43459W        W44323  20.541  17.191  25.183
43460W        W44324  21.081  14.802  22.767
43461W        W44325  18.013  14.693  22.166
43462W        W44326  19.668  17.315  24.572
43463W        W44327  19.336  17.174  23.845
43464W        W44328  19.434  17.040  22.141
43465W        W44329  18.415  17.644  22.834
43466W        W44330  18.963  16.237  25.153
43467W        W44331  19.695  14.921  25.394
43468W        W44332  20.209  14.997  24.737
43469W        W44333  19.672  14.669  23.275
43470W        W44334  20.725  14.535  22.502
43471W        W44335  18.503  14.809  24.149
43472W        W44336  18.273  15.641  23.524
43473W        W44337  21.281  14.718  23.928
43474W        W44338  18.810  15.320  23.018
43475W        W44339  21.145  14.991  24.342
43476W        W44340  21.569  15.975  21.976
43477W        W44341  18.933  15.014  23.941
43478W        W44342  20.029  15.484  24.820
43479W        W44343  18.105  15.171  21.944
43480W        W44344  19.061  16.700  24.917
43481W        W44345  20.245  16.111  24.120
43482W        W44346  20.106  18.193  22.250
43483W        W44347  18.148  16.566  21.378
43484W        W44348  19.195  17.059  25.274
43485W        W44349  18.636  16.118  24.715
43486W        W44350  19.639  16.538  24.479
43487W        W44351  21.206  14.775  24.805
43488W        W44352  21.778  16.411  24.804
43489W        W44353  21.664  16.422  22.529
43490W        W44354  20.821  16.999  22.269
43491W        W44355  20.969  18.006  21.961
43492W        W44356  20.379  16.103  25.644
43493W        W44357  18.693  17.069  25.506
43494W        W44358  21.862  15.166  25.477
43495W        W44359  21.099  15.737  23.873
43496W        W44360  19.825  18.103  25.478
43497W        W44361  19.782  14.507  22.310
43498W        W44362  21.302  17.070  22.081
43499W        W44363  19.097  15.510  25.102
43500W        W44364  19.630  17.349  25.104
43501W        W44365  21.544  15.194  24.608
43502W        W44366  21.087  18.017  22.481
43503W        W44367  20.990  16.609  24.152
43504W        W44368  19.205  15.186  24.691
43505W        W44369  19.785  16.185  25.395
43506W        W44370  19.173  17.270  22.847
43507W        W44371  20.980  16.816  22.880
43508W        W44372  18.747  15.545  24.734
43509W        W44373  20.000  17.500  23.271
43510W        W44374  21.839  16.018  23.436
43511W        W44375  20.018  14.677  25.102
43512W        W44376  20.968  17.134  24.224
43513W        W44377  21.277  17.506  24.018
43514W        W44378  20.169  17.726  21.998
43515W        W44379  18.324  17.189  25.177
43516W        W44380  19.187  15.573  24.364
43517W        W44381  19.182  14.757  23.522
43518W        W44382  20.594  15.617  24.066
43519W        W44383  19.968  16.931  22.114
43520W        W44384  21.432  16.568  23.914
43521W        W44385  18.844  17.432  25.161
43522W        W44386  21.350  18.136  22.929
43523W        W44387  19.647  15.160  23.409
43524W        W44388  18.979  16.834  23.716
43525W        W44389  19.442  18.353  24.307
43526W        W44390  21.419  18.359  25.145
43527W        W44391  20.551  16.460  24.359
43528W        W44392  17.912  16.320  21.845
43529W        W44393  21.708  17.814  23.088
43530W        W44394  21.388  15.180  22.467
43531W        W44395  19.386  14.664  24.764
43532W        W44396  21.389  17.564  23.475
43533W        W44397  21.310  15.951  23.142
43534W        W44398  19.717  15.659  23.564
43535W        W44399  19.848  15.979  24.916
43536W        W44400  20.775  17.175  24.718
43537W        W44401  19.509  15.599  24.801
43538W        W44402  19.326  18.055  23.506
43539W        W44403  18.896  17.905  25.382
43540W        W44404  18.895  17.724  21.887
43541W        W44405  21.291  17.123  23.199
43542W        W44406  19.097  15.915  24.763
43543W        W44407  21.727  15.494  22.114
43544W        W44408  19.554  17.223  23.202
43545W        W44409  20.621  16.297  24.849
43546W        W44410  20.539  15.932  24.485
43547W        W44411  19.099  16.388  24.491
43548W        W44412  21.325  17.959  24.352
43549W        W44413  21.024  14.887  25.332
43550W        W44414  18.778  15.101  24.982
43551W        W44415  19.129  16.026  24.125
43552W        W44416  18.355  17.427  24.733
43553W        W44417  19.739  16.219  24.081
43554W        W44418  20.000  14.967  22.205
43555W        W44419  18.940  16.326  23.753
43556W        W44420  18.563  18.042  24.470
43557W        W44421  21.232  16.193  22.314
43558W        W44422  21.456  15.097  25.148
43559W        W44423  20.857  17.391  23.209
43560W        W44424  18.396  16.225  25.182
43561W        W44425  21.492  14.677  22.471
43562W        W44426  21.249  17.192  22.605
43563W        W44427  20.118  16.271  22.892
43564W        W44428  21.036  14.892  22.235
43565W        W44429  21.019  15.699  24.380
43566W        W44430  18.579  15.941  23.819
43567W        W44431  19.075  17.197  23.358
43568W        W44432  20.848  15.637  23.077
43569W        W44433  19.838  15.237  23.912
43570W        W44434  21.766  16.966  24.626
43571W        W44435  21.788  15.214  24.083
43572W        W44436  18.235  17.955  23.528
43573W        W44437  18.634  17.198  23.038
43574W        W44438  18.825  14.833  25.407
43575W        W44439  19.791  17.599  25.538
43576W        W44440  21.757  16.524  23.535
43577W        W44441  21.209  16.696  22.437
43578W        W44442  20.367  18.253  24.290
43579W        W44443  21.317  16.848  25.460
43580W        W44444  19.820  14.437  22.831
43581W        W44445  20.697  15.483  23.556
43582W        W44446  18.231  17.221  23.902
43583W        W44447  19.736  14.934  22.681
43584W        W44448  19.438  16.596  25.293
43585W        W44449  20.396  15.433  23.021
43586W        W44450  20.474  16.972  24.350
43587W        W44451  18.832  17.572  24.596
43588W        W44452  19.286  17.561  25.431
43589W        W44453  18.923  14.956  22.674
43590W        W44454  20.904  15.266  22.623
43591W        W44455  20.641  17.647  24.886
43592W        W44456  19.495  16.285  23.622
43593W        W44457  19.077  18.039  24.502
43594W        W44458  21.511  17.949  22.024
43595W        W44459  18.562  16.712  25.136
43596W        W44460  20.684  16.901  23.857
43597W        W44461  18.746  16.741  23.270
43598W        W44462  19.538  17.820  24.503
43599W        W44463  20.050  14.911  23.570
43600W        W44464  18.132  17.215  22.879
43601W        W44465  20.130  15.774  22.730
43602W        W44466  18.444  16.372  23.503
43603W        W44467  19.701  15.072  24.879
43604W        W44468  21.557  14.791  21.992
43605W        W44469  21.703  16.532  25.322
43606W        W44470  20.325  18.076  25.325
43607W        W44471  21.783  17.014  25.132
43608W        W44472  21.222  17.841  25.425
43609W        W44473  18.945  18.291  24.037
43610W        W44474  21.774  16.934  23.243
43611W        W44475  20.456  15.928  23.681
43612W        W44476  20.213  14.560  23.215
43613W        W44477  19.260  17.663  23.168
43614W        W44478  19.694  15.352  24.410
43615W        W44479  19.597  14.794  23.811
43616W        W44480  18.391  17.824  22.280
43617W        W44481  20.283  16.801  23.465
43618W        W44482  19.188  17.772  24.939
43619W        W44483  18.405  16.775  22.838
43620W        W44484  18.469  15.283  23.876
43621W        W44485  20.199  17.012  23.923
43622W        W44486  18.418  14.997  22.874
43623W        W44487  20.971  16.201  24.489
43624W        W44488  20.861  15.386  22.122
43625W        W44489  21.476  16.999  24.181
43626W        W44490  20.097  17.534  23.783
43627W        W44491  19.399  17.981  22.745
43628W        W44492  20.719  14.548  21.970
43629W        W44493  18.474  18.054  23.966
43630W        W44494  20.552  15.644  25.455
43631W        W44495  18.699  15.378  25.428
43632W        W44496  18.307  15.481  22.996
43633W        W44497  18.781  15.672  23.416
43634W        W44498  20.776  16.079  25.288
43635W        W44499  19.361  16.602  24.019
43636W        W44500  20.774  14.638  23.224
43637W        W44501  19.890  18.007  23.660
43638W        W44502  21.081  17.551  24.542
43639W        W44503  20.815  17.657  23.648
43640W        W44504  20.797  16.867  23.353
43641W        W44505  20.200  14.700  22.618
43642W        W44506  21.855  14.703  23.285
43643W        W44507  19.600  16.604  21.909
43644W        W44508  21.670  15.572  23.208
43645W        W44509  20.476  16.820  21.868
43646W        W44510  21.380  16.727  24.970
43647W        W44511  21.207  17.567  22.219
43648W        W44512  19.617  15.419  25.268
43649W        W44513  19.512  16.010  24.484
43650W        W44514  21.524  17.449  24.928
43651W        W44515  20.561  15.300  25.034
43652W        W44516  18.233  15.842  24.853
43653W        W44517  20.145  16.271  24.617
43654W        W44518  18.616  17.157  23.559
43655W        W44519  18.643  16.302  24.192
43656W        W44520  20.916  16.694  24.652
43657W        W44521  20.804  18.132  25.093
43658W        W44522  20.415  15.801  24.967
43659W        W44523  20.982  17.931  23.244
43660W        W44524  20.013  17.715  24.666
43661W        W44525  19.380  17.926  24.006
43662W        W44526  21.273  17.088  24.638
43663W        W44527  20.139  17.158  25.571
43664W        W44528  18.832  17.258  24.016
43665W        W44529  21.300  16.613  23.311
43666W        W44530  20.884  17.817  24.124
43667W        W44531  18.883  17.781  24.109
43668W        W44532  20.041  15.729  25.346
43669W        W44533  20.105  17.838  22.854
43670W        W44534  19.608  17.126  25.592
43671W        W44535  19.666  17.554  22.835
43672W        W44536  19.156  16.817  21.760
43673W        W44537  18.391  18.168  28.830
43674W        W44538  18.822  17.131  28.586
43675W        W44539  21.500  16.732  26.304
43676W        W44540  21.673  17.881  28.242
43677W        W44541  19.365  17.976  25.765
43678W        W44542  19.379  16.029  26.614
43679W        W44543  18.943  15.954  26.926
43680W        W44544  19.947  16.555  26.345
43681W        W44545  19.779  17.833  28.371
43682W        W44546  18.548  15.439  28.503
43683W        W44547  18.922  14.676  28.244
43684W        W44548  20.840  15.015  27.256
43685W        W44549  20.512  15.728  25.978
43686W        W44550  21.022  15.300  28.779
43687W        W44551  18.568  15.058  28.112
43688W        W44552  18.534  17.497  28.892
43689W        W44553  19.893  16.868  25.952
43690W        W44554  18.174  15.801  27.646
43691W        W44555  19.338  15.875  28.829
43692W        W44556  21.699  15.672  27.287
43693W        W44557  21.579  16.658  28.081
43694W        W44558  19.913  15.948  27.079
43695W        W44559  20.547  17.493  27.629
43696W        W44560  18.946  16.820  27.995
43697W        W44561  18.029  16.296  27.647
43698W        W44562  19.463  16.228  28.455
43699W        W44563  21.653  16.045  28.787
43700W        W44564  19.139  17.300  27.257
43701W        W44565  20.432  17.272  28.187
43702W        W44566  19.668  15.688  27.492
43703W        W44567  19.742  16.620  27.202
43704W        W44568  20.762  17.490   0.090
43705W        W44569  19.890  16.738  28.924
43706W        W44570  19.983  16.486  28.474
43707W        W44571  18.308  15.685  28.887
43708W        W44572  21.075  17.278  28.731
43709W        W44573  18.753  14.923  26.780
43710W        W44574  19.182  17.242  27.784
43711W        W44575  21.815  17.062  27.090
43712W        W44576  20.901  15.332  27.641
43713W        W44577  21.391  15.343  25.615
43714W        W44578  21.878  16.147  27.918
43715W        W44579  19.727  17.869  27.745
43716W        W44580  21.818  17.157  26.213
43717W        W44581  18.801  18.328  26.304
43718W        W44582  19.101  18.047  26.716
43719W        W44583  19.028  14.997  27.853
43720W        W44584  21.593  15.721  28.060
43721W        W44585  20.816  16.229  26.764
43722W        W44586  20.899  16.017  25.789
43723W        W44587  20.225  17.111  27.743
43724W        W44588  19.931  15.426  27.088
43725W        W44589  20.646  17.729  28.062
43726W        W44590  21.334  16.304  26.695
43727W        W44591  20.469  15.058  26.501
43728W        W44592  18.899  17.834  26.283
43729W        W44593  18.416  15.309  26.756
43730W        W44594  20.977  15.864  27.335
43731W        W44595  18.640  17.263  27.169
43732W        W44596  19.821  17.888  25.972
43733W        W44597  21.237  15.816  25.452
43734W        W44598  18.378  17.635  27.973
43735W        W44599  19.244  17.168  28.299
43736W        W44600  19.528  16.763  26.621
43737W        W44601  19.538  15.037  27.830
43738W        W44602  21.737  14.679  27.389
43739W        W44603  18.968  16.631  25.496
43740W        W44604  18.820  15.595  25.942
43741W        W44605  18.807  17.546  26.731
43742W        W44606  19.615  17.152  26.950
43743W        W44607  21.204  17.719  28.478
43744W        W44608  20.175  15.485  26.284
43745W        W44609  21.465  18.183  27.130
43746W        W44610  21.290  15.899  28.453
43747W        W44611  21.947  17.361  26.667
43748W        W44612  20.478  16.742  28.227
43749W        W44613  18.096  16.242  26.688
43750W        W44614  19.466  16.839  27.960
43751W        W44615  20.541  15.883  26.470
43752W        W44616  20.279  16.275  26.667
43753W        W44617  18.864  15.863  27.845
43754W        W44618  18.820  15.765  28.843
43755W        W44619  18.648  14.648  27.185
43756W        W44620  20.430  15.111  27.560
43757W        W44621  20.046  15.138  28.732
43758W        W44622  20.568  15.212  26.017
43759W        W44623  21.719  17.664  28.706
43760W        W44624  20.522  14.841  28.692
43761W        W44625  21.541  17.134  28.875
43762W        W44626  21.225  15.409  28.315
43763W        W44627  20.820  15.232  26.813
43764W        W44628  21.268  16.295   0.052
43765W        W44629  18.921  17.791  27.189
43766W        W44630  19.669  15.570  26.164
43767W        W44631  19.139  14.836  28.697
43768W        W44632  21.271  15.443  26.646
43769W        W44633  21.579  15.880  26.460
43770W        W44634  19.436  17.997  28.921
43771W        W44635  19.285  14.720  26.159
43772W        W44636  21.678  15.168  27.136
43773W        W44637  21.802  17.722  25.686
43774W        W44638  18.500  16.626  27.380
43775W        W44639  20.609  15.138  25.521
43776W        W44640  21.829  17.589  27.473
43777W        W44641  21.670  14.813  27.888
43778W        W44642  20.282  15.837  28.696
43779W        W44643  19.911  17.083  26.444
43780W        W44644  20.762  16.463   0.098
43781W        W44645  20.514  14.630  27.306
43782W        W44646  18.915  15.650  27.341
43783W        W44647  18.528  16.859  28.284
43784W        W44648  20.396  17.833  27.200
43785W        W44649  21.378  15.472  27.651
43786W        W44650  20.310  17.963  28.404
43787W        W44651  21.582  16.560  25.818
43788W        W44652  19.777  16.331  26.765
43789W        W44653  21.869  14.760  28.379
43790W        W44654  19.966  16.826  28.076
43791W        W44655  20.190  15.678  27.436
43792W        W44656  21.076  15.910  26.430
43793W        W44657  21.324  15.793  25.975
43794W        W44658  21.488  17.508  26.408
43795W        W44659  20.890  17.125  27.356
43796W        W44660  20.795  16.284  26.214
43797W        W44661  20.201  16.409  27.152
43798W        W44662  21.291  16.305  27.229
43799W        W44663  18.676  15.368  27.695
43800W        W44664  21.317  16.402  28.532
43801W        W44665  21.677  17.999  27.734
43802W        W44666  19.599  17.535  27.310
43803W        W44667  20.859  18.079  28.362
43804W        W44668  20.699  15.403  28.100
43805W        W44669  19.995  18.199  28.056
43806W        W44670  21.639  15.101  26.512
43807W        W44671  21.364  16.203  28.055
43808W        W44672  18.414  15.615  28.051
43809W        W44673  21.175  15.410  27.168
43810W        W44674  21.667  15.558  28.575
43811W        W44675  20.433  17.310  27.163
43812W        W44676  19.700  17.943  26.805
43813W        W44677  18.812  15.091  25.854
43814W        W44678  20.065  14.728  27.527
43815W        W44679  18.893  18.161  25.827
43816W        W44680  19.443  16.409  26.247
43817W        W44681  20.131  16.992  28.517
43818W        W44682  19.998  15.141  26.652
43819W        W44683  21.254  14.956  26.908
43820W        W44684  20.952  18.168  27.187
43821W        W44685  20.287  17.980  27.693
43822W        W44686  19.507  17.003  27.458
43823W        W44687  21.533  17.515  27.877
43824W        W44688  19.188  15.033  26.540
43825W        W44689  19.709  17.333  27.786
43826W        W44690  19.196  15.361  25.580
43827W        W44691  19.987  15.907  27.857
43828W        W44692  20.810  14.803  27.730
43829W        W44693  18.363  16.627  27.875
43830W        W44694  19.824  16.338  25.883
43831W        W44695  19.267  14.872  25.676
43832W        W44696  19.797  15.657  26.654
43833W        W44697  20.871  14.994  28.343
43834W        W44698  19.610  16.832  28.473
43835W        W44699  20.385  16.668  28.820
43836W        W44700  20.843  16.600  28.566
43837W        W44701  20.228  14.852   0.107
43838W        W44702  19.463  15.232  27.334
43839W        W44703  18.996  15.371  26.906
43840W        W44704  18.592  18.041  26.682
43841W        W44705  20.149  17.515  28.582
43842W        W44706  19.072  16.781  26.348
43843W        W44707  20.735  16.360  27.275
43844W        W44708  20.965  16.199  27.719
43845W        W44709  20.061  16.613  27.620
43846W        W44710  20.828  16.991  25.581
43847W        W44711  20.357  15.067  27.042
43848W        W44712  21.897  15.510  26.301
43849W        W44713  18.508  17.855  28.435
43850W        W44714  18.747  17.288  28.074
43851W        W44715  18.293  18.272  26.326
43852W        W44716  20.239  15.452  27.892
43853W        W44717  19.424  17.512  25.954
43854W        W44718  21.610  17.978  26.132
43855W        W44719  20.280  16.186  26.150
43856W        W44720  19.280  15.547  26.507
43857W        W44721  20.175  15.372  25.725
43858W        W44722  20.637  17.070  28.604
43859W        W44723  20.992  14.961  26.406
43860W        W44724  18.398  14.792  25.863
43861W        W44725  19.768  17.298  28.285
43862W        W44726  19.277  16.751  27.076
43863W        W44727  19.122  17.124  25.786
43864W        W44728  18.408  17.638  26.386
43865W        W44729  18.989  16.256  28.742
43866W        W44730  19.762  14.729  28.905
43867W        W44731  20.318  15.061  28.239
43868W        W44732  19.594  14.737  26.693
43869W        W44733  20.583  14.719  26.130
43870W        W44734  18.588  14.812  27.669
43871W        W44735  18.381  15.624  27.198
43872W        W44736  21.314  14.990  27.450
43873W        W44737  18.805  15.334  26.398
43874W        W44738  21.220  15.057  27.952
43875W        W44739  21.657  16.084  25.630
43876W        W44740  18.960  15.114  27.367
43877W        W44741  20.075  15.507  28.367
43878W        W44742  18.340  15.317  25.796
43879W        W44743  19.108  16.693  28.478
43880W        W44744  20.331  16.155  27.564
43881W        W44745  20.217  18.213  25.849
43882W        W44746  18.442  16.531  25.616
43883W        W44747  19.292  17.044  28.842
43884W        W44748  18.749  16.382  28.274
43885W        W44749  19.719  16.371  27.999
43886W        W44750  21.240  14.628  28.253
43887W        W44751  21.847  16.368  28.407
43888W        W44752  21.903  16.056  26.080
43889W        W44753  20.458  16.651  26.355
43890W        W44754  21.069  18.343  25.507
43891W        W44755  20.402  16.085   0.140
43892W        W44756  18.816  17.024   0.068
43893W        W44757  21.910  15.116  28.802
43894W        W44758  21.439  15.980  27.606
43895W        W44759  19.948  18.057  28.824
43896W        W44760  19.722  14.736  25.890
43897W        W44761  21.875  16.954  25.638
43898W        W44762  19.035  15.347  28.639
43899W        W44763  19.428  17.538  28.619
43900W        W44764  21.719  15.230  28.190
43901W        W44765  21.145  18.075  25.936
43902W        W44766  21.061  16.684  27.550
43903W        W44767  19.285  15.088  28.276
43904W        W44768  19.823  16.150  28.834
43905W        W44769  19.048  17.337  26.277
43906W        W44770  21.008  16.659  26.514
43907W        W44771  18.928  15.444  28.146
43908W        W44772  19.985  17.532  26.966
43909W        W44773  21.774  16.075  26.912
43910W        W44774  20.072  14.670  28.485
43911W        W44775  21.040  17.462  27.717
43912W        W44776  21.332  17.771  27.418
43913W        W44777  19.903  17.372  26.007
43914W        W44778  18.316  17.009  28.972
43915W        W44779  19.236  15.485  27.732
43916W        W44780  19.226  14.870  27.030
43917W        W44781  20.626  15.764  27.709
43918W        W44782  19.427  16.689  25.797
43919W        W44783  21.571  16.740  27.446
43920W        W44784  19.032  17.494  28.951
43921W        W44785  21.375  18.241  26.567
43922W        W44786  19.533  15.242  26.829
43923W        W44787  18.952  16.376  27.245
43924W        W44788  19.338  18.157  27.956
43925W        W44789  21.451  18.106  28.700
43926W        W44790  20.593  16.548  27.764
43927W        W44791  18.528  15.946  25.664
43928W        W44792  21.729  17.887  26.640
43929W        W44793  21.285  15.312  26.144
43930W        W44794  19.549  14.666  28.427
43931W        W44795  21.617  17.536  27.013
43932W        W44796  21.331  15.853  26.949
43933W        W44797  19.403  15.699  27.042
43934W        W44798  19.902  15.984  28.349
43935W        W44799  20.975  17.318  28.219
43936W        W44800  19.449  15.578  28.399
43937W        W44801  19.386  18.021  27.204
43938W        W44802  18.878  17.969  28.790
43939W        W44803  18.933  17.624  25.815
43940W        W44804  21.510  17.063  26.687
43941W        W44805  19.034  15.917  28.350
43942W        W44806  21.770  15.620  25.823
43943W        W44807  19.471  17.037  26.164
43944W        W44808  20.450  16.271  28.506
43945W        W44809  20.417  15.858  28.180
43946W        W44810  19.208  16.371  28.045
43947W        W44811  21.248  18.262  27.621
43948W        W44812  21.033  14.741  28.760
43949W        W44813  18.655  14.945  28.606
43950W        W44814  19.244  16.007  27.528
43951W        W44815  19.549  15.743  25.667
43952W        W44816  18.368  17.345  28.431
43953W        W44817  19.764  16.199  27.503
43954W        W44818  19.673  15.240  25.782
43955W        W44819  18.867  15.857  26.414
43956W        W44820  18.459  18.155  28.025
43957W        W44821  21.357  16.259  26.170
43958W        W44822  21.439  15.030  28.594
43959W        W44823  21.161  17.310  26.964
43960W        W44824  18.497  16.175  28.914
43961W        W44825  21.416  14.808  26.147
43962W        W44826  21.421  17.068  25.905
43963W        W44827  19.812  16.047  26.319
43964W        W44828  21.008  14.961  25.856
43965W        W44829  21.075  15.757  27.969
43966W        W44830  18.568  16.060  27.431
43967W        W44831  19.144  17.129  26.749
43968W        W44832  20.853  15.724  26.847
43969W        W44833  19.926  15.224  27.554
43970W        W44834  21.817  17.100  27.990
43971W        W44835  21.859  15.349  27.704
43972W        W44836  18.433  17.734  27.062
43973W        W44837  18.682  17.059  26.536
43974W        W44838  18.803  14.800   0.099
43975W        W44839  19.991  17.598   0.120
43976W        W44840  21.690  16.576  26.964
43977W        W44841  21.092  16.652  25.948
43978W        W44842  20.488  18.384  28.159
43979W        W44843  21.168  16.775  28.920
43980W        W44844  19.912  14.568  26.332
43981W        W44845  20.621  15.484  27.237
43982W        W44846  18.512  17.067  27.644
43983W        W44847  19.647  15.069  26.296
43984W        W44848  19.427  16.525  28.866
43985W        W44849  20.355  15.516  26.782
43986W        W44850  20.747  17.033  27.844
43987W        W44851  18.947  17.591  28.434
43988W        W44852  19.498  17.463   0.131
43989W        W44853  19.232  15.269  26.078
43990W        W44854  20.827  15.470  26.358
43991W        W44855  20.672  17.585  28.556
43992W        W44856  19.415  16.223  27.099
43993W        W44857  18.886  17.845  27.983
43994W        W44858  21.566  18.185  25.639
43995W        W44859  18.640  16.648  28.741
43996W        W44860  20.461  16.826  27.359
43997W        W44861  19.062  16.426  26.729
43998W        W44862  19.383  17.626  28.092
43999W        W44863  19.847  14.920  27.103
44000W        W44864  18.182  16.619  26.317
44001W        W44865  20.007  15.837  25.875
44002W        W44866  18.519  16.304  26.979
44003W        W44867  19.794  15.091  28.291
44004W        W44868  21.494  14.840  25.637
44005W        W44869  21.681  16.581  28.849
44006W        W44870  20.406  17.847  28.924
44007W        W44871  21.805  16.928  28.483
44008W        W44872  21.316  17.630   0.009
44009W        W44873  18.994  18.172  27.554
44010W        W44874  21.961  16.823  26.602
44011W        W44875  20.453  15.960  27.070
44012W        W44876  20.171  14.653  26.784
44013W        W44877  19.307  17.611  26.891
44014W        W44878  19.724  15.485  27.971
44015W        W44879  19.543  14.706  27.447
44016W        W44880  18.457  17.923  25.939
44017W        W44881  20.057  16.775  26.823
44018W        W44882  19.260  17.988  28.439
44019W        W44883  18.587  16.312  26.474
44020W        W44884  18.471  15.126  27.248
44021W        W44885  19.992  17.067  27.287
44022W        W44886  18.368  15.087  26.282
44023W        W44887  20.868  16.163  28.230
44024W        W44888  20.933  15.491  25.788
44025W        W44889  21.425  17.243  27.418
44026W        W44890  20.070  17.548  27.489
44027W        W44891  19.436  17.893  26.329
44028W        W44892  20.663  14.630  25.622
44029W        W44893  18.528  17.945  27.547
44030W        W44894  20.708  15.684  28.976
44031W        W44895  18.636  15.295   0.009
44032W        W44896  18.446  15.849  26.726
44033W        W44897  19.281  15.902  26.090
44034W        W44898  20.891  16.120  28.753
44035W        W44899  19.350  16.515  27.561
44036W        W44900  20.751  14.718  26.826
44037W        W44901  19.909  17.999  27.276
44038W        W44902  21.179  17.873  27.977
44039W        W44903  20.871  17.635  27.238
44040W        W44904  20.580  16.673  26.875
44041W        W44905  20.118  14.991  26.099
44042W        W44906  21.759  14.738  26.860
44043W        W44907  19.330  16.216  25.641
44044W        W44908  21.778  15.550  26.798
44045W        W44909  20.293  16.588  25.835
44046W        W44910  21.261  16.901  28.426
44047W        W44911  21.351  17.591  25.890
44048W        W44912  19.522  15.172  28.752
44049W        W44913  19.453  15.918  27.996
44050W        W44914  21.503  17.334  28.357
44051W        W44915  20.507  15.351  28.621
44052W        W44916  18.500  15.953  28.450
44053W        W44917  20.225  16.327  28.044
44054W        W44918  18.785  16.802  26.981
44055W        W44919  18.816  16.399  27.732
44056W        W44920  21.020  16.624  28.067
44057W        W44921  20.912  17.926  28.850
44058W        W44922  20.825  15.709  28.475
44059W        W44923  21.219  17.824  26.862
44060W        W44924  20.103  17.623  28.019
44061W        W44925  19.239  17.727  27.610
44062W        W44926  21.290  17.042  27.892
44063W        W44927  20.275  17.189  28.971
44064W        W44928  18.963  16.863  27.478
44065W        W44929  21.207  16.788  27.042
44066W        W44930  20.803  17.963  27.629
44067W        W44931  18.771  17.504  27.602
44068W        W44932  19.798  15.620  28.786
44069W        W44933  19.947  17.692  26.434
44070W        W44934  19.781  17.221  28.794
44071W        W44935  19.523  17.412  26.489
44072W        W44936  19.015  15.832  25.524
44073W        W44937  18.161  21.994   3.376
44074W        W44938  18.684  20.886   2.802
44075W        W44939  21.378  20.516   0.740
44076W        W44940  21.628  21.492   2.607
44077W        W44941  19.646  21.609   0.266
44078W        W44942  19.491  19.557   1.129
44079W        W44943  18.976  19.427   1.108
44080W        W44944  20.072  20.234   0.690
44081W        W44945  19.742  21.568   2.900
44082W        W44946  18.385  18.998   2.837
44083W        W44947  18.995  18.103   2.793
44084W        W44948  20.751  18.667   1.604
44085W        W44949  20.408  19.490   0.322
44086W        W44950  20.965  19.068   3.265
44087W        W44951  18.468  18.580   2.514
44088W        W44952  18.483  21.609   3.464
44089W        W44953  19.850  20.715   0.229
44090W        W44954  18.293  19.439   1.964
44091W        W44955  19.529  19.466   3.014
44092W        W44956  21.626  19.161   1.791
44093W        W44957  21.333  20.428   2.576
44094W        W44958  19.914  19.723   1.471
44095W        W44959  20.472  21.154   1.850
44096W        W44960  18.840  20.282   2.142
44097W        W44961  18.142  19.930   1.911
44098W        W44962  19.548  19.940   2.782
44099W        W44963  21.608  19.707   3.301
44100W        W44964  19.151  21.190   1.625
44101W        W44965  20.193  20.994   2.630
44102W        W44966  19.655  19.363   1.726
44103W        W44967  19.694  20.212   1.581
44104W        W44968  20.611  21.329   3.332
44105W        W44969  19.972  20.364   3.404
44106W        W44970  19.992  20.187   2.741
44107W        W44971  18.009  19.184   3.312
44108W        W44972  21.038  21.078   3.135
44109W        W44973  18.680  18.496   1.022
44110W        W44974  19.241  20.901   2.034
44111W        W44975  21.689  20.523   1.595
44112W        W44976  20.881  18.953   2.030
44113W        W44977  21.380  18.943   0.048
44114W        W44978  21.810  19.705   2.417
44115W        W44979  19.693  21.734   2.072
44116W        W44980  21.489  21.031   0.684
44117W        W44981  18.889  21.902   0.529
44118W        W44982  19.068  21.774   1.014
44119W        W44983  19.036  18.603   2.183
44120W        W44984  21.363  19.456   2.625
44121W        W44985  20.954  19.953   1.372
44122W        W44986  20.880  19.699   0.326
44123W        W44987  20.058  20.988   2.084
44124W        W44988  19.849  19.196   1.255
44125W        W44989  20.424  21.345   2.347
44126W        W44990  21.363  20.092   1.029
44127W        W44991  20.390  18.728   0.971
44128W        W44992  18.868  21.414   0.684
44129W        W44993  18.341  18.792   1.243
44130W        W44994  20.966  19.468   1.876
44131W        W44995  18.621  21.150   1.632
44132W        W44996  19.893  21.264   0.641
44133W        W44997  21.147  19.404  28.976
44134W        W44998  18.399  21.218   2.177
44135W        W44999  19.163  20.953   2.582
44136W        W45000  19.353  20.120   1.186
44137W        W45001  19.561  18.654   2.287
44138W        W45002  21.719  18.381   1.784
44139W        W45003  18.927  20.265   0.039
44140W        W45004  18.724  19.303   0.380
44141W        W45005  18.649  21.231   1.112
44142W        W45006  19.659  20.553   1.160
44143W        W45007  21.151  21.457   2.809
44144W        W45008  20.078  19.104   0.740
44145W        W45009  21.493  21.804   1.480
44146W        W45010  21.133  19.563   3.088
44147W        W45011  21.759  21.076   1.395
44148W        W45012  20.427  20.528   2.689
44149W        W45013  18.340  19.933   1.066
44150W        W45014  19.258  20.501   2.337
44151W        W45015  20.504  19.600   0.834
44152W        W45016  20.478  20.087   1.040
44153W        W45017  18.696  19.445   2.330
44154W        W45018  18.784  19.356   2.839
44155W        W45019  18.600  18.360   1.514
44156W        W45020  20.379  18.825   1.962
44157W        W45021  20.159  18.767   3.160
44158W        W45022  20.647  18.644   0.541
44159W        W45023  21.553  21.249   3.093
44160W        W45024  20.523  18.341   3.053
44161W        W45025  21.447  20.670   3.558
44162W        W45026  21.058  18.949   2.697
44163W        W45027  20.815  18.922   1.160
44164W        W45028  21.176  19.896   3.501
44165W        W45029  18.868  21.590   1.468
44166W        W45030  19.673  19.408   0.657
44167W        W45031  19.120  18.467   3.157
44168W        W45032  21.295  19.062   1.059
44169W        W45033  21.404  19.583   1.010
44170W        W45034  19.338  21.677   3.218
44171W        W45035  19.309  18.245   0.608
44172W        W45036  21.574  18.772   1.450
44173W        W45037  21.821  21.099   0.273
44174W        W45038  18.500  20.291   1.747
44175W        W45039  20.659  18.699   0.027
44176W        W45040  21.681  21.396   1.798
44177W        W45041  21.651  18.315   2.334
44178W        W45042  20.396  19.659   3.037
44179W        W45043  19.926  20.723   0.723
44180W        W45044  20.716  20.050   3.716
44181W        W45045  20.326  18.368   1.690
44182W        W45046  18.750  19.342   1.770
44183W        W45047  18.625  20.414   2.602
44184W        W45048  20.361  21.606   1.513
44185W        W45049  21.332  19.088   2.250
44186W        W45050  20.270  21.669   2.760
44187W        W45051  21.454  20.290   0.288
44188W        W45052  19.884  20.090   1.126
44189W        W45053  21.718  18.319   2.862
44190W        W45054  20.008  20.565   2.386
44191W        W45055  20.166  19.307   1.651
44192W        W45056  21.072  19.372   0.684
44193W        W45057  21.496  19.355   0.359
44194W        W45058  21.113  21.207   0.988
44195W        W45059  20.894  20.594   1.867
44196W        W45060  20.926  19.871   0.854
44197W        W45061  20.227  20.161   1.506
44198W        W45062  21.162  19.961   1.882
44199W        W45063  18.545  18.981   2.169
44200W        W45064  21.274  20.031   2.933
44201W        W45065  21.730  21.789   2.129
44202W        W45066  19.578  21.001   1.445
44203W        W45067  20.760  21.711   2.516
44204W        W45068  20.546  18.987   2.455
44205W        W45069  19.866  21.912   2.514
44206W        W45070  21.615  18.651   0.950
44207W        W45071  21.343  19.942   2.392
44208W        W45072  18.174  19.238   2.412
44209W        W45073  21.150  19.055   1.568
44210W        W45074  21.470  19.178   3.113
44211W        W45075  20.428  20.922   1.402
44212W        W45076  19.713  21.428   1.157
44213W        W45077  18.815  18.701   0.500
44214W        W45078  19.987  18.451   2.071
44215W        W45079  19.128  21.520   0.253
44216W        W45080  19.163  20.111   0.496
44217W        W45081  20.024  20.648   2.978
44218W        W45082  19.891  18.719   1.054
44219W        W45083  21.180  18.430   1.393
44220W        W45084  20.821  21.917   1.583
44221W        W45085  20.144  21.538   1.973
44222W        W45086  19.654  20.593   1.982
44223W        W45087  21.425  21.217   2.201
44224W        W45088  19.151  18.622   0.916
44225W        W45089  19.617  21.245   1.919
44226W        W45090  20.005  19.394   2.145
44227W        W45091  20.729  18.439   2.067
44228W        W45092  18.295  20.298   2.235
44229W        W45093  19.999  19.779   0.466
44230W        W45094  19.278  18.637   0.224
44231W        W45095  20.017  19.612   0.978
44232W        W45096  20.744  18.520   2.572
44233W        W45097  19.583  20.544   2.728
44234W        W45098  20.344  20.188   3.107
44235W        W45099  20.798  19.965   3.160
44236W        W45100  20.109  18.475   3.571
44237W        W45101  19.361  18.833   1.806
44238W        W45102  18.919  18.921   1.263
44239W        W45103  18.554  21.754   0.943
44240W        W45104  20.145  21.271   3.080
44241W        W45105  18.909  20.568   0.460
44242W        W45106  20.667  20.120   1.794
44243W        W45107  20.693  19.806   2.198
44244W        W45108  20.029  20.250   1.965
44245W        W45109  20.736  20.646   0.206
44246W        W45110  20.240  18.823   1.456
44247W        W45111  21.763  19.125   0.794
44248W        W45112  18.374  21.722   2.959
44249W        W45113  18.747  20.812   2.276
44250W        W45114  18.369  21.501   0.522
44251W        W45115  20.030  18.910   2.353
44252W        W45116  19.486  21.011   0.438
44253W        W45117  21.431  21.552   0.610
44254W        W45118  20.499  20.000   0.514
44255W        W45119  19.294  19.113   0.855
44256W        W45120  20.314  18.979   0.293
44257W        W45121  20.491  20.866   3.083
44258W        W45122  21.094  18.583   0.877
44259W        W45123  18.337  18.424   0.286
44260W        W45124  19.632  20.933   2.366
44261W        W45125  19.320  20.573   1.579
44262W        W45126  19.354  20.564   0.148
44263W        W45127  18.582  21.027   0.469
44264W        W45128  19.106  19.744   2.915
44265W        W45129  19.614  18.493   3.305
44266W        W45130  20.237  18.553   2.665
44267W        W45131  19.534  18.339   1.131
44268W        W45132  20.433  18.231   0.749
44269W        W45133  18.528  18.496   2.014
44270W        W45134  18.524  19.272   1.302
44271W        W45135  21.230  18.269   1.908
44272W        W45136  18.648  19.017   0.849
44273W        W45137  21.183  18.587   2.304
44274W        W45138  21.684  19.817   0.190
44275W        W45139  18.835  18.806   1.746
44276W        W45140  20.206  19.150   2.825
44277W        W45141  18.329  18.930   0.397
44278W        W45142  19.110  20.246   2.752
44279W        W45143  20.271  19.775   1.865
44280W        W45144  20.149  21.679   0.345
44281W        W45145  18.418  20.239   0.179
44282W        W45146  19.152  20.670   3.028
44283W        W45147  18.721  19.894   2.598
44284W        W45148  19.663  20.174   2.339
44285W        W45149  21.192  18.364   2.790
44286W        W45150  21.775  20.008   2.881
44287W        W45151  21.753  20.136   0.672
44288W        W45152  20.525  20.494   0.693
44289W        W45153  21.219  21.756   0.196
44290W        W45154  20.302  19.822   3.514
44291W        W45155  18.808  20.945   3.301
44292W        W45156  21.846  18.792   3.430
44293W        W45157  21.450  19.553   2.065
44294W        W45158  19.812  21.740   3.415
44295W        W45159  19.727  18.363   0.305
44296W        W45160  21.270  20.801   0.268
44297W        W45161  19.266  19.025   2.903
44298W        W45162  19.709  21.052   2.853
44299W        W45163  21.531  18.769   2.629
44300W        W45164  21.011  21.884   0.664
44301W        W45165  20.954  20.264   2.267
44302W        W45166  19.211  18.572   2.668
44303W        W45167  19.897  19.906   3.180
44304W        W45168  19.058  20.948   0.756
44305W        W45169  20.941  20.381   1.007
44306W        W45170  18.855  18.929   2.577
44307W        W45171  20.000  20.999   1.134
44308W        W45172  21.833  19.646   1.606
44309W        W45173  20.002  18.295   3.053
44310W        W45174  20.967  21.120   1.911
44311W        W45175  21.178  21.583   1.839
44312W        W45176  20.304  20.907   0.409
44313W        W45177  18.327  21.161   3.220
44314W        W45178  19.042  19.107   2.120
44315W        W45179  19.130  18.469   1.448
44316W        W45180  20.502  19.326   2.048
44317W        W45181  19.689  20.201   0.339
44318W        W45182  21.417  20.399   2.034
44319W        W45183  18.739  21.368   3.012
44320W        W45184  21.440  21.965   0.954
44321W        W45185  19.449  18.855   1.292
44322W        W45186  18.986  20.172   1.594
44323W        W45187  19.329  21.972   2.332
44324W        W45188  21.532  21.765   3.042
44325W        W45189  20.448  20.293   2.236
44326W        W45190  18.565  19.817   0.435
44327W        W45191  21.598  21.473   1.080
44328W        W45192  21.354  18.907   0.568
44329W        W45193  19.494  18.198   2.884
44330W        W45194  21.303  21.275   1.460
44331W        W45195  21.322  19.558   1.523
44332W        W45196  19.198  19.259   1.544
44333W        W45197  19.968  19.620   2.760
44334W        W45198  20.874  20.821   2.711
44335W        W45199  19.711  19.165   2.658
44336W        W45200  19.372  21.679   1.429
44337W        W45201  18.841  21.840   3.178
44338W        W45202  19.029  21.012   0.205
44339W        W45203  21.392  20.794   1.178
44340W        W45204  19.198  19.386   2.533
44341W        W45205  21.803  19.626   0.675
44342W        W45206  19.450  20.535   0.662
44343W        W45207  20.473  20.001   2.654
44344W        W45208  20.410  19.507   2.514
44345W        W45209  19.189  19.913   2.380
44346W        W45210  21.245  21.718   2.325
44347W        W45211  20.982  18.485   3.269
44348W        W45212  18.621  18.433   2.981
44349W        W45213  19.242  19.562   2.011
44350W        W45214  19.386  19.184   0.305
44351W        W45215  18.298  21.242   2.711
44352W        W45216  19.738  19.826   1.942
44353W        W45217  19.799  18.864   0.224
44354W        W45218  18.911  19.919   0.949
44355W        W45219  18.388  21.679   2.446
44356W        W45220  21.329  19.844   0.549
44357W        W45221  21.451  18.666   3.125
44358W        W45222  20.951  20.885   1.434
44359W        W45223  18.629  19.791   3.113
44360W        W45224  21.491  18.360   0.548
44361W        W45225  20.954  20.796   0.682
44362W        W45226  19.573  19.914   0.755
44363W        W45227  21.085  18.567   0.308
44364W        W45228  20.909  19.354   2.376
44365W        W45229  18.714  19.764   1.422
44366W        W45230  18.966  20.836   1.282
44367W        W45231  20.903  19.441   1.187
44368W        W45232  19.879  18.919   1.855
44369W        W45233  21.677  20.750   2.339
44370W        W45234  21.721  18.779   2.132
44371W        W45235  18.353  21.552   1.403
44372W        W45236  18.600  20.744   0.905
44373W        W45237  18.725  18.514   3.497
44374W        W45238  19.676  21.262   3.329
44375W        W45239  21.517  20.039   1.511
44376W        W45240  20.981  20.263   0.502
44377W        W45241  20.344  21.894   2.286
44378W        W45242  21.026  20.374   3.425
44379W        W45243  19.871  18.196   0.777
44380W        W45244  20.650  19.175   1.582
44381W        W45245  18.343  20.761   1.920
44382W        W45246  19.580  18.712   0.658
44383W        W45247  19.512  20.271   3.160
44384W        W45248  20.364  19.225   1.157
44385W        W45249  20.591  20.839   2.268
44386W        W45250  18.777  21.306   2.521
44387W        W45251  19.233  21.192   3.046
44388W        W45252  20.612  19.124   0.707
44389W        W45253  20.632  21.283   2.815
44390W        W45254  19.366  19.786   1.572
44391W        W45255  18.874  21.743   2.267
44392W        W45256  21.754  21.631   0.209
44393W        W45257  18.599  20.458   3.109
44394W        W45258  20.383  20.618   1.839
44395W        W45259  19.037  20.444   0.945
44396W        W45260  19.342  21.391   2.345
44397W        W45261  19.812  18.526   1.532
44398W        W45262  18.282  20.602   0.498
44399W        W45263  19.915  19.360   0.165
44400W        W45264  18.648  20.287   1.236
44401W        W45265  19.734  18.654   2.782
44402W        W45266  21.536  18.461   0.050
44403W        W45267  21.549  20.248   3.292
44404W        W45268  20.309  21.752   3.302
44405W        W45269  21.759  20.557   2.833
44406W        W45270  21.155  21.556   3.334
44407W        W45271  18.890  22.017   1.820
44408W        W45272  21.766  20.427   1.097
44409W        W45273  20.462  19.686   1.383
44410W        W45274  20.170  18.315   1.200
44411W        W45275  19.171  21.293   1.132
44412W        W45276  19.544  19.157   2.181
44413W        W45277  19.481  18.340   1.880
44414W        W45278  18.648  21.587   0.076
44415W        W45279  20.199  20.518   1.124
44416W        W45280  19.112  21.629   2.748
44417W        W45281  18.598  20.253   0.716
44418W        W45282  18.343  18.992   1.705
44419W        W45283  19.961  20.673   1.568
44420W        W45284  18.235  18.581   0.771
44421W        W45285  20.922  19.776   2.665
44422W        W45286  20.922  19.060   0.295
44423W        W45287  21.378  20.869   1.780
44424W        W45288  20.021  21.220   1.591
44425W        W45289  19.401  21.477   0.708
44426W        W45290  20.670  18.215   0.230
44427W        W45291  18.551  21.615   1.883
44428W        W45292  20.448  19.198   3.290
44429W        W45293  18.819  18.892   3.116
44430W        W45294  18.534  19.516   0.847
44431W        W45295  19.147  19.571   0.626
44432W        W45296  20.767  19.550   3.459
44433W        W45297  19.336  20.163   1.950
44434W        W45298  20.701  18.362   1.180
44435W        W45299  19.859  21.745   1.581
44436W        W45300  20.940  21.244   2.397
44437W        W45301  20.807  21.380   1.502
44438W        W45302  20.646  20.451   1.410
44439W        W45303  20.105  18.599   0.565
44440W        W45304  21.851  18.351   1.295
44441W        W45305  19.504  19.714   0.273
44442W        W45306  21.696  19.266   1.295
44443W        W45307  20.267  20.402   0.247
44444W        W45308  21.277  20.622   3.045
44445W        W45309  21.041  21.261   0.457
44446W        W45310  19.705  18.990   3.174
44447W        W45311  19.621  19.627   2.390
44448W        W45312  21.368  20.995   2.682
44449W        W45313  20.621  18.832   2.954
44450W        W45314  18.299  19.517   2.827
44451W        W45315  20.093  19.883   2.330
44452W        W45316  18.470  20.719   1.410
44453W        W45317  18.662  19.828   1.967
44454W        W45318  20.875  20.310   2.789
44455W        W45319  20.767  21.736   3.036
44456W        W45320  20.737  19.321   2.865
44457W        W45321  21.081  21.689   1.184
44458W        W45322  19.897  21.386   2.424
44459W        W45323  19.221  21.634   1.904
44460W        W45324  21.143  20.782   2.265
44461W        W45325  20.082  20.878   3.445
44462W        W45326  18.848  20.685   1.775
44463W        W45327  21.182  20.417   1.481
44464W        W45328  20.680  21.604   1.982
44465W        W45329  18.895  21.267   2.046
44466W        W45330  19.989  19.407   3.252
44467W        W45331  20.213  21.470   1.023
44468W        W45332  19.611  20.755   3.271
44469W        W45333  19.532  20.994   0.935
44470W        W45334  18.992  19.753   0.150
44471W        W45335  18.318  21.871   7.134
44472W        W45336  18.706  20.700   6.665
44473W        W45337  21.464  20.349   4.422
44474W        W45338  21.627  21.537   6.460
44475W        W45339  19.404  21.537   3.715
44476W        W45340  19.637  19.744   4.973
44477W        W45341  19.141  19.550   5.300
44478W        W45342  19.866  20.160   4.194
44479W        W45343  19.785  21.549   6.778
44480W        W45344  18.276  18.944   6.633
44481W        W45345  18.980  18.221   6.469
44482W        W45346  20.756  18.682   5.306
44483W        W45347  20.510  19.383   3.892
44484W        W45348  20.936  19.100   6.981
44485W        W45349  18.386  18.601   6.234
44486W        W45350  18.549  21.384   7.202
44487W        W45351  19.708  21.106   3.834
44488W        W45352  18.236  19.318   5.698
44489W        W45353  19.381  19.527   6.871
44490W        W45354  21.490  19.268   5.459
44491W        W45355  21.482  20.279   6.254
44492W        W45356  19.953  19.792   5.384
44493W        W45357  20.460  21.046   5.711
44494W        W45358  18.915  20.366   5.906
44495W        W45359  18.110  19.822   5.567
44496W        W45360  19.132  19.945   6.421
44497W        W45361  21.549  19.712   6.919
44498W        W45362  19.096  21.073   5.403
44499W        W45363  20.265  20.901   6.401
44500W        W45364  19.583  19.515   5.678
44501W        W45365  19.814  20.291   5.473
44502W        W45366  20.580  21.218   7.173
44503W        W45367  19.856  20.289   7.123
44504W        W45368  20.002  20.119   6.682
44505W        W45369  18.157  19.269   7.013
44506W        W45370  21.019  20.937   6.909
44507W        W45371  18.670  18.460   4.729
44508W        W45372  19.246  20.802   5.881
44509W        W45373  21.591  20.646   5.291
44510W        W45374  20.818  18.895   5.781
44511W        W45375  21.343  18.892   3.565
44512W        W45376  21.818  19.657   6.106
44513W        W45377  19.677  21.222   5.885
44514W        W45378  21.787  20.755   4.447
44515W        W45379  18.808  21.903   4.453
44516W        W45380  19.082  21.801   4.894
44517W        W45381  18.884  18.538   6.059
44518W        W45382  21.395  19.768   6.364
44519W        W45383  20.921  19.901   5.048
44520W        W45384  20.973  19.636   3.919
44521W        W45385  20.031  20.844   5.929
44522W        W45386  19.989  19.015   5.090
44523W        W45387  20.539  21.263   6.176
44524W        W45388  21.388  20.021   4.840
44525W        W45389  20.480  18.669   4.475
44526W        W45390  18.938  21.417   4.568
44527W        W45391  18.323  18.856   4.786
44528W        W45392  20.930  19.321   5.485
44529W        W45393  18.570  21.162   5.467
44530W        W45394  19.750  21.563   4.097
44531W        W45395  21.265  19.392   3.552
44532W        W45396  18.376  21.184   5.958
44533W        W45397  19.058  20.948   6.360
44534W        W45398  19.497  20.361   5.084
44535W        W45399  19.339  18.674   5.864
44536W        W45400  21.787  18.348   5.529
44537W        W45401  19.010  20.145   3.241
44538W        W45402  18.799  19.001   3.630
44539W        W45403  18.780  21.121   4.991
44540W        W45404  19.466  20.875   5.070
44541W        W45405  21.180  21.443   6.706
44542W        W45406  20.211  19.114   4.219
44543W        W45407  21.530  21.589   5.277
44544W        W45408  21.113  19.532   6.732
44545W        W45409  21.839  20.991   4.957
44546W        W45410  20.447  20.380   6.479
44547W        W45411  18.004  19.763   4.786
44548W        W45412  19.239  20.454   6.287
44549W        W45413  20.434  19.537   4.438
44550W        W45414  20.436  19.948   4.894
44551W        W45415  18.638  19.395   6.075
44552W        W45416  18.647  19.373   6.775
44553W        W45417  18.607  18.349   5.250
44554W        W45418  20.288  18.780   5.534
44555W        W45419  20.027  18.806   6.834
44556W        W45420  20.545  18.811   3.971
44557W        W45421  21.644  21.377   6.961
44558W        W45422  20.489  18.351   6.728
44559W        W45423  21.518  20.856   7.067
44560W        W45424  21.024  18.900   6.500
44561W        W45425  20.796  18.915   4.831
44562W        W45426  21.224  19.953   7.234
44563W        W45427  18.873  21.549   5.289
44564W        W45428  19.724  19.136   4.066
44565W        W45429  19.123  18.539   6.873
44566W        W45430  21.214  19.087   4.579
44567W        W45431  21.503  19.563   4.593
44568W        W45432  19.339  21.724   6.983
44569W        W45433  19.218  18.342   4.209
44570W        W45434  21.607  18.740   5.230
44571W        W45435  21.865  20.915   3.790
44572W        W45436  18.487  20.221   5.612
44573W        W45437  20.585  18.741   3.467
44574W        W45438  21.730  21.134   5.480
44575W        W45439  21.621  18.344   6.025
44576W        W45440  20.253  19.646   6.715
44577W        W45441  20.051  20.637   4.268
44578W        W45442  20.747  20.139   7.290
44579W        W45443  20.388  18.291   5.316
44580W        W45444  18.747  19.214   5.488
44581W        W45445  18.739  20.285   6.371
44582W        W45446  20.442  21.474   5.424
44583W        W45447  21.298  19.010   5.899
44584W        W45448  20.321  21.612   6.510
44585W        W45449  21.420  20.219   3.831
44586W        W45450  19.958  20.145   4.991
44587W        W45451  21.688  18.307   6.539
44588W        W45452  19.971  20.479   6.303
44589W        W45453  20.039  19.302   5.524
44590W        W45454  20.980  19.556   4.496
44591W        W45455  21.328  19.353   4.143
44592W        W45456  21.408  21.044   4.646
44593W        W45457  21.080  20.720   5.381
44594W        W45458  20.711  19.934   4.248
44595W        W45459  20.326  20.167   5.366
44596W        W45460  21.217  19.750   5.453
44597W        W45461  18.568  18.921   5.876
44598W        W45462  21.180  20.053   6.730
44599W        W45463  21.729  21.560   5.796
44600W        W45464  19.548  21.283   5.405
44601W        W45465  20.830  21.677   6.393
44602W        W45466  20.535  19.005   6.217
44603W        W45467  19.976  21.827   6.186
44604W        W45468  21.552  18.690   4.699
44605W        W45469  21.176  19.996   5.940
44606W        W45470  18.199  19.115   6.159
44607W        W45471  21.158  18.987   5.188
44608W        W45472  21.388  19.254   6.362
44609W        W45473  20.471  20.963   5.197
44610W        W45474  19.794  21.477   5.014
44611W        W45475  18.798  18.608   4.010
44612W        W45476  20.041  18.362   5.723
44613W        W45477  18.829  21.672   3.876
44614W        W45478  19.584  20.114   4.625
44615W        W45479  20.039  20.649   6.783
44616W        W45480  19.982  18.735   4.630
44617W        W45481  21.138  18.536   4.974
44618W        W45482  21.018  21.719   5.374
44619W        W45483  20.157  21.453   5.880
44620W        W45484  19.628  20.442   5.927
44621W        W45485  21.528  21.188   6.096
44622W        W45486  19.168  18.654   4.633
44623W        W45487  19.648  20.798   5.550
44624W        W45488  19.261  18.883   3.419
44625W        W45489  19.952  19.485   6.055
44626W        W45490  20.678  18.407   5.743
44627W        W45491  18.310  20.289   6.090
44628W        W45492  19.836  19.952   3.709
44629W        W45493  19.205  18.438   3.688
44630W        W45494  20.153  19.507   5.007
44631W        W45495  20.714  18.529   6.302
44632W        W45496  19.567  20.512   6.679
44633W        W45497  20.365  20.323   6.991
44634W        W45498  20.834  20.432   6.827
44635W        W45499  20.114  18.460   7.211
44636W        W45500  19.275  19.100   5.556
44637W        W45501  18.769  18.869   5.053
44638W        W45502  18.584  21.664   4.881
44639W        W45503  20.173  21.202   6.829
44640W        W45504  19.537  20.787   4.275
44641W        W45505  20.812  20.093   5.526
44642W        W45506  20.798  19.678   5.822
44643W        W45507  20.169  20.330   5.844
44644W        W45508  20.505  20.506   3.467
44645W        W45509  20.356  18.689   4.994
44646W        W45510  21.717  19.074   4.395
44647W        W45511  18.503  21.605   6.711
44648W        W45512  18.628  20.739   6.117
44649W        W45513  18.248  21.874   4.546
44650W        W45514  20.077  18.976   5.979
44651W        W45515  19.327  21.285   4.214
44652W        W45516  21.684  21.189   4.192
44653W        W45517  20.247  19.821   4.052
44654W        W45518  19.883  19.301   4.593
44655W        W45519  20.159  18.986   3.669
44656W        W45520  20.508  20.814   6.851
44657W        W45521  21.027  18.607   4.449
44658W        W45522  18.378  18.346   3.866
44659W        W45523  19.599  20.855   6.253
44660W        W45524  19.272  20.425   5.534
44661W        W45525  19.274  21.023   3.554
44662W        W45526  18.415  21.229   4.640
44663W        W45527  18.924  19.820   6.894
44664W        W45528  19.625  18.462   7.046
44665W        W45529  20.214  18.613   6.362
44666W        W45530  19.598  18.397   4.802
44667W        W45531  20.658  18.325   4.110
44668W        W45532  18.488  18.409   5.762
44669W        W45533  18.269  19.234   5.184
44670W        W45534  21.221  18.583   5.527
44671W        W45535  18.738  18.908   4.468
44672W        W45536  21.134  18.526   6.025
44673W        W45537  21.536  19.715   3.832
44674W        W45538  18.905  18.730   5.544
44675W        W45539  20.118  19.185   6.470
44676W        W45540  18.321  18.859   3.842
44677W        W45541  19.064  20.341   6.773
44678W        W45542  20.288  19.793   5.770
44679W        W45543  20.128  21.843   3.842
44680W        W45544  17.991  20.229   3.781
44681W        W45545  19.219  20.856   6.868
44682W        W45546  18.613  19.793   6.478
44683W        W45547  19.623  20.097   6.323
44684W        W45548  21.161  18.338   6.514
44685W        W45549  21.795  20.017   6.568
44686W        W45550  21.758  19.958   4.225
44687W        W45551  20.318  20.217   4.458
44688W        W45552  21.081  21.691   3.849
44689W        W45553  20.330  19.844   7.206
44690W        W45554  18.798  20.886   7.178
44691W        W45555  21.832  18.760   7.127
44692W        W45556  21.351  19.517   5.901
44693W        W45557  19.768  21.747   7.278
44694W        W45558  19.656  18.303   3.915
44695W        W45559  21.421  20.741   4.071
44696W        W45560  19.047  19.056   6.786
44697W        W45561  19.702  21.034   6.714
44698W        W45562  21.504  18.753   6.320
44699W        W45563  21.328  21.502   4.378
44700W        W45564  21.021  20.465   5.835
44701W        W45565  19.214  18.753   6.396
44702W        W45566  19.853  19.775   7.052
44703W        W45567  19.151  20.947   4.657
44704W        W45568  20.964  20.205   4.613
44705W        W45569  18.719  18.976   6.390
44706W        W45570  19.970  20.959   5.024
44707W        W45571  21.638  19.640   5.121
44708W        W45572  19.983  18.306   6.726
44709W        W45573  20.941  20.970   5.841
44710W        W45574  21.285  21.335   5.661
44711W        W45575  20.114  21.370   3.604
44712W        W45576  18.351  20.967   6.943
44713W        W45577  19.048  19.073   6.015
44714W        W45578  19.083  18.458   5.110
44715W        W45579  20.480  19.276   5.761
44716W        W45580  19.777  20.582   3.822
44717W        W45581  21.511  20.319   5.706
44718W        W45582  18.800  21.196   6.750
44719W        W45583  21.438  21.927   4.639
44720W        W45584  19.476  18.789   5.151
44721W        W45585  18.957  20.013   5.517
44722W        W45586  19.581  21.753   5.866
44723W        W45587  21.343  21.812   7.023
44724W        W45588  20.617  20.127   6.012
44725W        W45589  18.515  19.283   3.270
44726W        W45590  21.705  21.463   4.779
44727W        W45591  21.346  18.841   4.088
44728W        W45592  19.483  18.320   6.552
44729W        W45593  21.352  21.096   5.156
44730W        W45594  21.172  19.462   4.997
44731W        W45595  19.606  19.305   5.221
44732W        W45596  19.779  19.654   6.543
44733W        W45597  20.801  20.808   6.442
44734W        W45598  19.502  19.205   6.502
44735W        W45599  19.423  21.754   5.280
44736W        W45600  18.842  21.772   7.055
44737W        W45601  18.969  21.421   3.458
44738W        W45602  21.280  20.557   4.889
44739W        W45603  19.026  19.434   6.421
44740W        W45604  21.688  19.205   3.786
44741W        W45605  19.772  20.593   4.715
44742W        W45606  20.658  19.954   6.768
44743W        W45607  20.444  19.539   6.203
44744W        W45608  18.782  19.901   6.021
44745W        W45609  21.260  21.671   6.072
44746W        W45610  20.926  18.573   6.935
44747W        W45611  18.616  18.536   6.701
44748W        W45612  19.075  19.543   5.805
44749W        W45613  19.556  19.302   3.554
44750W        W45614  18.399  21.066   6.451
44751W        W45615  19.797  19.947   5.859
44752W        W45616  19.689  18.780   3.709
44753W        W45617  19.138  20.008   5.018
44754W        W45618  18.560  21.874   6.284
44755W        W45619  21.252  19.910   4.254
44756W        W45620  21.423  18.663   6.827
44757W        W45621  20.922  20.922   4.922
44758W        W45622  18.328  19.755   6.908
44759W        W45623  21.615  18.433   4.247
44760W        W45624  21.064  20.700   4.452
44761W        W45625  20.023  19.814   4.596
44762W        W45626  20.986  18.586   3.796
44763W        W45627  20.931  19.304   6.141
44764W        W45628  18.405  19.740   5.130
44765W        W45629  19.011  20.642   5.120
44766W        W45630  20.673  19.463   4.891
44767W        W45631  19.757  18.863   5.580
44768W        W45632  21.754  20.706   6.160
44769W        W45633  21.737  18.797   5.774
44770W        W45634  18.327  21.604   5.351
44771W        W45635  18.668  20.664   4.719
44772W        W45636  18.699  18.509   7.206
44773W        W45637  19.581  21.274   7.178
44774W        W45638  21.753  20.139   5.247
44775W        W45639  20.998  20.336   4.085
44776W        W45640  20.480  21.827   6.027
44777W        W45641  21.175  20.474   7.195
44778W        W45642  19.874  18.258   4.387
44779W        W45643  20.489  19.143   5.239
44780W        W45644  18.309  20.728   5.693
44781W        W45645  19.591  18.683   4.292
44782W        W45646  19.478  20.030   6.817
44783W        W45647  20.343  19.114   4.716
44784W        W45648  20.540  20.648   6.037
44785W        W45649  18.755  21.406   6.282
44786W        W45650  19.076  21.319   7.147
44787W        W45651  19.242  18.880   3.953
44788W        W45652  20.743  19.118   4.339
44789W        W45653  20.683  21.265   6.669
44790W        W45654  19.457  19.941   5.427
44791W        W45655  19.044  21.835   6.069
44792W        W45656  21.690  21.573   3.835
44793W        W45657  18.524  20.218   6.826
44794W        W45658  20.616  20.574   5.538
44795W        W45659  19.179  20.435   4.682
44796W        W45660  19.278  21.378   6.165
44797W        W45661  19.920  18.524   5.221
44798W        W45662  18.268  20.493   4.329
44799W        W45663  20.012  19.461   3.765
44800W        W45664  18.673  20.242   5.126
44801W        W45665  19.732  18.759   6.396
44802W        W45666  21.501  18.442   3.729
44803W        W45667  21.597  20.252   6.990
44804W        W45668  20.240  21.690   7.023
44805W        W45669  21.808  20.619   6.669
44806W        W45670  21.193  21.338   7.216
44807W        W45671  19.102  22.027   5.596
44808W        W45672  21.774  20.439   4.844
44809W        W45673  20.537  19.664   5.347
44810W        W45674  20.136  18.243   4.846
44811W        W45675  19.266  21.339   4.980
44812W        W45676  19.573  19.114   6.005
44813W        W45677  19.553  18.339   5.546
44814W        W45678  18.488  21.544   4.239
44815W        W45679  20.292  20.525   4.955
44816W        W45680  19.294  21.333   6.667
44817W        W45681  18.380  20.106   4.715
44818W        W45682  18.390  18.799   5.407
44819W        W45683  20.134  20.673   5.442
44820W        W45684  18.347  18.614   4.314
44821W        W45685  20.881  19.792   6.333
44822W        W45686  20.946  19.109   3.833
44823W        W45687  21.432  20.825   5.746
44824W        W45688  20.027  21.174   5.479
44825W        W45689  19.464  21.629   4.586
44826W        W45690  20.586  18.244   3.585
44827W        W45691  18.656  21.621   5.778
44828W        W45692  20.392  19.281   7.075
44829W        W45693  18.613  19.005   7.113
44830W        W45694  18.342  19.379   4.693
44831W        W45695  19.774  19.644   4.182
44832W        W45696  20.793  19.616   7.134
44833W        W45697  19.292  20.030   5.918
44834W        W45698  20.685  18.326   4.866
44835W        W45699  19.933  21.718   5.471
44836W        W45700  21.049  21.229   6.265
44837W        W45701  20.886  21.205   5.373
44838W        W45702  20.785  20.403   5.076
44839W        W45703  20.063  18.635   4.073
44840W        W45704  21.880  18.356   5.008
44841W        W45705  19.413  19.804   3.370
44842W        W45706  21.575  19.157   4.932
44843W        W45707  20.236  20.290   3.853
44844W        W45708  21.301  20.553   6.678
44845W        W45709  21.447  21.186   3.599
44846W        W45710  19.514  18.939   6.945
44847W        W45711  19.446  19.608   6.164
44848W        W45712  21.463  21.035   6.585
44849W        W45713  20.532  18.864   6.720
44850W        W45714  18.221  19.462   6.512
44851W        W45715  20.155  19.968   6.235
44852W        W45716  18.484  20.722   5.196
44853W        W45717  18.591  19.678   5.615
44854W        W45718  20.964  20.318   6.336
44855W        W45719  20.817  21.669   6.989
44856W        W45720  20.661  19.346   6.614
44857W        W45721  21.195  21.508   4.891
44858W        W45722  19.933  21.303   6.332
44859W        W45723  19.178  21.509   5.683
44860W        W45724  21.245  20.747   6.208
44861W        W45725  20.184  20.829   7.251
44862W        W45726  18.804  20.712   5.586
44863W        W45727  21.242  20.239   5.287
44864W        W45728  20.817  21.491   5.814
44865W        W45729  18.880  21.142   5.877
44866W        W45730  19.884  19.294   6.920
44867W        W45731  19.991  21.651   4.574
44868W        W45732  19.688  20.772   7.143
44869W        W45733  19.639  21.141   4.645
44870W        W45734  19.075  19.350   3.273
44871W        W45735  18.268  22.012  10.671
44872W        W45736  18.665  20.765  10.174
44873W        W45737  21.516  20.487   8.041
44874W        W45738  21.606  21.554   9.925
44875W        W45739  19.306  21.602   7.506
44876W        W45740  19.615  19.524   8.275
44877W        W45741  19.147  19.359   8.700
44878W        W45742  20.085  20.346   7.961
44879W        W45743  19.732  21.644  10.379
44880W        W45744  18.290  18.909  10.247
44881W        W45745  18.989  18.092  10.092
44882W        W45746  20.805  18.715   9.112
44883W        W45747  20.535  19.478   7.565
44884W        W45748  20.936  19.158  10.568
44885W        W45749  18.397  18.689   9.786
44886W        W45750  18.453  21.495  10.786
44887W        W45751  19.762  20.989   7.622
44888W        W45752  18.344  19.487   9.191
44889W        W45753  19.468  19.544  10.386
44890W        W45754  21.739  19.216   9.134
44891W        W45755  21.468  20.245   9.797
44892W        W45756  20.109  19.442   8.942
44893W        W45757  20.494  21.063   9.294
44894W        W45758  18.944  20.358   9.501
44895W        W45759  18.224  19.984   9.058
44896W        W45760  19.455  19.966  10.029
44897W        W45761  21.616  19.752  10.426
44898W        W45762  19.131  21.185   8.978
44899W        W45763  20.348  20.868   9.832
44900W        W45764  19.713  19.373   9.244
44901W        W45765  19.619  20.226   8.876
44902W        W45766  20.487  21.239  10.651
44903W        W45767  19.863  20.377  10.624
44904W        W45768  19.959  20.149  10.184
44905W        W45769  18.370  19.293  10.593
44906W        W45770  21.019  20.927  10.446
44907W        W45771  18.756  18.467   8.368
44908W        W45772  19.262  20.803   9.470
44909W        W45773  21.732  20.684   8.893
44910W        W45774  21.303  18.931   9.182
44911W        W45775  21.330  18.930   7.295
44912W        W45776  21.874  19.639   9.644
44913W        W45777  19.767  21.633   9.475
44914W        W45778  21.630  21.000   7.973
44915W        W45779  18.644  21.821   8.035
44916W        W45780  19.048  21.766   8.429
44917W        W45781  18.892  18.487   9.748
44918W        W45782  21.435  19.724   9.899
44919W        W45783  20.836  19.981   8.543
44920W        W45784  20.942  19.792   7.637
44921W        W45785  20.053  20.818   9.413
44922W        W45786  20.055  18.967   8.745
44923W        W45787  20.513  21.343   9.760
44924W        W45788  21.354  20.018   8.495
44925W        W45789  20.472  18.452   8.189
44926W        W45790  18.912  21.378   8.100
44927W        W45791  18.395  18.813   8.441
44928W        W45792  20.780  19.557   8.965
44929W        W45793  18.592  21.212   9.054
44930W        W45794  19.770  21.493   7.739
44931W        W45795  21.249  19.439   7.269
44932W        W45796  18.389  21.233   9.551
44933W        W45797  19.127  20.735   9.940
44934W        W45798  19.808  20.265   8.399
44935W        W45799  19.293  18.638   9.442
44936W        W45800  21.880  18.345   9.146
44937W        W45801  19.351  20.393   7.209
44938W        W45802  18.744  19.112   7.604
44939W        W45803  18.781  21.213   8.581
44940W        W45804  19.582  20.798   8.519
44941W        W45805  21.194  21.554  10.226
44942W        W45806  20.256  19.111   7.798
44943W        W45807  21.456  21.747   8.882
44944W        W45808  21.159  19.563  10.325
44945W        W45809  21.974  21.094   8.671
44946W        W45810  20.485  20.395   9.992
44947W        W45811  18.190  19.919   8.218
44948W        W45812  19.416  20.368   9.718
44949W        W45813  20.447  19.629   8.111
44950W        W45814  20.340  20.128   8.350
44951W        W45815  18.705  19.479   9.587
44952W        W45816  18.692  19.390  10.178
44953W        W45817  18.664  18.295   8.848
44954W        W45818  20.288  18.759   9.223
44955W        W45819  20.116  18.869  10.378
44956W        W45820  20.629  18.736   7.790
44957W        W45821  21.626  21.433  10.471
44958W        W45822  20.480  18.449  10.335
44959W        W45823  21.500  20.928  10.636
44960W        W45824  21.117  18.931  10.149
44961W        W45825  20.839  18.803   8.418
44962W        W45826  21.235  19.934  10.730
44963W        W45827  18.872  21.635   8.913
44964W        W45828  19.743  19.121   7.776
44965W        W45829  19.101  18.563  10.374
44966W        W45830  21.147  19.185   8.276
44967W        W45831  21.455  19.591   8.188
44968W        W45832  19.266  21.807  10.600
44969W        W45833  19.247  18.341   7.874
44970W        W45834  21.677  18.742   8.899
44971W        W45835  21.698  21.175   7.451
44972W        W45836  18.600  20.343   9.090
44973W        W45837  20.527  18.802   7.245
44974W        W45838  21.767  21.126   9.153
44975W        W45839  21.770  18.321   9.669
44976W        W45840  20.278  19.707  10.337
44977W        W45841  20.121  20.884   8.021
44978W        W45842  20.783  20.177  10.796
44979W        W45843  20.472  18.285   9.122
44980W        W45844  18.813  19.243   9.085
44981W        W45845  18.485  20.373   9.861
44982W        W45846  20.489  21.488   8.894
44983W        W45847  21.463  19.299   9.552
44984W        W45848  20.359  21.709  10.129
44985W        W45849  21.492  20.255   7.558
44986W        W45850  19.873  19.804   8.646
44987W        W45851  21.746  18.314  10.208
44988W        W45852  20.020  20.467   9.789
44989W        W45853  20.368  19.253   9.329
44990W        W45854  20.954  19.647   8.138
44991W        W45855  21.207  19.347   7.787
44992W        W45856  21.284  21.255   8.269
44993W        W45857  20.866  20.683   9.053
44994W        W45858  20.744  20.098   8.038
44995W        W45859  20.156  20.199   8.840
44996W        W45860  21.153  19.944   8.971
44997W        W45861  18.470  19.004   9.382
44998W        W45862  21.221  20.079  10.241
44999W        W45863  21.751  21.574   9.415
45000W        W45864  19.624  21.193   8.837
45001W        W45865  20.824  21.736   9.904
45002W        W45866  20.604  19.007   9.712
45003W        W45867  19.899  21.867   9.917
45004W        W45868  21.380  18.749   8.363
45005W        W45869  21.478  19.900   9.397
45006W        W45870  18.341  19.209   9.838
45007W        W45871  21.025  19.096   8.793
45008W        W45872  21.510  19.249  10.066
45009W        W45873  20.493  20.965   8.753
45010W        W45874  19.761  21.538   8.483
45011W        W45875  18.824  18.592   7.684
45012W        W45876  19.980  18.354   9.371
45013W        W45877  18.815  21.772   7.559
45014W        W45878  19.577  20.139   7.946
45015W        W45879  20.012  20.736  10.228
45016W        W45880  20.021  18.598   8.377
45017W        W45881  21.194  18.565   8.806
45018W        W45882  20.925  21.840   8.996
45019W        W45883  20.251  21.519   9.356
45020W        W45884  19.733  20.434   9.329
45021W        W45885  21.553  21.138   9.620
45022W        W45886  19.229  18.694   8.276
45023W        W45887  19.643  21.132   9.340
45024W        W45888  19.095  18.878   7.281
45025W        W45889  20.056  19.571   9.584
45026W        W45890  20.913  18.364   9.486
45027W        W45891  18.189  20.356   9.426
45028W        W45892  19.908  19.989   7.541
45029W        W45893  19.209  18.390   7.362
45030W        W45894  20.109  19.398   8.425
45031W        W45895  20.767  18.564   9.933
45032W        W45896  19.561  20.494  10.186
45033W        W45897  20.360  20.351  10.487
45034W        W45898  20.861  20.454  10.353
45035W        W45899  20.146  18.489  10.753
45036W        W45900  19.310  19.034   9.078
45037W        W45901  18.863  18.912   8.645
45038W        W45902  18.534  21.649   8.495
45039W        W45903  20.220  21.226  10.195
45040W        W45904  19.260  20.532   7.760
45041W        W45905  20.673  20.150   9.037
45042W        W45906  20.998  19.701   9.416
45043W        W45907  20.211  20.223   9.384
45044W        W45908  20.695  20.658   7.299
45045W        W45909  20.452  18.623   8.708
45046W        W45910  21.610  19.094   8.048
45047W        W45911  18.465  21.670  10.300
45048W        W45912  18.690  20.800   9.653
45049W        W45913  18.136  21.715   8.094
45050W        W45914  19.997  19.057   9.620
45051W        W45915  19.324  21.202   7.806
45052W        W45916  21.604  21.512   7.972
45053W        W45917  20.385  19.945   7.717
45054W        W45918  19.763  19.028   8.293
45055W        W45919  20.031  18.977   7.329
45056W        W45920  20.514  20.827  10.321
45057W        W45921  20.990  18.433   8.107
45058W        W45922  18.374  18.279   7.559
45059W        W45923  19.667  20.825   9.787
45060W        W45924  19.432  20.743   9.009
45061W        W45925  19.269  20.904   7.397
45062W        W45926  18.380  21.261   8.197
45063W        W45927  19.027  19.778  10.255
45064W        W45928  19.506  18.278  10.524
45065W        W45929  20.235  18.683   9.912
45066W        W45930  19.589  18.336   8.399
45067W        W45931  20.711  18.211   7.738
45068W        W45932  18.542  18.439   9.365
45069W        W45933  18.418  19.218   8.758
45070W        W45934  21.385  18.418   9.289
45071W        W45935  18.770  18.911   8.095
45072W        W45936  21.136  18.819   9.647
45073W        W45937  21.484  19.742   7.650
45074W        W45938  18.896  18.725   9.126
45075W        W45939  20.229  19.273  10.027
45076W        W45940  18.350  18.784   7.536
45077W        W45941  19.000  20.245  10.011
45078W        W45942  20.394  19.763   9.235
45079W        W45943  20.147  21.851   7.634
45080W        W45944  18.427  20.027   7.324
45081W        W45945  19.233  21.060  10.300
45082W        W45946  18.608  19.870   9.974
45083W        W45947  19.819  20.024   9.669
45084W        W45948  21.230  18.430  10.092
45085W        W45949  21.840  20.009  10.044
45086W        W45950  21.751  20.007   8.141
45087W        W45951  20.579  20.576   8.122
45088W        W45952  21.055  21.824   7.448
45089W        W45953  20.353  19.916  10.789
45090W        W45954  18.847  20.962  10.619
45091W        W45955  21.860  18.920  10.790
45092W        W45956  21.291  19.450   9.083
45093W        W45957  19.765  21.683  10.896
45094W        W45958  19.694  18.274   7.578
45095W        W45959  21.372  20.767   7.577
45096W        W45960  19.198  19.089  10.342
45097W        W45961  19.704  21.176  10.161
45098W        W45962  21.590  18.759   9.928
45099W        W45963  21.123  21.705   7.959
45100W        W45964  21.096  20.306   9.350
45101W        W45965  19.272  18.794   9.933
45102W        W45966  19.863  19.847  10.602
45103W        W45967  19.165  20.875   8.156
45104W        W45968  21.065  20.409   8.321
45105W        W45969  18.787  18.931  10.003
45106W        W45970  20.029  21.089   8.524
45107W        W45971  21.624  19.652   8.738
45108W        W45972  19.972  18.376  10.270
45109W        W45973  20.953  21.011   9.451
45110W        W45974  21.289  21.398   9.257
45111W        W45975  20.071  21.325   7.343
45112W        W45976  18.343  21.019  10.561
45113W        W45977  18.967  19.023   9.538
45114W        W45978  19.144  18.478   8.733
45115W        W45979  20.887  19.197   9.322
45116W        W45980  19.747  20.481   7.575
45117W        W45981  21.586  20.464   9.335
45118W        W45982  18.908  21.447  10.445
45119W        W45983  21.417  21.846   8.353
45120W        W45984  19.577  18.764   8.704
45121W        W45985  19.126  20.335   9.006
45122W        W45986  19.405  21.914   9.712
45123W        W45987  21.343  21.869  10.593
45124W        W45988  20.669  20.071   9.551
45125W        W45989  18.519  19.503   7.307
45126W        W45990  21.730  21.482   8.471
45127W        W45991  21.175  18.844   7.864
45128W        W45992  19.450  18.309  10.027
45129W        W45993  21.418  21.211   8.778
45130W        W45994  21.142  19.566   8.607
45131W        W45995  19.659  19.290   8.737
45132W        W45996  19.866  19.657  10.060
45133W        W45997  20.870  20.850   9.947
45134W        W45998  19.667  19.174  10.049
45135W        W45999  19.378  21.645   8.827
45136W        W46000  18.772  21.893  10.675
45137W        W46001  18.859  21.233   7.598
45138W        W46002  21.474  20.807   8.453
45139W        W46003  19.140  19.359   9.903
45140W        W46004  21.670  19.260   7.514
45141W        W46005  19.665  20.649   8.048
45142W        W46006  20.692  19.986  10.309
45143W        W46007  20.575  19.538   9.685
45144W        W46008  19.058  19.847   9.692
45145W        W46009  21.239  21.793   9.593
45146W        W46010  20.993  18.618  10.543
45147W        W46011  18.620  18.478  10.220
45148W        W46012  19.189  19.464   9.350
45149W        W46013  19.540  19.299   7.323
45150W        W46014  18.349  21.175  10.068
45151W        W46015  19.884  19.872   9.173
45152W        W46016  19.581  18.761   7.449
45153W        W46017  19.396  19.940   8.492
45154W        W46018  18.490  21.855   9.830
45155W        W46019  21.251  20.045   7.988
45156W        W46020  21.515  18.743  10.441
45157W        W46021  20.986  20.873   8.573
45158W        W46022  18.542  19.785  10.505
45159W        W46023  21.362  18.333   7.782
45160W        W46024  21.116  20.825   8.032
45161W        W46025  19.981  19.846   8.095
45162W        W46026  20.986  18.585   7.457
45163W        W46027  21.032  19.321   9.822
45164W        W46028  18.940  19.868   9.154
45165W        W46029  19.068  20.784   8.652
45166W        W46030  20.685  19.356   8.476
45167W        W46031  19.773  18.841   9.203
45168W        W46032  21.803  20.712   9.748
45169W        W46033  21.732  18.781   9.434
45170W        W46034  18.329  21.641   8.952
45171W        W46035  18.644  20.826   8.274
45172W        W46036  18.726  18.508  10.772
45173W        W46037  19.937  21.248  10.620
45174W        W46038  21.640  20.132   8.956
45175W        W46039  20.998  20.399   7.695
45176W        W46040  20.383  21.913   9.661
45177W        W46041  21.225  20.468  10.724
45178W        W46042  19.961  18.206   8.039
45179W        W46043  20.526  19.101   8.879
45180W        W46044  18.359  20.804   9.248
45181W        W46045  19.662  18.634   7.968
45182W        W46046  19.410  20.104  10.512
45183W        W46047  20.368  18.970   8.298
45184W        W46048  20.652  20.587   9.522
45185W        W46049  18.858  21.205   9.974
45186W        W46050  19.415  21.335  10.682
45187W        W46051  19.228  18.895   7.795
45188W        W46052  20.735  19.200   7.980
45189W        W46053  20.748  21.295  10.204
45190W        W46054  19.439  19.709   8.952
45191W        W46055  18.969  21.648   9.737
45192W        W46056  21.543  21.659   7.490
45193W        W46057  18.643  20.285  10.370
45194W        W46058  20.376  20.593   9.080
45195W        W46059  19.294  20.413   8.339
45196W        W46060  19.341  21.226   9.759
45197W        W46061  19.994  18.477   8.877
45198W        W46062  18.363  20.271   7.846
45199W        W46063  20.027  19.479   7.449
45200W        W46064  18.811  20.340   8.586
45201W        W46065  19.731  18.634   9.741
45202W        W46066  21.473  18.440   7.303
45203W        W46067  21.642  20.273  10.450
45204W        W46068  20.208  21.688  10.618
45205W        W46069  21.811  20.718  10.257
45206W        W46070  21.160  21.350  10.697
45207W        W46071  19.021  21.966   9.326
45208W        W46072  21.723  20.361   8.510
45209W        W46073  20.401  19.756   8.684
45210W        W46074  20.246  18.151   8.571
45211W        W46075  19.282  21.274   8.466
45212W        W46076  19.479  19.090   9.580
45213W        W46077  19.541  18.396   9.081
45214W        W46078  18.414  21.472   7.714
45215W        W46079  20.180  20.606   8.464
45216W        W46080  19.303  21.561  10.132
45217W        W46081  18.844  20.406   8.066
45218W        W46082  18.428  18.743   8.941
45219W        W46083  19.918  20.685   8.897
45220W        W46084  18.398  18.544   7.997
45221W        W46085  20.939  19.823   9.906
45222W        W46086  20.874  19.101   7.488
45223W        W46087  21.328  20.867   9.152
45224W        W46088  20.084  21.159   9.029
45225W        W46089  19.427  21.620   8.098
45226W        W46090  20.602  18.293   7.245
45227W        W46091  18.615  21.655   9.365
45228W        W46092  20.431  19.282  10.596
45229W        W46093  18.731  18.934  10.503
45230W        W46094  18.387  19.434   8.289
45231W        W46095  19.620  19.626   7.756
45232W        W46096  20.783  19.651  10.691
45233W        W46097  19.404  20.020   9.349
45234W        W46098  20.810  18.281   8.567
45235W        W46099  19.896  21.637   8.976
45236W        W46100  21.104  21.329   9.791
45237W        W46101  20.914  21.202   8.972
45238W        W46102  20.647  20.463   8.633
45239W        W46103  20.118  18.603   7.715
45240W        W46104  21.833  18.341   8.617
45241W        W46105  19.420  19.849   7.310
45242W        W46106  21.514  19.166   8.650
45243W        W46107  20.265  20.376   7.479
45244W        W46108  21.320  20.587  10.179
45245W        W46109  21.241  21.253   7.723
45246W        W46110  19.607  18.737  10.321
45247W        W46111  19.541  19.597   9.679
45248W        W46112  21.420  21.085  10.127
45249W        W46113  20.602  18.952  10.220
45250W        W46114  18.218  19.586  10.167
45251W        W46115  20.297  19.930   9.870
45252W        W46116  18.562  20.752   8.772
45253W        W46117  18.567  19.995   9.479
45254W        W46118  20.973  20.341   9.863
45255W        W46119  20.798  21.714  10.509
45256W        W46120  20.690  19.456  10.185
45257W        W46121  21.055  21.555   8.602
45258W        W46122  19.993  21.239   9.724
45259W        W46123  19.291  21.534   9.326
45260W        W46124  21.284  20.708   9.673
45261W        W46125  20.168  20.804  10.715
45262W        W46126  18.878  20.773   9.158
45263W        W46127  21.257  20.451   8.808
45264W        W46128  20.791  21.533   9.383
45265W        W46129  18.913  21.213   9.453
45266W        W46130  19.940  19.344  10.468
45267W        W46131  20.127  21.424   8.125
45268W        W46132  19.621  20.842  10.585
45269W        W46133  19.683  21.153   8.149
45270W        W46134  19.006  19.379   7.192
45271W        W46135  18.145  21.921  14.367
45272W        W46136  18.590  20.840  13.821
45273W        W46137  21.514  20.456  11.681
45274W        W46138  21.456  21.505  13.563
45275W        W46139  19.293  21.648  11.105
45276W        W46140  19.640  19.840  12.242
45277W        W46141  18.921  19.440  12.521
45278W        W46142  20.244  20.356  11.780
45279W        W46143  19.658  21.492  14.044
45280W        W46144  18.275  19.030  13.965
45281W        W46145  18.864  18.355  13.821
45282W        W46146  20.778  18.678  12.729
45283W        W46147  20.541  19.599  11.167
45284W        W46148  20.788  19.210  14.246
45285W        W46149  18.471  18.634  13.625
45286W        W46150  18.325  21.461  14.539
45287W        W46151  19.699  21.131  11.059
45288W        W46152  18.436  19.412  12.972
45289W        W46153  19.396  19.547  14.189
45290W        W46154  21.731  19.146  12.669
45291W        W46155  21.380  20.230  13.389
45292W        W46156  20.030  19.702  12.547
45293W        W46157  20.436  21.024  12.986
45294W        W46158  18.835  20.309  13.157
45295W        W46159  18.089  19.856  12.887
45296W        W46160  19.348  19.936  13.822
45297W        W46161  21.511  19.725  14.123
45298W        W46162  19.099  20.995  12.614
45299W        W46163  20.263  20.879  13.668
45300W        W46164  19.357  19.319  12.973
45301W        W46165  19.730  20.124  12.696
45302W        W46166  20.430  21.168  14.441
45303W        W46167  19.891  20.311  14.458
45304W        W46168  19.842  20.114  13.965
45305W        W46169  18.149  19.360  14.342
45306W        W46170  20.901  20.980  14.263
45307W        W46171  18.698  18.478  12.077
45308W        W46172  19.155  20.707  13.106
45309W        W46173  21.670  20.611  12.525
45310W        W46174  21.245  18.960  12.910
45311W        W46175  21.279  18.922  10.874
45312W        W46176  21.989  19.554  13.418
45313W        W46177  19.801  21.458  13.147
45314W        W46178  21.717  20.921  11.567
45315W        W46179  18.492  21.756  11.661
45316W        W46180  18.986  21.800  12.097
45317W        W46181  18.925  18.509  13.330
45318W        W46182  21.531  19.740  13.592
45319W        W46183  20.975  20.014  12.184
45320W        W46184  20.978  19.869  11.179
45321W        W46185  19.990  20.947  13.237
45322W        W46186  19.985  19.079  12.278
45323W        W46187  20.353  21.302  13.414
45324W        W46188  21.464  20.030  12.076
45325W        W46189  20.436  18.535  11.710
45326W        W46190  18.856  21.404  11.774
45327W        W46191  18.314  18.808  12.176
45328W        W46192  20.839  19.506  12.649
45329W        W46193  18.562  21.095  12.709
45330W        W46194  19.711  21.494  11.402
45331W        W46195  21.179  19.441  10.933
45332W        W46196  18.366  21.215  13.180
45333W        W46197  19.064  20.848  13.592
45334W        W46198  19.615  20.356  12.265
45335W        W46199  19.288  18.826  13.142
45336W        W46200  21.694  18.274  12.701
45337W        W46201  19.112  20.556  10.429
45338W        W46202  18.626  18.994  11.007
45339W        W46203  18.716  21.087  12.206
45340W        W46204  19.426  20.831  12.233
45341W        W46205  21.090  21.389  13.931
45342W        W46206  20.265  19.139  11.355
45343W        W46207  21.461  21.772  12.642
45344W        W46208  21.022  19.596  14.004
45345W        W46209  21.973  21.018  12.301
45346W        W46210  20.445  20.414  13.714
45347W        W46211  18.174  19.946  12.019
45348W        W46212  19.247  20.353  13.468
45349W        W46213  20.537  19.466  11.662
45350W        W46214  20.599  19.960  11.855
45351W        W46215  18.600  19.507  13.475
45352W        W46216  18.615  19.460  14.097
45353W        W46217  18.497  18.449  12.549
45354W        W46218  20.248  18.857  12.835
45355W        W46219  20.018  18.843  14.192
45356W        W46220  20.424  18.679  11.181
45357W        W46221  21.621  21.362  14.058
45358W        W46222  20.420  18.473  14.096
45359W        W46223  21.413  20.886  14.254
45360W        W46224  21.011  18.910  13.873
45361W        W46225  20.817  18.780  12.037
45362W        W46226  21.062  20.015  14.314
45363W        W46227  18.873  21.476  12.565
45364W        W46228  19.729  19.067  11.203
45365W        W46229  19.174  18.613  14.186
45366W        W46230  21.134  19.153  11.852
45367W        W46231  21.526  19.545  11.880
45368W        W46232  19.175  21.672  14.211
45369W        W46233  19.167  18.255  11.487
45370W        W46234  21.492  18.717  12.528
45371W        W46235  21.788  21.072  11.051
45372W        W46236  18.420  20.256  12.774
45373W        W46237  20.549  18.799  10.699
45374W        W46238  21.709  21.092  12.760
45375W        W46239  21.550  18.385  13.372
45376W        W46240  20.194  19.738  14.106
45377W        W46241  20.408  20.800  12.001
45378W        W46242  20.648  20.245  14.535
45379W        W46243  20.334  18.372  12.662
45380W        W46244  18.877  19.126  12.911
45381W        W46245  18.649  20.379  13.618
45382W        W46246  20.261  21.391  12.412
45383W        W46247  21.576  19.307  13.203
45384W        W46248  20.228  21.580  13.836
45385W        W46249  21.435  20.142  11.179
45386W        W46250  20.126  20.018  12.148
45387W        W46251  21.697  18.344  13.898
45388W        W46252  19.983  20.461  13.486
45389W        W46253  20.050  19.332  12.920
45390W        W46254  21.009  19.653  11.801
45391W        W46255  20.974  19.361  11.393
45392W        W46256  21.410  21.264  11.844
45393W        W46257  20.639  20.566  12.779
45394W        W46258  21.148  20.105  11.633
45395W        W46259  20.267  20.170  12.633
45396W        W46260  21.282  19.932  12.607
45397W        W46261  18.550  18.998  13.273
45398W        W46262  21.221  20.052  13.848
45399W        W46263  21.637  21.550  13.075
45400W        W46264  19.546  21.227  12.530
45401W        W46265  20.739  21.601  13.615
45402W        W46266  20.728  19.127  13.496
45403W        W46267  19.843  21.774  13.567
45404W        W46268  21.347  18.703  12.030
45405W        W46269  21.377  19.794  13.116
45406W        W46270  18.125  19.267  13.381
45407W        W46271  21.040  19.041  12.435
45408W        W46272  21.238  19.294  13.621
45409W        W46273  20.343  20.880  12.509
45410W        W46274  19.705  21.535  12.154
45411W        W46275  18.874  18.614  11.259
45412W        W46276  19.936  18.454  13.043
45413W        W46277  18.745  21.781  11.182
45414W        W46278  19.755  20.153  11.810
45415W        W46279  19.972  20.616  14.009
45416W        W46280  20.008  18.642  11.994
45417W        W46281  21.102  18.419  12.390
45418W        W46282  20.885  21.770  12.714
45419W        W46283  20.262  21.520  12.943
45420W        W46284  19.640  20.454  13.084
45421W        W46285  21.485  21.102  13.243
45422W        W46286  19.062  18.666  11.772
45423W        W46287  19.538  21.004  12.987
45424W        W46288  19.136  18.839  10.827
45425W        W46289  20.007  19.559  13.380
45426W        W46290  20.789  18.354  13.181
45427W        W46291  18.308  20.332  13.259
45428W        W46292  19.992  19.955  11.145
45429W        W46293  19.239  18.348  10.956
45430W        W46294  20.192  19.504  12.053
45431W        W46295  20.671  18.578  13.647
45432W        W46296  19.498  20.488  13.879
45433W        W46297  20.309  20.234  14.163
45434W        W46298  20.835  20.400  14.065
45435W        W46299  20.105  18.510  14.576
45436W        W46300  19.271  18.960  12.613
45437W        W46301  18.782  18.909  12.403
45438W        W46302  18.522  21.583  12.156
45439W        W46303  20.066  21.128  14.079
45440W        W46304  19.490  20.794  11.461
45441W        W46305  20.778  20.102  12.640
45442W        W46306  20.886  19.837  13.041
45443W        W46307  20.052  20.050  13.103
45444W        W46308  20.688  20.684  10.791
45445W        W46309  20.402  18.781  12.345
45446W        W46310  21.662  19.016  11.745
45447W        W46311  18.319  21.643  13.963
45448W        W46312  18.644  20.784  13.273
45449W        W46313  17.982  21.669  11.622
45450W        W46314  20.220  19.050  13.339
45451W        W46315  19.239  21.243  11.413
45452W        W46316  21.688  21.419  11.435
45453W        W46317  20.541  20.095  11.348
45454W        W46318  19.867  19.080  11.740
45455W        W46319  20.100  18.980  10.877
45456W        W46320  20.455  20.742  14.141
45457W        W46321  21.017  18.501  11.641
45458W        W46322  18.397  18.436  11.159
45459W        W46323  19.563  20.782  13.465
45460W        W46324  19.286  20.459  12.670
45461W        W46325  19.249  20.917  10.955
45462W        W46326  18.298  21.293  11.807
45463W        W46327  18.979  19.865  14.223
45464W        W46328  19.618  18.552  14.444
45465W        W46329  20.124  18.641  13.694
45466W        W46330  19.615  18.331  12.205
45467W        W46331  20.679  18.242  11.341
45468W        W46332  18.476  18.517  13.104
45469W        W46333  18.411  19.283  12.445
45470W        W46334  21.241  18.434  12.925
45471W        W46335  18.540  18.788  11.636
45472W        W46336  21.093  18.748  13.362
45473W        W46337  21.638  19.685  10.936
45474W        W46338  18.906  18.631  12.822
45475W        W46339  19.976  19.156  13.778
45476W        W46340  18.156  18.870  11.262
45477W        W46341  19.020  20.303  13.938
45478W        W46342  20.416  19.730  12.870
45479W        W46343  20.122  21.849  11.306
45480W        W46344  18.031  20.133  11.014
45481W        W46345  19.112  20.791  14.098
45482W        W46346  18.641  19.901  13.830
45483W        W46347  19.683  20.038  13.452
45484W        W46348  21.173  18.408  13.773
45485W        W46349  21.725  20.204  13.755
45486W        W46350  21.707  19.993  11.612
45487W        W46351  20.754  20.443  11.719
45488W        W46352  21.059  21.747  11.012
45489W        W46353  20.246  19.932  14.597
45490W        W46354  18.664  20.814  14.344
45491W        W46355  21.854  18.720  14.404
45492W        W46356  21.335  19.440  12.743
45493W        W46357  19.663  21.751  14.510
45494W        W46358  19.652  18.278  11.292
45495W        W46359  21.443  20.670  11.174
45496W        W46360  19.036  19.124  14.127
45497W        W46361  19.568  20.996  13.931
45498W        W46362  21.521  18.843  13.628
45499W        W46363  21.192  21.596  11.501
45500W        W46364  21.033  20.339  13.031
45501W        W46365  19.148  18.791  13.696
45502W        W46366  19.780  19.810  14.420
45503W        W46367  19.089  20.933  11.832
45504W        W46368  21.153  20.476  12.042
45505W        W46369  18.721  19.081  13.744
45506W        W46370  19.923  21.033  12.233
45507W        W46371  21.664  19.612  12.389
45508W        W46372  19.923  18.344  14.095
45509W        W46373  20.949  20.935  12.966
45510W        W46374  21.207  21.366  12.865
45511W        W46375  20.164  21.393  11.060
45512W        W46376  18.229  21.056  14.179
45513W        W46377  19.055  19.225  13.386
45514W        W46378  19.135  18.522  12.368
45515W        W46379  20.569  19.236  13.001
45516W        W46380  19.804  20.629  11.064
45517W        W46381  21.577  20.236  12.909
45518W        W46382  18.680  21.287  14.056
45519W        W46383  21.390  21.742  12.032
45520W        W46384  19.538  18.834  12.175
45521W        W46385  18.910  20.077  12.719
45522W        W46386  19.460  21.935  13.276
45523W        W46387  21.360  21.769  14.195
45524W        W46388  20.534  20.193  13.146
45525W        W46389  18.210  19.581  10.990
45526W        W46390  21.616  21.379  12.328
45527W        W46391  21.263  18.909  11.405
45528W        W46392  19.374  18.277  13.808
45529W        W46393  21.269  20.981  12.512
45530W        W46394  21.169  19.545  12.265
45531W        W46395  19.648  19.354  12.556
45532W        W46396  19.762  19.629  13.824
45533W        W46397  20.828  20.811  13.761
45534W        W46398  19.441  19.213  13.792
45535W        W46399  19.325  21.688  12.462
45536W        W46400  18.687  21.748  14.298
45537W        W46401  18.925  21.344  10.954
45538W        W46402  21.537  20.828  12.071
45539W        W46403  19.028  19.532  13.802
45540W        W46404  21.605  19.216  11.153
45541W        W46405  19.804  20.671  11.880
45542W        W46406  20.665  19.956  13.879
45543W        W46407  20.526  19.625  13.363
45544W        W46408  18.977  19.909  13.450
45545W        W46409  21.102  21.755  13.220
45546W        W46410  20.923  18.583  14.255
45547W        W46411  18.660  18.716  14.134
45548W        W46412  18.955  19.631  13.017
45549W        W46413  19.578  19.083  10.698
45550W        W46414  18.253  21.218  13.686
45551W        W46415  19.698  19.699  12.989
45552W        W46416  19.678  18.620  10.893
45553W        W46417  19.162  20.124  12.276
45554W        W46418  18.369  21.705  13.453
45555W        W46419  21.388  19.653  11.394
45556W        W46420  21.426  18.725  14.130
45557W        W46421  20.826  20.777  12.340
45558W        W46422  18.275  19.867  14.201
45559W        W46423  21.528  18.503  11.598
45560W        W46424  21.179  20.831  11.621
45561W        W46425  20.162  19.855  11.640
45562W        W46426  20.930  18.638  11.108
45563W        W46427  21.043  19.367  13.155
45564W        W46428  18.514  19.770  12.605
45565W        W46429  18.950  20.614  12.274
45566W        W46430  20.718  19.325  12.128
45567W        W46431  19.725  18.930  12.869
45568W        W46432  21.665  20.661  13.440
45569W        W46433  21.702  18.797  13.098
45570W        W46434  18.330  21.562  12.617
45571W        W46435  18.337  20.796  11.922
45572W        W46436  18.666  18.612  14.649
45573W        W46437  19.795  21.238  14.500
45574W        W46438  21.792  20.093  12.478
45575W        W46439  20.981  20.405  11.226
45576W        W46440  20.330  21.810  13.369
45577W        W46441  21.096  20.515  14.495
45578W        W46442  19.986  18.207  11.706
45579W        W46443  20.380  19.296  12.520
45580W        W46444  18.255  20.727  12.911
45581W        W46445  19.560  18.514  11.741
45582W        W46446  19.423  20.173  14.268
45583W        W46447  20.361  19.025  11.885
45584W        W46448  20.625  20.678  13.303
45585W        W46449  18.739  21.268  13.537
45586W        W46450  19.319  21.201  14.343
45587W        W46451  19.372  18.715  11.307
45588W        W46452  20.735  18.931  11.531
45589W        W46453  20.570  21.215  13.926
45590W        W46454  19.320  19.758  12.642
45591W        W46455  19.045  21.634  13.343
45592W        W46456  21.556  21.559  10.967
45593W        W46457  18.524  20.349  14.124
45594W        W46458  20.154  20.555  12.959
45595W        W46459  19.311  20.468  11.873
45596W        W46460  19.386  21.260  13.407
45597W        W46461  19.908  18.614  12.510
45598W        W46462  17.914  20.657  11.019
45599W        W46463  20.106  19.485  10.936
45600W        W46464  18.601  20.193  12.297
45601W        W46465  19.633  18.723  13.871
45602W        W46466  21.448  18.490  11.091
45603W        W46467  21.500  20.295  14.223
45604W        W46468  20.155  21.578  14.354
45605W        W46469  21.770  20.681  13.944
45606W        W46470  21.228  21.341  14.426
45607W        W46471  19.038  21.893  12.888
45608W        W46472  21.837  20.405  12.080
45609W        W46473  20.528  19.775  12.342
45610W        W46474  20.112  18.187  12.227
45611W        W46475  19.189  21.303  12.168
45612W        W46476  19.686  19.152  13.337
45613W        W46477  19.455  18.479  12.773
45614W        W46478  18.313  21.451  11.288
45615W        W46479  20.090  20.510  12.282
45616W        W46480  19.154  21.307  13.855
45617W        W46481  17.969  20.625  11.542
45618W        W46482  18.422  18.905  12.775
45619W        W46483  19.756  20.696  12.629
45620W        W46484  18.172  18.469  11.795
45621W        W46485  21.005  19.746  13.516
45622W        W46486  20.708  19.127  11.037
45623W        W46487  21.409  20.706  12.946
45624W        W46488  19.983  21.136  12.763
45625W        W46489  19.356  21.610  11.774
45626W        W46490  20.631  18.314  10.832
45627W        W46491  18.636  21.616  13.020
45628W        W46492  20.338  19.356  14.491
45629W        W46493  18.624  19.123  14.473
45630W        W46494  18.280  19.421  11.958
45631W        W46495  19.894  19.500  11.407
45632W        W46496  20.656  19.725  14.360
45633W        W46497  19.310  20.047  13.063
45634W        W46498  20.622  18.320  12.223
45635W        W46499  19.854  21.633  12.642
45636W        W46500  21.012  21.200  13.441
45637W        W46501  20.725  21.243  12.612
45638W        W46502  20.569  20.335  12.222
45639W        W46503  19.975  18.668  11.438
45640W        W46504  21.777  18.362  12.206
45641W        W46505  19.602  19.540  10.929
45642W        W46506  21.491  19.156  12.224
45643W        W46507  20.284  20.383  10.997
45644W        W46508  21.279  20.544  13.838
45645W        W46509  21.294  21.170  11.201
45646W        W46510  19.506  19.016  14.284
45647W        W46511  19.408  19.602  13.417
45648W        W46512  21.394  21.018  13.744
45649W        W46513  20.459  18.963  13.926
45650W        W46514  18.182  19.534  13.823
45651W        W46515  20.202  19.971  13.618
45652W        W46516  18.411  20.664  12.414
45653W        W46517  18.539  19.894  13.138
45654W        W46518  20.892  20.279  13.530
45655W        W46519  20.735  21.562  14.270
45656W        W46520  20.540  19.460  13.855
45657W        W46521  21.107  21.477  12.357
45658W        W46522  19.871  21.259  13.620
45659W        W46523  19.338  21.485  12.930
45660W        W46524  21.150  20.707  13.379
45661W        W46525  20.075  20.791  14.502
45662W        W46526  18.777  20.625  12.768
45663W        W46527  21.175  20.442  12.552
45664W        W46528  20.733  21.440  13.092
45665W        W46529  18.938  21.182  13.071
45666W        W46530  19.889  19.343  14.252
45667W        W46531  20.050  21.383  11.813
45668W        W46532  19.572  20.711  14.352
45669W        W46533  19.575  21.147  11.834
45670W        W46534  18.912  19.402  10.644
45671W        W46535  18.158  21.987  18.027
45672W        W46536  18.694  20.803  17.515
45673W        W46537  21.536  20.267  15.501
45674W        W46538  21.628  21.592  17.391
45675W        W46539  19.221  21.574  14.706
45676W        W46540  19.527  19.619  15.711
45677W        W46541  19.107  19.449  16.106
45678W        W46542  19.987  20.274  15.396
45679W        W46543  19.727  21.506  17.597
45680W        W46544  18.313  19.022  17.598
45681W        W46545  18.917  18.274  17.497
45682W        W46546  20.775  18.664  16.269
45683W        W46547  20.557  19.595  14.907
45684W        W46548  20.852  19.198  17.946
45685W        W46549  18.436  18.690  17.228
45686W        W46550  18.362  21.546  18.190
45687W        W46551  19.628  20.870  14.845
45688W        W46552  18.325  19.345  16.636
45689W        W46553  19.385  19.528  17.799
45690W        W46554  21.551  19.177  16.350
45691W        W46555  21.516  20.322  17.182
45692W        W46556  19.973  19.670  16.227
45693W        W46557  20.524  20.946  16.500
45694W        W46558  18.687  20.241  16.869
45695W        W46559  18.126  19.800  16.501
45696W        W46560  19.336  19.942  17.446
45697W        W46561  21.641  19.676  17.862
45698W        W46562  19.119  20.996  16.284
45699W        W46563  20.274  20.816  17.275
45700W        W46564  19.625  19.492  16.582
45701W        W46565  19.823  20.201  16.302
45702W        W46566  20.498  21.167  17.987
45703W        W46567  19.997  20.285  18.067
45704W        W46568  19.984  20.093  17.537
45705W        W46569  18.188  19.313  17.991
45706W        W46570  20.997  21.010  17.744
45707W        W46571  18.642  18.412  15.721
45708W        W46572  19.398  20.848  16.691
45709W        W46573  21.647  20.685  16.252
45710W        W46574  21.104  19.018  16.567
45711W        W46575  21.147  18.959  14.517
45712W        W46576  21.602  19.785  17.123
45713W        W46577  19.813  21.157  16.671
45714W        W46578  21.624  21.082  15.100
45715W        W46579  18.562  21.670  15.297
45716W        W46580  19.006  21.637  15.723
45717W        W46581  18.893  18.519  17.031
45718W        W46582  21.426  19.309  17.293
45719W        W46583  20.836  19.779  15.763
45720W        W46584  20.938  19.917  14.795
45721W        W46585  20.126  20.765  16.758
45722W        W46586  19.985  18.987  16.063
45723W        W46587  20.542  21.118  16.987
45724W        W46588  21.307  19.973  15.919
45725W        W46589  20.378  18.524  15.442
45726W        W46590  18.834  21.238  15.446
45727W        W46591  18.321  18.810  15.848
45728W        W46592  20.884  19.383  16.235
45729W        W46593  18.595  21.056  16.411
45730W        W46594  19.602  21.368  14.968
45731W        W46595  21.114  19.501  14.527
45732W        W46596  18.382  21.099  16.909
45733W        W46597  19.217  20.888  17.171
45734W        W46598  19.451  20.235  15.904
45735W        W46599  19.318  18.706  16.816
45736W        W46600  21.826  18.343  16.484
45737W        W46601  18.973  20.367  14.441
45738W        W46602  18.638  19.015  14.980
45739W        W46603  18.775  21.051  15.920
45740W        W46604  19.440  20.740  15.977
45741W        W46605  21.164  21.495  17.606
45742W        W46606  20.295  19.179  15.087
45743W        W46607  21.501  21.620  16.242
45744W        W46608  21.168  19.513  17.685
45745W        W46609  21.909  21.061  15.988
45746W        W46610  20.500  20.347  17.333
45747W        W46611  18.142  19.966  15.596
45748W        W46612  19.190  20.407  16.886
45749W        W46613  20.430  19.537  15.444
45750W        W46614  20.377  20.003  15.659
45751W        W46615  18.667  19.469  17.053
45752W        W46616  18.699  19.425  17.751
45753W        W46617  18.530  18.421  16.228
45754W        W46618  20.276  18.760  16.466
45755W        W46619  20.112  18.833  17.827
45756W        W46620  20.445  18.707  14.935
45757W        W46621  21.703  21.373  17.854
45758W        W46622  20.471  18.409  17.771
45759W        W46623  21.461  20.847  17.961
45760W        W46624  21.089  18.959  17.527
45761W        W46625  20.779  18.748  15.739
45762W        W46626  21.179  19.901  18.030
45763W        W46627  18.865  21.460  16.207
45764W        W46628  19.786  19.199  15.166
45765W        W46629  19.170  18.549  17.870
45766W        W46630  21.176  18.997  15.532
45767W        W46631  21.479  19.370  15.387
45768W        W46632  19.265  21.669  17.818
45769W        W46633  19.158  18.282  15.218
45770W        W46634  21.589  18.683  16.159
45771W        W46635  21.693  21.217  14.593
45772W        W46636  18.471  20.203  16.409
45773W        W46637  20.476  18.847  14.438
45774W        W46638  21.773  21.225  16.462
45775W        W46639  21.550  18.370  16.946
45776W        W46640  20.255  19.654  17.618
45777W        W46641  19.945  20.793  15.260
45778W        W46642  20.737  20.057  18.248
45779W        W46643  20.395  18.284  16.312
45780W        W46644  18.782  19.235  16.444
45781W        W46645  18.457  20.375  17.299
45782W        W46646  20.494  21.465  16.138
45783W        W46647  21.411  19.427  16.789
45784W        W46648  20.271  21.616  17.464
45785W        W46649  21.315  20.167  15.053
45786W        W46650  19.890  19.973  15.826
45787W        W46651  21.739  18.306  17.448
45788W        W46652  20.036  20.403  17.133
45789W        W46653  20.089  19.252  16.506
45790W        W46654  20.927  19.458  15.308
45791W        W46655  21.174  19.156  14.994
45792W        W46656  21.269  21.280  15.432
45793W        W46657  21.107  20.724  16.317
45794W        W46658  20.760  19.940  15.273
45795W        W46659  20.319  20.070  16.186
45796W        W46660  21.194  20.220  16.346
45797W        W46661  18.631  18.983  16.863
45798W        W46662  21.346  19.983  17.536
45799W        W46663  21.711  21.638  16.744
45800W        W46664  19.601  21.170  16.201
45801W        W46665  20.770  21.614  17.268
45802W        W46666  20.564  18.948  17.116
45803W        W46667  19.887  21.733  17.146
45804W        W46668  21.544  18.618  15.637
45805W        W46669  21.244  19.985  16.806
45806W        W46670  18.229  19.183  17.111
45807W        W46671  21.143  18.973  16.050
45808W        W46672  21.549  19.174  17.767
45809W        W46673  20.663  20.752  16.048
45810W        W46674  19.803  21.516  15.867
45811W        W46675  18.708  18.523  15.156
45812W        W46676  20.000  18.392  16.718
45813W        W46677  18.719  21.696  14.799
45814W        W46678  19.525  20.051  15.415
45815W        W46679  19.936  20.605  17.605
45816W        W46680  19.925  18.656  15.675
45817W        W46681  21.154  18.460  15.956
45818W        W46682  20.938  21.713  16.336
45819W        W46683  20.268  21.390  16.619
45820W        W46684  19.703  20.419  16.766
45821W        W46685  21.545  21.246  17.024
45822W        W46686  19.096  18.625  15.627
45823W        W46687  19.775  20.723  16.363
45824W        W46688  19.089  18.938  14.605
45825W        W46689  19.983  19.464  16.984
45826W        W46690  20.754  18.367  16.703
45827W        W46691  18.167  20.209  16.838
45828W        W46692  19.811  20.043  14.916
45829W        W46693  19.182  18.453  14.713
45830W        W46694  20.019  19.422  15.778
45831W        W46695  20.748  18.527  17.350
45832W        W46696  19.507  20.452  17.307
45833W        W46697  20.414  20.148  17.797
45834W        W46698  20.903  20.198  17.718
45835W        W46699  20.174  18.479  18.203
45836W        W46700  19.287  19.097  16.476
45837W        W46701  18.794  18.883  16.028
45838W        W46702  18.503  21.486  15.805
45839W        W46703  20.097  21.137  17.642
45840W        W46704  19.224  20.658  15.118
45841W        W46705  20.792  19.889  16.306
45842W        W46706  20.903  19.581  16.714
45843W        W46707  20.251  20.260  16.682
45844W        W46708  20.630  20.747  14.649
45845W        W46709  20.345  18.638  15.956
45846W        W46710  21.843  18.990  15.376
45847W        W46711  18.398  21.583  17.665
45848W        W46712  18.741  20.721  17.022
45849W        W46713  18.111  21.683  15.507
45850W        W46714  20.089  18.927  16.923
45851W        W46715  19.110  21.171  15.008
45852W        W46716  21.292  21.442  14.940
45853W        W46717  20.286  19.969  15.111
45854W        W46718  19.637  19.079  15.653
45855W        W46719  20.000  19.020  14.685
45856W        W46720  20.507  20.711  17.716
45857W        W46721  21.090  18.483  15.407
45858W        W46722  18.318  18.274  14.936
45859W        W46723  19.751  20.845  17.090
45860W        W46724  19.354  20.424  16.383
45861W        W46725  19.136  20.819  14.627
45862W        W46726  18.281  21.174  15.459
45863W        W46727  18.963  19.877  17.798
45864W        W46728  19.651  18.533  18.092
45865W        W46729  20.209  18.636  17.355
45866W        W46730  19.512  18.342  15.801
45867W        W46731  20.702  18.283  15.107
45868W        W46732  18.481  18.499  16.750
45869W        W46733  18.396  19.261  16.100
45870W        W46734  21.245  18.496  16.503
45871W        W46735  18.672  18.907  15.494
45872W        W46736  21.081  18.679  16.976
45873W        W46737  21.320  19.640  14.987
45874W        W46738  18.892  18.728  16.511
45875W        W46739  20.184  19.182  17.398
45876W        W46740  18.185  18.766  14.936
45877W        W46741  18.976  20.326  17.343
45878W        W46742  20.395  19.682  16.565
45879W        W46743  20.014  21.656  14.883
45880W        W46744  18.239  20.230  14.562
45881W        W46745  19.189  20.700  17.645
45882W        W46746  18.646  19.891  17.369
45883W        W46747  19.705  20.020  17.109
45884W        W46748  21.227  18.353  17.377
45885W        W46749  21.870  20.077  17.486
45886W        W46750  21.725  19.832  15.283
45887W        W46751  20.497  20.394  15.335
45888W        W46752  21.052  21.778  14.621
45889W        W46753  20.286  19.803  18.144
45890W        W46754  18.831  20.809  18.007
45891W        W46755  21.883  18.818  18.020
45892W        W46756  21.268  19.697  16.364
45893W        W46757  19.678  21.693  18.118
45894W        W46758  19.644  18.353  14.945
45895W        W46759  21.205  20.949  14.765
45896W        W46760  19.099  19.063  17.769
45897W        W46761  19.599  21.005  17.547
45898W        W46762  21.511  18.806  17.229
45899W        W46763  20.882  21.729  15.104
45900W        W46764  21.084  20.472  16.774
45901W        W46765  19.196  18.754  17.361
45902W        W46766  19.823  19.791  17.926
45903W        W46767  19.106  20.806  15.594
45904W        W46768  21.024  20.317  15.488
45905W        W46769  18.772  19.076  17.358
45906W        W46770  19.815  21.002  15.752
45907W        W46771  21.660  19.590  16.073
45908W        W46772  19.954  18.356  17.724
45909W        W46773  20.966  20.968  16.755
45910W        W46774  21.270  21.368  16.610
45911W        W46775  20.108  21.140  14.892
45912W        W46776  18.360  21.085  17.944
45913W        W46777  19.103  19.177  16.969
45914W        W46778  19.063  18.443  16.112
45915W        W46779  20.596  19.157  16.634
45916W        W46780  19.445  20.380  14.738
45917W        W46781  21.590  20.379  16.669
45918W        W46782  18.793  21.266  17.737
45919W        W46783  21.330  21.799  15.552
45920W        W46784  19.474  18.786  16.073
45921W        W46785  18.977  20.089  16.461
45922W        W46786  19.515  21.796  16.811
45923W        W46787  21.443  21.806  17.914
45924W        W46788  20.698  20.044  16.850
45925W        W46789  18.520  19.629  14.590
45926W        W46790  21.629  21.428  15.773
45927W        W46791  21.442  18.770  15.148
45928W        W46792  19.461  18.319  17.500
45929W        W46793  21.403  21.117  16.142
45930W        W46794  21.224  19.457  15.836
45931W        W46795  19.606  19.307  16.117
45932W        W46796  19.771  19.625  17.432
45933W        W46797  20.816  20.762  17.306
45934W        W46798  19.460  19.206  17.399
45935W        W46799  19.353  21.619  16.128
45936W        W46800  18.794  21.727  17.978
45937W        W46801  18.842  21.268  14.540
45938W        W46802  21.547  20.907  15.673
45939W        W46803  19.049  19.519  17.392
45940W        W46804  21.614  19.060  14.725
45941W        W46805  19.554  20.559  15.507
45942W        W46806  20.659  19.871  17.371
45943W        W46807  20.501  19.480  17.034
45944W        W46808  19.028  19.900  17.015
45945W        W46809  21.227  21.688  17.023
45946W        W46810  20.985  18.532  17.862
45947W        W46811  18.696  18.692  17.681
45948W        W46812  19.115  19.584  16.614
45949W        W46813  19.561  19.359  14.661
45950W        W46814  18.295  21.134  17.427
45951W        W46815  19.931  19.879  16.684
45952W        W46816  19.544  18.856  14.850
45953W        W46817  19.024  19.951  15.966
45954W        W46818  18.424  21.646  17.144
45955W        W46819  21.239  19.836  15.447
45956W        W46820  21.489  18.665  17.722
45957W        W46821  21.058  20.954  15.802
45958W        W46822  18.419  19.863  17.849
45959W        W46823  21.562  18.285  15.178
45960W        W46824  21.301  20.692  15.258
45961W        W46825  19.937  19.718  15.369
45962W        W46826  20.971  18.679  14.910
45963W        W46827  20.996  19.195  17.044
45964W        W46828  18.532  19.753  16.147
45965W        W46829  18.993  20.496  16.022
45966W        W46830  20.758  19.258  15.742
45967W        W46831  19.753  18.841  16.517
45968W        W46832  21.797  20.812  17.112
45969W        W46833  21.679  18.811  16.697
45970W        W46834  18.316  21.477  16.279
45971W        W46835  18.629  20.667  15.635
45972W        W46836  18.714  18.538  18.159
45973W        W46837  19.751  21.202  18.028
45974W        W46838  21.687  20.167  16.205
45975W        W46839  20.872  20.411  14.978
45976W        W46840  20.379  21.736  16.974
45977W        W46841  21.012  20.560  18.067
45978W        W46842  19.858  18.234  15.404
45979W        W46843  20.479  19.092  16.131
45980W        W46844  18.368  20.646  16.661
45981W        W46845  19.527  18.644  15.355
45982W        W46846  19.564  20.252  17.782
45983W        W46847  20.306  19.024  15.602
45984W        W46848  20.591  20.593  16.889
45985W        W46849  18.759  21.239  17.224
45986W        W46850  19.250  21.146  17.936
45987W        W46851  19.108  18.820  15.118
45988W        W46852  20.731  18.971  15.278
45989W        W46853  20.587  21.194  17.487
45990W        W46854  19.473  19.816  16.203
45991W        W46855  19.064  21.590  16.997
45992W        W46856  21.602  21.721  14.651
45993W        W46857  18.679  20.335  17.769
45994W        W46858  20.700  20.391  16.435
45995W        W46859  19.055  20.296  15.550
45996W        W46860  19.546  21.334  17.075
45997W        W46861  19.906  18.490  16.169
45998W        W46862  18.259  20.672  15.271
45999W        W46863  20.009  19.556  14.856
46000W        W46864  18.580  20.194  15.883
46001W        W46865  19.700  18.679  17.185
46002W        W46866  21.443  18.557  14.670
46003W        W46867  21.473  20.309  17.920
46004W        W46868  20.159  21.591  17.961
46005W        W46869  21.745  20.595  17.578
46006W        W46870  21.254  21.331  18.099
46007W        W46871  19.065  21.804  16.529
46008W        W46872  21.836  20.495  15.832
46009W        W46873  20.442  19.593  16.023
46010W        W46874  20.149  18.174  15.838
46011W        W46875  19.281  21.219  15.814
46012W        W46876  19.610  19.115  16.921
46013W        W46877  19.528  18.362  16.481
46014W        W46878  18.568  21.239  14.993
46015W        W46879  19.909  20.498  15.882
46016W        W46880  19.212  21.330  17.447
46017W        W46881  18.530  20.236  15.373
46018W        W46882  18.365  18.868  16.408
46019W        W46883  20.242  20.572  16.275
46020W        W46884  18.267  18.549  15.394
46021W        W46885  21.088  19.684  17.190
46022W        W46886  20.723  19.135  14.772
46023W        W46887  21.462  20.883  16.668
46024W        W46888  20.109  21.097  16.215
46025W        W46889  19.466  21.563  15.468
46026W        W46890  20.603  18.360  14.593
46027W        W46891  18.635  21.500  16.683
46028W        W46892  20.352  19.284  17.973
46029W        W46893  18.639  19.044  18.075
46030W        W46894  18.361  19.477  15.641
46031W        W46895  19.518  19.640  15.090
46032W        W46896  20.720  19.715  17.850
46033W        W46897  19.430  19.988  16.681
46034W        W46898  20.675  18.252  15.861
46035W        W46899  19.801  21.597  16.401
46036W        W46900  21.052  21.211  17.194
46037W        W46901  20.910  21.196  16.281
46038W        W46902  20.824  20.261  15.954
46039W        W46903  19.983  18.714  15.137
46040W        W46904  21.881  18.293  15.926
46041W        W46905  19.327  19.854  14.653
46042W        W46906  21.594  19.105  15.835
46043W        W46907  20.237  20.415  14.848
46044W        W46908  21.222  20.572  17.573
46045W        W46909  20.817  21.323  14.741
46046W        W46910  19.608  18.812  17.681
46047W        W46911  19.434  19.588  17.043
46048W        W46912  21.478  21.067  17.500
46049W        W46913  20.573  18.906  17.634
46050W        W46914  18.285  19.521  17.478
46051W        W46915  20.227  19.920  17.104
46052W        W46916  18.525  20.629  16.145
46053W        W46917  18.624  19.771  16.656
46054W        W46918  21.005  20.243  17.219
46055W        W46919  20.690  21.637  17.794
46056W        W46920  20.722  19.361  17.469
46057W        W46921  21.125  21.478  15.904
46058W        W46922  20.070  21.262  17.122
46059W        W46923  19.340  21.371  16.588
46060W        W46924  21.291  20.773  17.122
46061W        W46925  20.097  20.811  18.051
46062W        W46926  18.876  20.610  16.529
46063W        W46927  21.309  20.495  15.904
46064W        W46928  20.789  21.477  16.753
46065W        W46929  18.954  21.104  16.770
46066W        W46930  19.859  19.282  17.801
46067W        W46931  19.939  21.337  15.360
46068W        W46932  19.585  20.719  17.981
46069W        W46933  19.488  21.052  15.352
46070W        W46934  19.024  19.447  14.533
46071W        W46935  18.224  21.925  21.630
46072W        W46936  18.704  20.817  21.202
46073W        W46937  21.141  20.219  18.883
46074W        W46938  21.745  21.511  20.923
46075W        W46939  19.225  21.509  18.326
46076W        W46940  19.521  19.766  19.380
46077W        W46941  19.067  19.418  19.736
46078W        W46942  20.149  20.000  19.000
46079W        W46943  19.684  21.518  21.147
46080W        W46944  18.286  18.993  21.258
46081W        W46945  18.927  18.219  21.100
46082W        W46946  20.841  18.670  19.958
46083W        W46947  20.382  19.148  18.488
46084W        W46948  20.967  19.008  21.619
46085W        W46949  18.402  18.676  20.865
46086W        W46950  18.484  21.501  21.787
46087W        W46951  19.759  20.869  18.457
46088W        W46952  18.347  19.372  20.305
46089W        W46953  19.454  19.577  21.404
46090W        W46954  21.560  19.142  20.020
46091W        W46955  21.764  20.290  20.818
46092W        W46956  19.941  19.701  19.860
46093W        W46957  20.519  21.129  20.218
46094W        W46958  18.765  20.287  20.569
46095W        W46959  18.149  19.839  20.204
46096W        W46960  19.359  19.977  21.065
46097W        W46961  21.576  19.701  21.483
46098W        W46962  19.122  21.026  20.004
46099W        W46963  20.375  20.917  20.934
46100W        W46964  19.631  19.416  20.201
46101W        W46965  19.752  20.205  19.989
46102W        W46966  20.669  21.195  21.707
46103W        W46967  20.136  20.158  21.715
46104W        W46968  20.087  20.164  21.162
46105W        W46969  17.894  19.240  21.495
46106W        W46970  21.054  21.054  21.375
46107W        W46971  18.699  18.481  19.357
46108W        W46972  19.215  20.827  20.494
46109W        W46973  21.572  20.671  19.860
46110W        W46974  21.177  18.922  20.326
46111W        W46975  21.256  18.936  18.107
46112W        W46976  21.900  19.783  20.831
46113W        W46977  19.784  21.395  20.388
46114W        W46978  21.625  20.962  18.882
46115W        W46979  18.662  21.756  19.001
46116W        W46980  19.067  21.755  19.348
46117W        W46981  18.901  18.576  20.693
46118W        W46982  21.512  19.440  21.018
46119W        W46983  20.893  19.948  19.611
46120W        W46984  20.695  19.534  18.315
46121W        W46985  20.116  20.898  20.455
46122W        W46986  20.036  19.119  19.731
46123W        W46987  20.560  21.332  20.692
46124W        W46988  21.356  20.106  19.377
46125W        W46989  20.457  18.579  19.126
46126W        W46990  18.882  21.306  19.125
46127W        W46991  18.365  18.865  19.452
46128W        W46992  20.813  19.618  19.997
46129W        W46993  18.604  21.111  20.082
46130W        W46994  19.666  21.375  18.538
46131W        W46995  21.210  19.435  18.214
46132W        W46996  18.389  21.188  20.548
46133W        W46997  19.100  21.055  20.948
46134W        W46998  19.382  20.257  19.642
46135W        W46999  19.335  18.686  20.413
46136W        W47000  21.727  18.284  20.172
46137W        W47001  19.144  20.392  18.051
46138W        W47002  18.750  19.151  18.579
46139W        W47003  18.795  21.093  19.602
46140W        W47004  19.466  20.822  19.682
46141W        W47005  21.300  21.496  21.191
46142W        W47006  20.151  19.277  18.946
46143W        W47007  21.530  21.835  19.806
46144W        W47008  21.133  19.438  21.397
46145W        W47009  21.730  20.942  19.418
46146W        W47010  20.487  20.428  21.003
46147W        W47011  18.345  19.881  19.375
46148W        W47012  19.262  20.373  20.723
46149W        W47013  20.490  19.642  19.166
46150W        W47014  20.452  20.106  19.391
46151W        W47015  18.699  19.446  20.727
46152W        W47016  18.714  19.423  21.252
46153W        W47017  18.570  18.431  19.855
46154W        W47018  20.352  18.833  20.155
46155W        W47019  20.129  18.863  21.411
46156W        W47020  20.610  19.024  18.934
46157W        W47021  21.725  21.355  21.451
46158W        W47022  20.455  18.441  21.446
46159W        W47023  21.499  20.819  21.538
46160W        W47024  21.115  18.974  21.130
46161W        W47025  20.874  18.886  19.444
46162W        W47026  21.120  19.955  21.455
46163W        W47027  18.892  21.517  19.894
46164W        W47028  19.712  19.162  18.707
46165W        W47029  19.105  18.612  21.399
46166W        W47030  21.101  19.148  19.059
46167W        W47031  21.460  19.562  19.247
46168W        W47032  19.420  21.919  21.406
46169W        W47033  19.137  18.474  19.060
46170W        W47034  21.365  18.734  19.821
46171W        W47035  21.701  21.121  18.340
46172W        W47036  18.483  20.246  20.136
46173W        W47037  20.578  18.801  18.132
46174W        W47038  21.728  21.188  19.901
46175W        W47039  21.758  18.288  20.712
46176W        W47040  20.199  19.728  21.406
46177W        W47041  19.965  20.685  18.923
46178W        W47042  20.812  19.983  21.859
46179W        W47043  20.392  18.332  20.002
46180W        W47044  18.800  19.233  20.124
46181W        W47045  18.480  20.429  20.967
46182W        W47046  20.323  21.526  19.795
46183W        W47047  21.605  19.261  20.514
46184W        W47048  20.344  21.710  20.996
46185W        W47049  21.288  20.248  18.396
46186W        W47050  19.912  20.084  19.480
46187W        W47051  21.758  18.513  21.188
46188W        W47052  20.031  20.529  20.797
46189W        W47053  20.158  19.325  20.201
46190W        W47054  21.016  19.790  19.133
46191W        W47055  21.366  19.410  18.708
46192W        W47056  21.280  21.167  19.206
46193W        W47057  20.886  20.865  19.967
46194W        W47058  20.666  19.999  18.816
46195W        W47059  20.252  20.160  19.868
46196W        W47060  21.213  19.973  20.180
46197W        W47061  18.612  18.982  20.516
46198W        W47062  21.465  19.984  21.075
46199W        W47063  21.773  21.551  20.285
46200W        W47064  19.599  21.295  19.865
46201W        W47065  20.858  21.667  20.972
46202W        W47066  20.745  18.880  20.752
46203W        W47067  19.911  21.792  20.726
46204W        W47068  21.330  18.671  19.297
46205W        W47069  21.434  19.742  20.600
46206W        W47070  18.241  19.188  20.790
46207W        W47071  21.033  19.145  19.886
46208W        W47072  21.535  19.142  21.458
46209W        W47073  20.413  20.933  19.747
46210W        W47074  19.739  21.525  19.439
46211W        W47075  18.810  18.600  18.669
46212W        W47076  20.020  18.481  20.356
46213W        W47077  18.767  21.718  18.493
46214W        W47078  19.703  20.214  18.869
46215W        W47079  20.078  20.674  21.283
46216W        W47080  20.019  18.774  19.334
46217W        W47081  21.224  18.288  19.658
46218W        W47082  21.096  21.916  20.081
46219W        W47083  20.265  21.567  20.335
46220W        W47084  19.686  20.495  20.426
46221W        W47085  21.532  21.197  20.577
46222W        W47086  19.200  18.912  19.340
46223W        W47087  19.620  20.937  20.204
46224W        W47088  19.080  18.867  18.288
46225W        W47089  19.955  19.444  20.657
46226W        W47090  20.783  18.423  20.441
46227W        W47091  18.237  20.195  20.598
46228W        W47092  19.846  19.922  18.436
46229W        W47093  19.179  18.345  18.349
46230W        W47094  20.016  19.567  19.367
46231W        W47095  20.905  18.489  21.171
46232W        W47096  19.603  20.477  21.104
46233W        W47097  20.579  20.181  21.437
46234W        W47098  20.949  20.210  21.055
46235W        W47099  20.036  18.486  21.812
46236W        W47100  19.288  19.057  20.048
46237W        W47101  18.815  18.924  19.692
46238W        W47102  18.575  21.557  19.482
46239W        W47103  20.121  21.215  21.364
46240W        W47104  19.437  20.676  18.833
46241W        W47105  20.731  20.126  20.072
46242W        W47106  20.864  19.756  20.500
46243W        W47107  20.144  20.277  20.357
46244W        W47108  20.489  20.500  18.175
46245W        W47109  20.430  18.742  19.648
46246W        W47110  21.616  19.068  19.038
46247W        W47111  18.525  21.683  21.290
46248W        W47112  18.699  20.801  20.682
46249W        W47113  18.194  21.659  19.152
46250W        W47114  20.199  18.984  20.629
46251W        W47115  19.242  21.166  18.764
46252W        W47116  21.574  21.494  18.925
46253W        W47117  20.304  19.660  18.643
46254W        W47118  19.704  19.176  19.230
46255W        W47119  19.955  18.924  18.303
46256W        W47120  20.584  20.769  21.408
46257W        W47121  20.971  18.654  18.923
46258W        W47122  18.246  18.329  18.558
46259W        W47123  19.668  20.921  20.735
46260W        W47124  19.319  20.517  20.085
46261W        W47125  19.244  20.838  18.352
46262W        W47126  18.367  21.159  19.179
46263W        W47127  18.996  19.839  21.381
46264W        W47128  19.543  18.372  21.577
46265W        W47129  20.343  18.569  20.945
46266W        W47130  19.671  18.370  19.457
46267W        W47131  20.527  18.628  18.609
46268W        W47132  18.480  18.521  20.385
46269W        W47133  18.435  19.302  19.766
46270W        W47134  21.240  18.421  20.208
46271W        W47135  18.736  18.933  19.086
46272W        W47136  21.208  18.595  20.728
46273W        W47137  21.568  19.785  18.361
46274W        W47138  18.894  18.720  20.157
46275W        W47139  20.205  19.276  21.084
46276W        W47140  18.371  18.823  18.481
46277W        W47141  18.951  20.314  21.130
46278W        W47142  20.373  19.795  20.235
46279W        W47143  20.057  21.735  18.475
46280W        W47144  18.082  19.782  18.257
46281W        W47145  19.209  20.753  21.343
46282W        W47146  18.617  19.910  20.991
46283W        W47147  19.725  20.113  20.751
46284W        W47148  21.346  18.242  21.076
46285W        W47149  21.932  20.061  21.275
46286W        W47150  21.527  19.903  18.873
46287W        W47151  20.449  20.439  18.988
46288W        W47152  21.018  21.815  18.189
46289W        W47153  20.377  19.701  21.899
46290W        W47154  18.807  20.823  21.703
46291W        W47155  21.828  18.771  21.706
46292W        W47156  21.205  19.447  20.250
46293W        W47157  19.830  21.614  21.625
46294W        W47158  19.534  18.284  18.727
46295W        W47159  21.320  20.757  18.462
46296W        W47160  19.184  19.131  21.353
46297W        W47161  19.659  21.000  21.244
46298W        W47162  21.579  18.928  20.921
46299W        W47163  21.203  21.800  18.676
46300W        W47164  21.028  20.492  20.292
46301W        W47165  19.303  18.834  20.942
46302W        W47166  19.828  19.723  21.783
46303W        W47167  19.134  20.856  19.259
46304W        W47168  20.895  20.358  19.289
46305W        W47169  18.800  18.983  21.007
46306W        W47170  19.928  21.010  19.552
46307W        W47171  21.655  19.636  20.118
46308W        W47172  19.966  18.405  21.299
46309W        W47173  20.986  21.253  20.395
46310W        W47174  21.319  21.448  20.075
46311W        W47175  20.137  21.233  18.365
46312W        W47176  18.352  21.036  21.553
46313W        W47177  19.098  19.144  20.558
46314W        W47178  19.115  18.485  19.670
46315W        W47179  20.736  19.198  20.325
46316W        W47180  19.575  20.378  18.372
46317W        W47181  21.565  20.474  20.343
46318W        W47182  18.820  21.270  21.426
46319W        W47183  21.449  21.864  19.293
46320W        W47184  19.585  18.840  19.662
46321W        W47185  18.974  20.124  20.026
46322W        W47186  19.517  21.855  20.395
46323W        W47187  21.443  21.830  21.554
46324W        W47188  20.647  20.224  20.569
46325W        W47189  18.559  19.541  18.253
46326W        W47190  21.664  21.450  19.467
46327W        W47191  21.359  18.880  18.629
46328W        W47192  19.462  18.348  21.048
46329W        W47193  21.275  21.076  19.703
46330W        W47194  21.288  19.627  19.748
46331W        W47195  19.581  19.354  19.696
46332W        W47196  19.822  19.718  21.068
46333W        W47197  20.913  20.712  21.030
46334W        W47198  19.631  19.239  21.064
46335W        W47199  19.370  21.741  19.811
46336W        W47200  18.936  21.767  21.595
46337W        W47201  18.784  21.253  18.260
46338W        W47202  21.323  20.636  19.407
46339W        W47203  19.152  19.470  20.984
46340W        W47204  21.684  19.244  18.271
46341W        W47205  19.649  20.535  19.300
46342W        W47206  20.572  19.866  21.012
46343W        W47207  20.460  19.472  20.654
46344W        W47208  19.035  19.877  20.691
46345W        W47209  21.277  21.632  20.663
46346W        W47210  20.923  18.498  21.708
46347W        W47211  18.584  18.538  21.316
46348W        W47212  19.131  19.593  20.265
46349W        W47213  19.503  19.099  18.120
46350W        W47214  18.288  21.080  21.046
46351W        W47215  19.859  19.844  20.336
46352W        W47216  19.521  18.737  18.521
46353W        W47217  19.018  19.897  19.555
46354W        W47218  18.555  21.888  20.819
46355W        W47219  21.080  19.813  18.557
46356W        W47220  21.355  18.652  21.473
46357W        W47221  20.864  20.865  19.439
46358W        W47222  18.497  19.833  21.498
46359W        W47223  21.366  18.351  18.686
46360W        W47224  21.121  20.734  18.946
46361W        W47225  19.789  19.647  18.885
46362W        W47226  20.993  18.604  18.395
46363W        W47227  21.109  19.272  20.714
46364W        W47228  18.565  19.794  19.860
46365W        W47229  18.989  20.609  19.704
46366W        W47230  20.867  19.423  19.477
46367W        W47231  19.796  18.921  20.152
46368W        W47232  21.811  20.791  20.755
46369W        W47233  21.649  18.734  20.431
46370W        W47234  18.321  21.549  19.924
46371W        W47235  18.628  20.702  19.327
46372W        W47236  18.668  18.585  21.857
46373W        W47237  19.761  21.110  21.756
46374W        W47238  21.583  20.101  19.860
46375W        W47239  20.822  20.459  18.572
46376W        W47240  20.350  22.025  20.562
46377W        W47241  21.031  20.486  21.495
46378W        W47242  19.964  18.327  19.026
46379W        W47243  20.533  19.208  19.855
46380W        W47244  18.316  20.704  20.303
46381W        W47245  19.599  18.707  19.039
46382W        W47246  19.682  20.067  21.443
46383W        W47247  20.402  19.175  19.372
46384W        W47248  20.743  20.828  20.570
46385W        W47249  18.695  21.380  20.918
46386W        W47250  19.348  21.313  21.531
46387W        W47251  19.183  18.960  18.818
46388W        W47252  20.792  19.475  18.803
46389W        W47253  20.613  21.286  21.208
46390W        W47254  19.422  19.805  19.896
46391W        W47255  19.020  21.709  20.658
46392W        W47256  21.614  21.621  18.397
46393W        W47257  18.540  20.375  21.480
46394W        W47258  20.493  20.599  20.183
46395W        W47259  19.047  20.346  19.261
46396W        W47260  19.418  21.390  20.727
46397W        W47261  19.988  18.584  19.833
46398W        W47262  18.304  20.661  18.923
46399W        W47263  19.968  19.430  18.307
46400W        W47264  18.639  20.238  19.605
46401W        W47265  19.836  18.767  20.954
46402W        W47266  21.510  18.516  18.222
46403W        W47267  21.528  20.263  21.531
46404W        W47268  20.359  21.673  21.511
46405W        W47269  21.891  20.599  21.231
46406W        W47270  21.292  21.341  21.717
46407W        W47271  19.039  21.919  20.196
46408W        W47272  21.796  20.426  19.495
46409W        W47273  20.421  19.682  19.681
46410W        W47274  20.213  18.296  19.486
46411W        W47275  19.255  21.303  19.500
46412W        W47276  19.607  19.081  20.590
46413W        W47277  19.535  18.418  19.983
46414W        W47278  18.427  21.379  18.704
46415W        W47279  20.163  20.540  19.471
46416W        W47280  19.147  21.544  21.135
46417W        W47281  18.563  20.244  19.088
46418W        W47282  18.388  18.881  20.033
46419W        W47283  20.009  20.652  19.977
46420W        W47284  18.340  18.622  18.980
46421W        W47285  21.060  19.715  20.972
46422W        W47286  20.904  19.091  18.486
46423W        W47287  21.335  20.935  20.200
46424W        W47288  20.054  21.170  20.028
46425W        W47289  19.451  21.567  19.019
46426W        W47290  20.633  18.258  18.240
46427W        W47291  18.603  21.637  20.347
46428W        W47292  20.417  19.268  21.588
46429W        W47293  18.716  18.984  21.527
46430W        W47294  18.442  19.363  19.263
46431W        W47295  19.481  19.527  18.426
46432W        W47296  20.695  19.678  21.463
46433W        W47297  19.386  20.057  20.343
46434W        W47298  20.747  18.360  19.503
46435W        W47299  19.867  21.732  19.994
46436W        W47300  21.037  21.185  20.882
46437W        W47301  20.796  21.501  19.990
46438W        W47302  20.635  20.472  19.708
46439W        W47303  20.071  18.785  18.797
46440W        W47304  21.719  18.362  19.628
46441W        W47305  19.373  19.933  18.136
46442W        W47306  21.356  19.146  19.508
46443W        W47307  20.284  20.184  18.523
46444W        W47308  21.389  20.512  21.104
46445W        W47309  21.259  21.250  18.616
46446W        W47310  19.611  18.862  21.438
46447W        W47311  19.492  19.642  20.654
46448W        W47312  21.504  21.037  21.077
46449W        W47313  20.609  18.896  21.266
46450W        W47314  18.221  19.518  21.189
46451W        W47315  20.187  19.915  20.714
46452W        W47316  18.489  20.659  19.823
46453W        W47317  18.643  19.811  20.369
46454W        W47318  21.254  20.215  20.657
46455W        W47319  20.914  21.625  21.507
46456W        W47320  20.727  19.343  21.072
46457W        W47321  21.135  21.581  19.598
46458W        W47322  20.039  21.293  20.833
46459W        W47323  19.284  21.447  20.232
46460W        W47324  21.275  20.758  20.673
46461W        W47325  20.206  20.831  21.754
46462W        W47326  18.830  20.641  20.201
46463W        W47327  21.136  20.370  19.804
46464W        W47328  20.783  21.746  20.460
46465W        W47329  18.907  21.230  20.477
46466W        W47330  19.899  19.311  21.497
46467W        W47331  19.950  21.379  18.964
46468W        W47332  19.680  20.597  21.601
46469W        W47333  19.591  21.063  19.162
46470W        W47334  19.045  19.385  18.167
46471W        W47335  18.298  21.997  25.338
46472W        W47336  18.675  20.829  24.861
46473W        W47337  21.496  20.454  23.085
46474W        W47338  21.766  21.568  24.734
46475W        W47339  19.365  21.700  21.875
46476W        W47340  19.522  19.833  23.204
46477W        W47341  19.004  19.485  23.526
46478W        W47342  20.226  20.022  22.686
46479W        W47343  19.675  21.572  24.837
46480W        W47344  18.238  19.020  25.022
46481W        W47345  18.935  18.233  24.969
46482W        W47346  20.694  18.705  23.630
46483W        W47347  20.467  19.203  22.110
46484W        W47348  20.949  19.174  25.111
46485W        W47349  18.354  18.745  24.608
46486W        W47350  18.433  21.515  25.480
46487W        W47351  19.496  21.126  22.243
46488W        W47352  18.228  19.475  23.985
46489W        W47353  19.343  19.569  25.162
46490W        W47354  21.497  19.007  23.752
46491W        W47355  21.445  20.332  24.434
46492W        W47356  19.856  19.777  23.616
46493W        W47357  20.516  21.139  23.924
46494W        W47358  18.789  20.364  24.173
46495W        W47359  18.052  19.965  23.945
46496W        W47360  19.258  19.990  24.842
46497W        W47361  21.460  19.728  25.118
46498W        W47362  19.058  21.101  23.661
46499W        W47363  20.282  20.935  24.683
46500W        W47364  19.485  19.414  23.992
46501W        W47365  19.660  20.265  23.789
46502W        W47366  20.387  21.173  25.437
46503W        W47367  19.874  20.324  25.453
46504W        W47368  19.816  20.179  24.965
46505W        W47369  18.106  19.370  25.358
46506W        W47370  21.065  21.078  25.152
46507W        W47371  18.688  18.510  23.027
46508W        W47372  19.361  21.012  24.074
46509W        W47373  21.738  20.691  23.589
46510W        W47374  20.997  19.065  23.909
46511W        W47375  21.382  18.945  21.929
46512W        W47376  21.825  19.718  24.328
46513W        W47377  19.698  21.701  24.033
46514W        W47378  21.715  21.191  22.571
46515W        W47379  18.663  21.797  22.626
46516W        W47380  19.092  21.796  23.081
46517W        W47381  18.820  18.492  24.528
46518W        W47382  21.394  19.688  24.589
46519W        W47383  20.814  19.826  23.239
46520W        W47384  20.955  19.730  22.293
46521W        W47385  20.158  20.802  24.181
46522W        W47386  19.918  19.034  23.410
46523W        W47387  20.552  21.302  24.431
46524W        W47388  21.311  19.940  23.141
46525W        W47389  20.298  18.610  22.784
46526W        W47390  18.915  21.389  22.821
46527W        W47391  18.315  18.830  23.165
46528W        W47392  20.822  19.459  23.611
46529W        W47393  18.561  21.231  23.742
46530W        W47394  19.778  21.531  22.130
46531W        W47395  20.850  19.439  21.882
46532W        W47396  18.356  21.267  24.251
46533W        W47397  19.175  20.960  24.565
46534W        W47398  19.324  20.295  23.400
46535W        W47399  19.151  18.753  24.167
46536W        W47400  21.667  18.350  23.851
46537W        W47401  19.239  20.287  21.565
46538W        W47402  18.637  19.065  22.040
46539W        W47403  18.724  21.147  23.255
46540W        W47404  19.394  20.817  23.398
46541W        W47405  21.304  21.554  24.994
46542W        W47406  20.170  19.101  22.515
46543W        W47407  21.400  21.868  23.567
46544W        W47408  20.992  19.666  24.918
46545W        W47409  21.978  21.172  23.424
46546W        W47410  20.457  20.455  24.626
46547W        W47411  18.249  19.891  23.114
46548W        W47412  19.145  20.428  24.529
46549W        W47413  20.402  19.633  22.963
46550W        W47414  20.474  20.189  23.122
46551W        W47415  18.650  19.515  24.362
46552W        W47416  18.603  19.452  25.155
46553W        W47417  18.487  18.440  23.498
46554W        W47418  20.184  18.816  23.830
46555W        W47419  20.027  18.874  25.104
46556W        W47420  20.479  18.709  22.303
46557W        W47421  21.771  21.370  25.218
46558W        W47422  20.413  18.525  25.079
46559W        W47423  21.533  20.882  25.313
46560W        W47424  21.052  18.881  24.701
46561W        W47425  20.720  18.789  23.056
46562W        W47426  21.109  20.079  25.371
46563W        W47427  18.877  21.614  23.536
46564W        W47428  19.665  19.101  22.323
46565W        W47429  19.185  18.648  25.120
46566W        W47430  21.145  19.058  22.874
46567W        W47431  21.501  19.524  22.854
46568W        W47432  19.337  21.749  25.211
46569W        W47433  19.117  18.347  22.532
46570W        W47434  21.545  18.628  23.428
46571W        W47435  21.708  21.100  21.935
46572W        W47436  18.406  20.361  23.803
46573W        W47437  20.506  18.800  21.794
46574W        W47438  21.796  21.123  23.900
46575W        W47439  21.673  18.329  24.406
46576W        W47440  20.159  19.777  25.044
46577W        W47441  20.051  20.451  22.905
46578W        W47442  20.623  20.325  25.488
46579W        W47443  20.306  18.327  23.674
46580W        W47444  18.706  19.276  23.895
46581W        W47445  18.623  20.346  24.667
46582W        W47446  20.488  21.580  23.579
46583W        W47447  21.353  19.258  24.258
46584W        W47448  20.361  21.697  24.743
46585W        W47449  21.323  19.959  21.935
46586W        W47450  20.013  20.000  23.178
46587W        W47451  21.870  18.326  24.910
46588W        W47452  19.958  20.506  24.588
46589W        W47453  19.992  19.320  23.843
46590W        W47454  20.995  19.545  22.781
46591W        W47455  21.209  19.267  22.385
46592W        W47456  21.329  21.353  22.880
46593W        W47457  20.916  20.805  23.790
46594W        W47458  20.731  19.963  22.714
46595W        W47459  20.224  20.172  23.635
46596W        W47460  21.168  19.956  23.633
46597W        W47461  18.688  18.953  24.286
46598W        W47462  21.236  20.108  24.847
46599W        W47463  21.821  21.646  24.212
46600W        W47464  19.573  21.261  23.627
46601W        W47465  20.835  21.744  24.539
46602W        W47466  20.693  18.879  24.291
46603W        W47467  19.912  21.892  24.483
46604W        W47468  21.450  18.643  22.928
46605W        W47469  21.353  19.893  24.122
46606W        W47470  18.234  19.225  24.448
46607W        W47471  21.083  18.969  23.403
46608W        W47472  21.402  19.245  24.822
46609W        W47473  20.229  20.720  23.646
46610W        W47474  19.714  21.523  23.152
46611W        W47475  18.696  18.624  22.379
46612W        W47476  19.899  18.398  24.031
46613W        W47477  18.811  21.762  22.119
46614W        W47478  19.715  20.047  22.752
46615W        W47479  19.995  20.715  25.070
46616W        W47480  19.864  18.685  23.043
46617W        W47481  21.082  18.459  23.270
46618W        W47482  20.903  21.937  23.710
46619W        W47483  20.204  21.572  24.029
46620W        W47484  19.580  20.558  24.220
46621W        W47485  21.565  21.214  24.352
46622W        W47486  19.126  18.735  22.936
46623W        W47487  19.837  21.204  24.068
46624W        W47488  19.124  18.921  21.818
46625W        W47489  19.865  19.471  24.356
46626W        W47490  20.886  18.348  24.182
46627W        W47491  18.280  20.315  24.296
46628W        W47492  20.007  19.935  22.227
46629W        W47493  19.176  18.416  21.943
46630W        W47494  19.953  19.492  23.187
46631W        W47495  20.687  18.495  24.648
46632W        W47496  19.507  20.583  24.847
46633W        W47497  20.295  20.279  25.097
46634W        W47498  20.810  20.341  25.006
46635W        W47499  20.086  18.565  25.508
46636W        W47500  19.168  19.055  23.755
46637W        W47501  18.795  18.962  23.339
46638W        W47502  18.539  21.608  23.113
46639W        W47503  20.086  21.290  25.009
46640W        W47504  19.001  21.090  22.414
46641W        W47505  20.680  19.921  23.815
46642W        W47506  20.949  19.559  24.088
46643W        W47507  20.054  20.284  24.125
46644W        W47508  20.633  20.480  21.860
46645W        W47509  20.289  18.695  23.320
46646W        W47510  21.650  19.049  22.673
46647W        W47511  18.471  21.659  24.948
46648W        W47512  18.563  20.799  24.369
46649W        W47513  18.173  21.679  22.714
46650W        W47514  20.168  19.049  24.312
46651W        W47515  19.232  21.558  22.357
46652W        W47516  21.472  21.656  22.480
46653W        W47517  20.451  19.598  22.439
46654W        W47518  19.757  19.141  22.852
46655W        W47519  20.030  18.997  21.903
46656W        W47520  20.517  20.750  25.167
46657W        W47521  20.987  18.474  22.745
46658W        W47522  18.293  18.323  22.220
46659W        W47523  19.725  20.959  24.506
46660W        W47524  19.228  20.573  23.834
46661W        W47525  19.301  20.884  21.832
46662W        W47526  18.416  21.212  22.791
46663W        W47527  18.911  19.890  25.212
46664W        W47528  19.637  18.549  25.285
46665W        W47529  20.162  18.632  24.637
46666W        W47530  19.464  18.373  23.104
46667W        W47531  20.565  18.236  22.514
46668W        W47532  18.449  18.504  24.173
46669W        W47533  18.349  19.216  23.528
46670W        W47534  21.176  18.567  23.775
46671W        W47535  18.632  18.962  22.779
46672W        W47536  21.229  18.733  24.257
46673W        W47537  21.358  19.448  21.879
46674W        W47538  18.752  18.744  23.818
46675W        W47539  20.072  19.279  24.780
46676W        W47540  18.210  18.819  22.266
46677W        W47541  18.986  20.411  25.027
46678W        W47542  20.213  19.760  24.003
46679W        W47543  20.161  21.856  21.994
46680W        W47544  18.282  20.085  21.889
46681W        W47545  19.141  20.902  25.088
46682W        W47546  18.572  19.843  24.808
46683W        W47547  19.598  20.146  24.508
46684W        W47548  21.199  18.379  24.665
46685W        W47549  21.759  20.053  24.749
46686W        W47550  21.494  19.681  22.345
46687W        W47551  20.556  20.434  22.656
46688W        W47552  21.155  21.772  21.986
46689W        W47553  20.222  19.964  25.525
46690W        W47554  18.716  20.747  25.361
46691W        W47555  21.836  18.681  25.316
46692W        W47556  21.354  19.492  23.768
46693W        W47557  19.803  21.598  25.352
46694W        W47558  19.581  18.334  22.276
46695W        W47559  21.069  20.872  21.857
46696W        W47560  19.029  19.151  25.089
46697W        W47561  19.613  21.082  24.983
46698W        W47562  21.562  18.747  24.696
46699W        W47563  20.972  22.083  22.838
46700W        W47564  21.041  20.312  24.007
46701W        W47565  19.119  18.880  24.664
46702W        W47566  19.740  19.830  25.352
46703W        W47567  19.082  20.895  22.972
46704W        W47568  20.980  20.316  23.027
46705W        W47569  18.653  19.170  24.739
46706W        W47570  19.837  20.996  23.239
46707W        W47571  21.671  19.617  23.356
46708W        W47572  19.962  18.302  25.015
46709W        W47573  21.040  21.189  24.143
46710W        W47574  21.414  21.486  23.921
46711W        W47575  20.203  21.345  21.878
46712W        W47576  18.302  21.034  25.257
46713W        W47577  19.104  19.256  24.311
46714W        W47578  19.028  18.499  23.432
46715W        W47579  20.505  19.297  24.000
46716W        W47580  19.650  20.195  21.942
46717W        W47581  21.573  20.319  23.938
46718W        W47582  18.760  21.267  25.140
46719W        W47583  21.434  21.912  23.002
46720W        W47584  19.437  18.830  23.362
46721W        W47585  18.904  20.166  23.717
46722W        W47586  19.398  21.989  24.331
46723W        W47587  21.665  21.883  25.166
46724W        W47588  20.514  20.073  24.274
46725W        W47589  18.377  19.357  21.662
46726W        W47590  21.593  21.485  23.292
46727W        W47591  21.292  18.764  22.431
46728W        W47592  19.446  18.256  24.813
46729W        W47593  21.389  21.088  23.573
46730W        W47594  21.190  19.465  23.267
46731W        W47595  19.530  19.367  23.487
46732W        W47596  19.709  19.699  24.815
46733W        W47597  20.818  20.824  24.776
46734W        W47598  19.445  19.271  24.741
46735W        W47599  19.404  21.732  23.513
46736W        W47600  18.835  21.798  25.270
46737W        W47601  18.995  21.317  21.923
46738W        W47602  21.622  20.982  23.127
46739W        W47603  18.997  19.548  24.766
46740W        W47604  21.731  19.239  22.176
46741W        W47605  19.510  20.536  22.973
46742W        W47606  20.551  19.952  24.758
46743W        W47607  20.402  19.547  24.450
46744W        W47608  18.916  19.956  24.451
46745W        W47609  21.334  21.658  24.443
46746W        W47610  20.909  18.637  25.116
46747W        W47611  18.703  18.735  24.991
46748W        W47612  19.012  19.678  24.019
46749W        W47613  19.518  19.272  21.838
46750W        W47614  18.282  21.159  24.761
46751W        W47615  19.718  19.874  24.097
46752W        W47616  19.590  18.739  21.951
46753W        W47617  18.972  19.933  23.268
46754W        W47618  18.539  21.860  24.487
46755W        W47619  21.241  20.006  22.649
46756W        W47620  21.373  18.877  25.169
46757W        W47621  21.127  20.822  23.199
46758W        W47622  18.301  19.854  25.269
46759W        W47623  21.518  18.303  22.470
46760W        W47624  21.360  20.826  22.715
46761W        W47625  19.965  19.576  22.652
46762W        W47626  20.941  18.448  22.223
46763W        W47627  20.877  19.333  24.546
46764W        W47628  18.549  19.772  23.564
46765W        W47629  18.919  20.641  23.417
46766W        W47630  20.734  19.288  23.133
46767W        W47631  19.660  18.913  23.838
46768W        W47632  21.762  20.745  24.387
46769W        W47633  21.719  18.773  24.150
46770W        W47634  18.308  21.683  23.572
46771W        W47635  18.569  20.719  22.985
46772W        W47636  18.796  18.480  25.432
46773W        W47637  19.882  21.088  25.443
46774W        W47638  21.641  20.140  23.469
46775W        W47639  20.975  20.258  22.277
46776W        W47640  20.412  21.960  24.294
46777W        W47641  21.073  20.595  25.384
46778W        W47642  19.850  18.271  22.721
46779W        W47643  20.409  19.160  23.511
46780W        W47644  18.248  20.840  23.949
46781W        W47645  19.549  18.686  22.648
46782W        W47646  19.401  20.220  25.270
46783W        W47647  20.266  19.105  23.011
46784W        W47648  20.698  20.814  24.287
46785W        W47649  18.738  21.321  24.627
46786W        W47650  19.379  21.231  25.415
46787W        W47651  19.191  18.805  22.307
46788W        W47652  20.691  19.131  22.607
46789W        W47653  20.604  21.275  24.958
46790W        W47654  19.350  19.851  23.686
46791W        W47655  19.000  21.664  24.354
46792W        W47656  21.667  21.604  21.990
46793W        W47657  18.472  20.328  25.160
46794W        W47658  20.536  20.460  23.957
46795W        W47659  18.990  20.376  22.992
46796W        W47660  19.460  21.408  24.400
46797W        W47661  19.828  18.518  23.528
46798W        W47662  18.214  20.505  22.498
46799W        W47663  20.021  19.432  22.153
46800W        W47664  18.554  20.275  23.320
46801W        W47665  19.634  18.736  24.783
46802W        W47666  21.404  18.445  21.975
46803W        W47667  21.587  20.252  25.205
46804W        W47668  20.340  21.660  25.260
46805W        W47669  21.810  20.612  24.884
46806W        W47670  21.333  21.390  25.496
46807W        W47671  19.025  21.988  23.940
46808W        W47672  22.000  20.407  23.238
46809W        W47673  20.354  19.680  23.482
46810W        W47674  20.094  18.241  23.187
46811W        W47675  19.231  21.321  23.238
46812W        W47676  19.593  19.007  24.332
46813W        W47677  19.391  18.470  23.802
46814W        W47678  18.431  21.438  22.313
46815W        W47679  19.841  20.475  23.371
46816W        W47680  19.190  21.391  24.867
46817W        W47681  18.521  20.216  22.809
46818W        W47682  18.261  18.948  23.963
46819W        W47683  19.739  20.787  23.783
46820W        W47684  18.288  18.567  22.715
46821W        W47685  20.955  19.898  24.456
46822W        W47686  20.904  18.948  22.123
46823W        W47687  21.400  20.796  23.992
46824W        W47688  20.093  21.230  23.629
46825W        W47689  19.485  21.784  22.751
46826W        W47690  20.513  18.283  21.944
46827W        W47691  18.612  21.672  24.001
46828W        W47692  20.421  19.472  25.461
46829W        W47693  18.636  19.011  25.424
46830W        W47694  18.392  19.374  23.039
46831W        W47695  19.570  19.642  22.242
46832W        W47696  20.647  19.881  25.237
46833W        W47697  19.263  20.133  24.111
46834W        W47698  20.601  18.298  23.204
46835W        W47699  19.942  21.730  23.589
46836W        W47700  21.036  21.276  24.652
46837W        W47701  20.960  21.364  23.663
46838W        W47702  20.781  20.324  23.518
46839W        W47703  19.964  18.674  22.328
46840W        W47704  21.824  18.306  23.153
46841W        W47705  19.309  19.822  21.817
46842W        W47706  21.541  19.111  23.212
46843W        W47707  20.497  20.084  22.246
46844W        W47708  21.283  20.609  24.919
46845W        W47709  21.303  21.241  22.227
46846W        W47710  19.526  19.047  25.200
46847W        W47711  19.365  19.689  24.421
46848W        W47712  21.490  21.088  24.844
46849W        W47713  20.533  18.967  24.791
46850W        W47714  18.166  19.530  24.866
46851W        W47715  20.074  19.953  24.535
46852W        W47716  18.440  20.773  23.480
46853W        W47717  18.556  19.921  24.056
46854W        W47718  20.944  20.400  24.507
46855W        W47719  20.821  21.762  25.049
46856W        W47720  20.535  19.447  24.955
46857W        W47721  21.056  21.665  23.247
46858W        W47722  20.033  21.381  24.500
46859W        W47723  19.227  21.506  23.931
46860W        W47724  21.231  20.827  24.464
46861W        W47725  20.208  20.681  25.570
46862W        W47726  18.751  20.767  23.885
46863W        W47727  21.266  20.485  23.560
46864W        W47728  20.723  21.608  24.055
46865W        W47729  18.877  21.192  24.154
46866W        W47730  19.925  19.366  25.264
46867W        W47731  19.871  21.468  22.638
46868W        W47732  19.560  20.708  25.347
46869W        W47733  19.412  21.255  22.758
46870W        W47734  18.962  19.421  21.714
46871W        W47735  18.374  21.981  28.822
46872W        W47736  18.705  20.807  28.535
46873W        W47737  21.233  20.118  26.275
46874W        W47738  21.689  21.570  28.122
46875W        W47739  19.259  21.607  25.727
46876W        W47740  19.595  19.666  26.597
46877W        W47741  18.984  19.460  26.846
46878W        W47742  19.853  20.055  26.340
46879W        W47743  19.791  21.501  28.231
46880W        W47744  18.489  19.053  28.521
46881W        W47745  18.901  18.296  28.259
46882W        W47746  20.827  18.682  27.251
46883W        W47747  20.437  19.447  25.979
46884W        W47748  20.989  18.960  28.725
46885W        W47749  18.553  18.690  28.116
46886W        W47750  18.481  21.172  28.816
46887W        W47751  19.666  20.838  25.868
46888W        W47752  18.489  19.478  27.562
46889W        W47753  19.326  19.489  28.839
46890W        W47754  21.644  19.216  27.311
46891W        W47755  21.532  20.296  28.069
46892W        W47756  19.904  19.525  26.991
46893W        W47757  20.468  21.068  27.617
46894W        W47758  18.812  20.417  27.896
46895W        W47759  18.037  19.888  27.529
46896W        W47760  19.446  19.798  28.442
46897W        W47761  21.574  19.676  28.710
46898W        W47762  19.053  21.153  27.261
46899W        W47763  20.438  20.888  28.300
46900W        W47764  19.599  19.351  27.464
46901W        W47765  19.579  20.262  27.197
46902W        W47766  20.899  21.094  28.985
46903W        W47767  19.879  20.338  28.892
46904W        W47768  19.885  20.091  28.457
46905W        W47769  18.349  19.305  28.970
46906W        W47770  21.301  20.891  28.736
46907W        W47771  18.742  18.553  26.756
46908W        W47772  19.098  20.873  27.718
46909W        W47773  21.763  20.601  27.178
46910W        W47774  20.900  19.003  27.640
46911W        W47775  21.352  19.204  25.583
46912W        W47776  21.866  19.786  27.917
46913W        W47777  19.829  21.514  27.710
46914W        W47778  21.648  20.945  26.345
46915W        W47779  18.729  22.000  26.232
46916W        W47780  19.052  21.730  26.578
46917W        W47781  19.045  18.596  27.865
46918W        W47782  21.538  19.461  28.167
46919W        W47783  20.644  19.982  26.769
46920W        W47784  20.682  19.852  25.740
46921W        W47785  20.178  20.687  27.894
46922W        W47786  19.892  18.994  27.060
46923W        W47787  20.660  21.302  28.046
46924W        W47788  21.152  19.951  26.748
46925W        W47789  20.522  18.667  26.364
46926W        W47790  18.909  21.496  26.144
46927W        W47791  18.422  18.960  26.751
46928W        W47792  21.051  19.447  27.432
46929W        W47793  18.488  20.933  27.062
46930W        W47794  19.697  21.372  25.840
46931W        W47795  21.034  19.578  25.421
46932W        W47796  18.325  21.317  27.924
46933W        W47797  19.093  20.981  28.236
46934W        W47798  19.500  20.158  26.701
46935W        W47799  19.619  18.624  27.944
46936W        W47800  21.805  18.422  27.414
46937W        W47801  18.971  20.306  25.541
46938W        W47802  18.816  19.179  25.930
46939W        W47803  18.800  21.276  26.820
46940W        W47804  19.459  20.655  26.783
46941W        W47805  21.159  21.369  28.586
46942W        W47806  20.257  19.104  26.317
46943W        W47807  21.462  21.730  27.126
46944W        W47808  21.135  19.521  28.483
46945W        W47809  21.950  21.062  26.867
46946W        W47810  20.472  20.372  28.250
46947W        W47811  18.176  19.912  26.654
46948W        W47812  19.298  20.539  28.062
46949W        W47813  20.511  19.566  26.476
46950W        W47814  20.330  20.275  26.445
46951W        W47815  18.945  19.445  27.798
46952W        W47816  18.817  19.406  28.785
46953W        W47817  18.651  18.250  27.159
46954W        W47818  20.399  18.803  27.546
46955W        W47819  20.102  18.943  28.822
46956W        W47820  20.551  18.934  25.878
46957W        W47821  21.758  21.136  28.751
46958W        W47822  20.556  18.304  28.712
46959W        W47823  21.698  20.666   0.003
46960W        W47824  21.140  19.063  28.253
46961W        W47825  20.770  18.937  26.771
46962W        W47826  21.193  19.924  28.971
46963W        W47827  19.816  19.161  26.054
46964W        W47828  19.183  18.430  28.734
46965W        W47829  21.221  19.150  26.533
46966W        W47830  21.495  19.617  26.526
46967W        W47831  19.298  21.688  28.791
46968W        W47832  19.280  18.342  26.131
46969W        W47833  21.640  18.776  27.056
46970W        W47834  21.759  21.160  25.722
46971W        W47835  18.492  20.110  27.349
46972W        W47836  20.509  18.975  25.316
46973W        W47837  21.660  21.175  27.287
46974W        W47838  21.667  18.476  27.905
46975W        W47839  20.231  19.491  28.740
46976W        W47840  20.016  20.787  26.325
46977W        W47841  20.728  20.142   0.077
46978W        W47842  20.458  18.325  27.332
46979W        W47843  19.089  19.263  27.340
46980W        W47844  18.416  20.497  28.246
46981W        W47845  20.190  21.951  27.068
46982W        W47846  21.381  19.166  27.766
46983W        W47847  20.309  21.595  28.314
46984W        W47848  21.494  20.185  25.715
46985W        W47849  20.146  19.862  26.706
46986W        W47850  21.800  18.406  28.400
46987W        W47851  19.790  20.410  28.076
46988W        W47852  20.145  19.308  27.376
46989W        W47853  21.020  19.596  26.332
46990W        W47854  21.425  19.415  26.055
46991W        W47855  21.282  21.253  26.532
46992W        W47856  20.783  20.807  27.274
46993W        W47857  20.725  19.994  26.230
46994W        W47858  20.128  20.160  27.130
46995W        W47859  21.139  19.956  27.345
46996W        W47860  18.738  19.001  27.647
46997W        W47861  21.291  20.013  28.436
46998W        W47862  21.729  21.598  27.605
46999W        W47863  19.599  21.185  27.224
47000W        W47864  20.825  21.708  28.366
47001W        W47865  20.627  18.906  28.057
47002W        W47866  19.979  21.932  28.041
47003W        W47867  21.545  18.724  26.559
47004W        W47868  21.270  19.857  27.943
47005W        W47869  18.451  19.229  28.022
47006W        W47870  21.178  19.080  27.072
47007W        W47871  21.509  19.176  28.606
47008W        W47872  20.275  21.003  27.111
47009W        W47873  19.685  21.501  26.757
47010W        W47874  18.912  18.680  25.939
47011W        W47875  19.990  18.415  27.580
47012W        W47876  18.794  21.814  25.766
47013W        W47877  19.348  20.066  26.173
47014W        W47878  20.051  20.598  28.465
47015W        W47879  20.022  18.710  26.615
47016W        W47880  21.192  18.575  26.923
47017W        W47881  21.039  21.931  27.380
47018W        W47882  20.340  21.630  27.790
47019W        W47883  19.618  20.708  27.696
47020W        W47884  21.501  21.130  27.775
47021W        W47885  19.123  18.727  26.436
47022W        W47886  19.970  21.041  27.550
47023W        W47887  19.139  18.955  25.545
47024W        W47888  19.929  19.569  27.794
47025W        W47889  20.774  18.482  27.733
47026W        W47890  18.302  20.232  27.826
47027W        W47891  19.755  19.981  25.843
47028W        W47892  19.275  18.479  25.638
47029W        W47893  19.822  19.195  26.582
47030W        W47894  20.922  18.591  28.353
47031W        W47895  19.509  20.438  28.528
47032W        W47896  20.382  20.345  28.756
47033W        W47897  20.834  20.187  28.581
47034W        W47898  20.186  18.483   0.055
47035W        W47899  19.438  18.877  27.273
47036W        W47900  19.022  18.954  26.922
47037W        W47901  18.550  21.697  26.645
47038W        W47902  20.070  21.178  28.543
47039W        W47903  19.168  20.657  26.105
47040W        W47904  20.632  20.117  27.276
47041W        W47905  20.799  19.875  27.723
47042W        W47906  19.948  20.298  27.594
47043W        W47907  20.703  20.804  25.678
47044W        W47908  20.344  18.745  27.032
47045W        W47909  21.739  19.041  26.219
47046W        W47910  18.338  21.591  28.509
47047W        W47911  18.632  20.891  27.999
47048W        W47912  18.222  21.994  26.353
47049W        W47913  20.228  19.162  27.853
47050W        W47914  19.254  21.148  25.956
47051W        W47915  21.653  21.486  26.169
47052W        W47916  20.251  19.944  26.033
47053W        W47917  19.315  19.237  26.484
47054W        W47918  20.118  19.068  25.638
47055W        W47919  20.758  20.704  28.666
47056W        W47920  21.046  18.657  26.439
47057W        W47921  18.453  18.456  25.846
47058W        W47922  19.745  20.907  28.193
47059W        W47923  19.334  20.717  27.273
47060W        W47924  19.149  20.798  25.611
47061W        W47925  18.501  21.246  26.384
47062W        W47926  18.960  19.911  28.654
47063W        W47927  19.700  18.518  28.836
47064W        W47928  20.112  18.713  28.046
47065W        W47929  19.509  18.353  26.586
47066W        W47930  20.911  18.551  25.960
47067W        W47931  18.583  18.480  27.647
47068W        W47932  18.604  19.250  27.129
47069W        W47933  21.329  18.743  27.445
47070W        W47934  18.810  19.136  26.460
47071W        W47935  21.205  18.687  27.933
47072W        W47936  21.598  19.655  25.613
47073W        W47937  18.988  18.666  27.370
47074W        W47938  20.174  19.151  28.353
47075W        W47939  18.348  18.982  25.847
47076W        W47940  18.989  20.386  28.437
47077W        W47941  20.273  19.851  27.545
47078W        W47942  20.145  21.603  25.736
47079W        W47943  18.182  20.190  25.660
47080W        W47944  19.191  20.808  28.726
47081W        W47945  18.653  20.024  28.236
47082W        W47946  19.625  19.986  27.865
47083W        W47947  21.323  18.280  28.233
47084W        W47948  21.827  20.034  28.387
47085W        W47949  21.655  19.883  26.100
47086W        W47950  20.500  20.405  25.974
47087W        W47951  21.201  21.925  25.384
47088W        W47952  20.266  19.918   0.033
47089W        W47953  18.648  20.708   0.048
47090W        W47954  21.834  18.779  28.789
47091W        W47955  21.518  19.642  27.554
47092W        W47956  19.792  21.575  28.748
47093W        W47957  19.720  18.388  25.878
47094W        W47958  21.396  20.691  25.786
47095W        W47959  18.987  18.950  28.634
47096W        W47960  19.466  21.219  28.493
47097W        W47961  21.637  18.928  28.169
47098W        W47962  21.349  21.860  25.945
47099W        W47963  20.963  20.407  27.560
47100W        W47964  19.271  18.695  28.306
47101W        W47965  19.803  19.777  28.853
47102W        W47966  19.007  21.053  26.404
47103W        W47967  20.860  20.381  26.533
47104W        W47968  18.925  19.049  28.135
47105W        W47969  19.841  21.001  26.779
47106W        W47970  21.828  19.718  26.930
47107W        W47971  20.109  18.461  28.516
47108W        W47972  20.983  21.082  27.687
47109W        W47973  21.234  21.487  27.529
47110W        W47974  20.132  21.079  25.898
47111W        W47975  18.243  20.689  28.762
47112W        W47976  19.306  19.035  27.770
47113W        W47977  19.218  18.465  26.984
47114W        W47978  20.575  19.436  27.616
47115W        W47979  19.452  20.383  25.763
47116W        W47980  21.484  20.307  27.552
47117W        W47981  18.986  21.283  28.749
47118W        W47982  21.428  21.910  26.508
47119W        W47983  19.511  18.829  26.759
47120W        W47984  19.075  20.247  27.045
47121W        W47985  19.459  21.793  27.927
47122W        W47986  21.593  21.627  28.693
47123W        W47987  20.488  20.274  27.755
47124W        W47988  18.484  19.481  25.670
47125W        W47989  21.714  21.510  26.695
47126W        W47990  21.223  18.951  26.043
47127W        W47991  19.623  18.329  28.376
47128W        W47992  21.472  20.904  26.871
47129W        W47993  21.354  19.582  27.044
47130W        W47994  19.455  19.292  26.969
47131W        W47995  19.920  19.610  28.298
47132W        W47996  20.986  20.980  28.278
47133W        W47997  19.359  19.208  28.378
47134W        W47998  19.239  21.595  27.039
47135W        W47999  18.816  21.765  28.604
47136W        W48000  18.870  21.279  25.640
47137W        W48001  21.361  20.448  26.666
47138W        W48002  18.977  19.554  28.295
47139W        W48003  21.943  19.467  25.994
47140W        W48004  19.600  20.487  26.305
47141W        W48005  20.364  19.911  28.484
47142W        W48006  20.393  19.584  28.074
47143W        W48007  19.150  20.018  28.069
47144W        W48008  21.338  21.892  27.809
47145W        W48009  21.048  18.417  28.824
47146W        W48010  18.665  18.553  28.629
47147W        W48011  19.267  19.774  27.558
47148W        W48012  19.514  19.361  25.617
47149W        W48013  18.244  21.005  28.339
47150W        W48014  19.777  19.834  27.382
47151W        W48015  19.650  18.856  25.683
47152W        W48016  19.093  19.880  26.587
47153W        W48017  18.624  21.751  28.098
47154W        W48018  21.169  19.815  25.866
47155W        W48019  21.391  18.677  28.557
47156W        W48020  20.978  20.819  26.778
47157W        W48021  18.505  19.808  28.907
47158W        W48022  21.443  18.478  26.106
47159W        W48023  21.176  20.705  26.262
47160W        W48024  20.018  19.570  26.289
47161W        W48025  20.959  18.886  25.563
47162W        W48026  20.960  19.426  27.956
47163W        W48027  18.844  19.718  27.270
47164W        W48028  18.969  20.771  26.914
47165W        W48029  20.883  19.464  26.834
47166W        W48030  19.860  18.911  27.579
47167W        W48031  21.789  20.743  27.965
47168W        W48032  21.825  18.893  27.664
47169W        W48033  18.353  21.426  27.101
47170W        W48034  18.612  20.760  26.561
47171W        W48035  18.820  18.368   0.105
47172W        W48036  19.968  21.215   0.095
47173W        W48037  21.521  20.141  27.057
47174W        W48038  21.001  20.319  25.850
47175W        W48039  20.512  22.033  28.097
47176W        W48040  21.136  20.438  28.919
47177W        W48041  19.946  18.261  26.334
47178W        W48042  20.642  19.160  27.206
47179W        W48043  18.354  20.604  27.468
47180W        W48044  19.632  18.730  26.261
47181W        W48045  19.392  20.080  28.908
47182W        W48046  20.302  19.223  26.817
47183W        W48047  20.714  20.710  27.909
47184W        W48048  18.692  21.288  28.327
47185W        W48049  19.453  21.223  28.987
47186W        W48050  19.304  19.041  26.018
47187W        W48051  20.771  19.134  26.298
47188W        W48052  20.624  21.264  28.577
47189W        W48053  19.351  19.791  27.051
47190W        W48054  18.917  21.342  27.862
47191W        W48055  21.743  21.676  25.658
47192W        W48056  18.552  20.277  28.683
47193W        W48057  20.330  20.588  27.399
47194W        W48058  19.052  20.408  26.546
47195W        W48059  19.439  21.233  27.943
47196W        W48060  19.740  18.472  27.075
47197W        W48061  18.241  20.678  26.206
47198W        W48062  19.986  19.550  25.752
47199W        W48063  18.661  19.957  26.861
47200W        W48064  19.758  18.832  28.431
47201W        W48065  21.432  18.689  25.641
47202W        W48066  21.607  20.196  28.812
47203W        W48067  20.298  21.610  28.840
47204W        W48068  21.690  20.606  28.480
47205W        W48069  21.382  21.287   0.068
47206W        W48070  18.989  21.840  27.736
47207W        W48071  21.858  20.593  26.665
47208W        W48072  20.440  19.642  27.100
47209W        W48073  20.167  18.253  26.878
47210W        W48074  19.312  21.149  26.799
47211W        W48075  19.750  19.141  28.033
47212W        W48076  19.449  18.423  27.511
47213W        W48077  18.399  21.605  26.022
47214W        W48078  19.935  20.445  26.732
47215W        W48079  19.152  21.550  28.275
47216W        W48080  18.526  20.261  26.458
47217W        W48081  18.519  18.751  27.208
47218W        W48082  19.856  20.685  27.198
47219W        W48083  18.514  18.752  26.288
47220W        W48084  20.809  19.817  28.243
47221W        W48085  20.925  19.343  25.857
47222W        W48086  21.304  20.776  27.379
47223W        W48087  20.178  21.478  27.327
47224W        W48088  19.410  21.479  26.312
47225W        W48089  20.587  18.505  25.558
47226W        W48090  18.564  21.613  27.568
47227W        W48091  20.596  19.205  28.924
47228W        W48092  18.683  18.897   0.032
47229W        W48093  18.491  19.489  26.669
47230W        W48094  19.522  19.579  26.089
47231W        W48095  20.733  19.698  28.792
47232W        W48096  19.245  20.300  27.601
47233W        W48097  20.689  18.423  26.812
47234W        W48098  19.709  21.705  27.233
47235W        W48099  21.183  21.427  28.064
47236W        W48100  20.715  21.481  27.415
47237W        W48101  20.505  20.483  26.917
47238W        W48102  20.099  18.704  26.027
47239W        W48103  21.837  18.370  26.838
47240W        W48104  19.295  19.860  25.633
47241W        W48105  21.634  19.219  26.807
47242W        W48106  19.983  20.417  25.962
47243W        W48107  21.192  20.524  28.406
47244W        W48108  21.300  21.156  25.991
47245W        W48109  19.446  18.954  28.840
47246W        W48110  19.423  19.531  27.984
47247W        W48111  21.514  21.072  28.290
47248W        W48112  20.506  18.805  28.547
47249W        W48113  18.468  19.578  28.437
47250W        W48114  20.129  20.020  28.014
47251W        W48115  18.498  20.439  26.959
47252W        W48116  18.760  19.921  27.740
47253W        W48117  20.955  20.263  28.049
47254W        W48118  20.818  21.616  28.899
47255W        W48119  20.675  19.301  28.415
47256W        W48120  21.122  21.197  27.127
47257W        W48121  20.142  21.200  28.011
47258W        W48122  19.316  21.504  27.530
47259W        W48123  21.250  20.694  27.910
47260W        W48124  20.273  20.830  28.887
47261W        W48125  18.844  20.576  27.377
47262W        W48126  21.025  20.375  27.048
47263W        W48127  20.848  21.741  27.836
47264W        W48128  18.626  21.080  27.528
47265W        W48129  19.769  19.298  28.663
47266W        W48130  19.907  21.317  26.315
47267W        W48131  19.722  20.852  28.758
47268W        W48132  19.522  20.979  26.361
47269W        W48133  18.987  19.448  25.515
47270W        W48134  18.278  25.518   3.369
47271W        W48135  18.732  24.405   3.086
47272W        W48136  21.334  24.171   0.712
47273W        W48137  21.597  25.302   2.748
47274W        W48138  19.590  25.169   0.331
47275W        W48139  19.424  23.375   1.029
47276W        W48140  18.758  23.272   1.253
47277W        W48141  20.206  23.813   0.807
47278W        W48142  19.749  25.176   3.137
47279W        W48143  18.263  22.697   2.923
47280W        W48144  18.765  22.015   2.683
47281W        W48145  20.831  22.481   1.690
47282W        W48146  20.512  22.856   0.452
47283W        W48147  20.890  22.776   3.202
47284W        W48148  18.341  22.331   2.555
47285W        W48149  19.877  24.423   0.368
47286W        W48150  18.350  23.116   1.976
47287W        W48151  19.431  23.202   3.050
47288W        W48152  21.878  22.647   1.717
47289W        W48153  21.492  23.720   2.383
47290W        W48154  20.064  23.574   1.499
47291W        W48155  20.477  24.668   2.113
47292W        W48156  18.883  24.085   2.201
47293W        W48157  18.203  23.607   1.908
47294W        W48158  19.451  23.682   2.877
47295W        W48159  21.602  23.219   3.321
47296W        W48160  19.146  24.843   1.769
47297W        W48161  20.391  24.557   2.632
47298W        W48162  19.615  23.388   1.893
47299W        W48163  19.594  23.814   1.598
47300W        W48164  20.599  24.892   3.482
47301W        W48165  19.998  23.948   3.474
47302W        W48166  19.979  23.845   2.946
47303W        W48167  18.047  23.018   3.333
47304W        W48168  20.956  24.775   3.129
47305W        W48169  18.817  22.218   0.944
47306W        W48170  19.185  24.527   2.185
47307W        W48171  21.588  24.383   1.556
47308W        W48172  21.276  22.607   1.978
47309W        W48173  21.455  22.535   0.081
47310W        W48174  21.842  23.312   2.367
47311W        W48175  19.944  25.190   2.193
47312W        W48176  21.504  24.650   0.831
47313W        W48177  18.748  25.620   0.749
47314W        W48178  19.064  25.434   1.119
47315W        W48179  18.915  22.281   2.266
47316W        W48180  21.416  23.016   2.616
47317W        W48181  20.986  23.583   1.330
47318W        W48182  20.821  23.268   0.349
47319W        W48183  20.009  24.700   2.324
47320W        W48184  20.023  22.740   1.360
47321W        W48185  20.382  25.035   2.462
47322W        W48186  21.411  23.789   1.079
47323W        W48187  19.994  22.400   0.960
47324W        W48188  18.868  25.102   0.792
47325W        W48189  18.415  22.467   1.198
47326W        W48190  21.064  23.044   1.795
47327W        W48191  18.579  24.766   1.675
47328W        W48192  19.850  24.863   0.637
47329W        W48193  21.201  23.110  28.995
47330W        W48194  18.383  24.998   2.475
47331W        W48195  19.157  24.563   2.845
47332W        W48196  19.254  23.847   1.208
47333W        W48197  19.497  22.448   2.179
47334W        W48198  21.889  22.078   1.700
47335W        W48199  18.985  23.823   0.251
47336W        W48200  18.696  22.915   0.387
47337W        W48201  18.740  24.826   1.200
47338W        W48202  19.632  24.238   1.291
47339W        W48203  21.100  25.180   2.850
47340W        W48204  20.002  22.883   0.661
47341W        W48205  21.474  25.336   1.465
47342W        W48206  21.149  23.199   3.039
47343W        W48207  21.846  24.715   1.272
47344W        W48208  20.415  24.053   2.725
47345W        W48209  18.352  23.601   1.044
47346W        W48210  19.287  24.160   2.505
47347W        W48211  20.588  23.258   1.034
47348W        W48212  20.507  23.748   1.225
47349W        W48213  18.666  23.132   2.376
47350W        W48214  18.686  23.028   2.897
47351W        W48215  18.631  22.033   1.380
47352W        W48216  20.278  22.570   1.841
47353W        W48217  20.097  22.528   3.069
47354W        W48218  20.679  22.397   0.629
47355W        W48219  21.478  24.934   3.099
47356W        W48220  20.442  22.120   2.980
47357W        W48221  21.725  24.465   3.069
47358W        W48222  21.076  22.627   2.732
47359W        W48223  20.857  22.577   1.173
47360W        W48224  21.221  23.523   3.432
47361W        W48225  18.853  25.214   1.569
47362W        W48226  19.500  23.084   0.591
47363W        W48227  19.058  22.273   3.065
47364W        W48228  21.353  22.912   0.984
47365W        W48229  21.650  23.313   0.828
47366W        W48230  19.313  25.286   3.402
47367W        W48231  19.386  22.048   0.719
47368W        W48232  21.736  24.821   0.342
47369W        W48233  18.541  23.995   1.806
47370W        W48234  20.611  22.436   0.100
47371W        W48235  21.704  24.949   1.732
47372W        W48236  21.625  22.023   2.582
47373W        W48237  20.294  23.389   3.018
47374W        W48238  19.959  24.335   0.862
47375W        W48239  20.798  23.765   3.590
47376W        W48240  20.347  22.040   1.784
47377W        W48241  18.832  22.953   1.875
47378W        W48242  18.583  24.031   2.642
47379W        W48243  20.339  25.090   1.458
47380W        W48244  21.686  22.844   2.178
47381W        W48245  20.135  25.325   2.796
47382W        W48246  21.488  24.059   0.241
47383W        W48247  19.764  23.786   1.083
47384W        W48248  21.954  22.078   2.991
47385W        W48249  19.967  24.285   2.618
47386W        W48250  20.107  23.094   1.739
47387W        W48251  21.097  23.378   0.893
47388W        W48252  21.296  23.147   0.495
47389W        W48253  21.123  24.990   0.915
47390W        W48254  21.092  24.501   1.657
47391W        W48255  20.682  23.642   0.688
47392W        W48256  20.319  23.976   1.738
47393W        W48257  21.278  23.536   1.753
47394W        W48258  18.556  22.647   2.198
47395W        W48259  21.427  23.607   2.927
47396W        W48260  21.609  25.230   2.182
47397W        W48261  19.594  24.711   1.545
47398W        W48262  20.704  25.408   2.627
47399W        W48263  20.509  22.679   2.346
47400W        W48264  19.794  25.593   2.521
47401W        W48265  21.603  22.463   1.054
47402W        W48266  21.366  23.259   2.167
47403W        W48267  18.171  22.903   2.435
47404W        W48268  21.332  22.685   1.464
47405W        W48269  21.425  22.781   3.106
47406W        W48270  20.404  24.499   1.606
47407W        W48271  19.727  25.115   1.213
47408W        W48272  18.739  22.396   0.456
47409W        W48273  19.949  22.208   2.087
47410W        W48274  19.066  25.147   0.328
47411W        W48275  19.320  23.724   0.659
47412W        W48276  20.036  24.332   3.110
47413W        W48277  19.643  22.841   1.030
47414W        W48278  21.173  22.202   1.327
47415W        W48279  20.800  25.402   1.764
47416W        W48280  20.389  25.166   1.966
47417W        W48281  19.691  24.289   2.180
47418W        W48282  21.307  24.911   2.426
47419W        W48283  19.251  22.484   0.988
47420W        W48284  19.588  24.819   2.057
47421W        W48285  19.169  22.477   0.084
47422W        W48286  19.964  23.221   2.256
47423W        W48287  20.806  22.095   2.077
47424W        W48288  18.253  23.997   2.247
47425W        W48289  20.121  23.678   0.294
47426W        W48290  19.310  22.004   0.215
47427W        W48291  20.074  23.197   1.085
47428W        W48292  20.742  22.228   2.572
47429W        W48293  19.565  24.214   2.919
47430W        W48294  20.454  23.995   3.237
47431W        W48295  20.888  23.702   3.082
47432W        W48296  20.070  22.196   3.478
47433W        W48297  19.318  22.955   1.719
47434W        W48298  18.886  22.575   1.378
47435W        W48299  18.562  25.325   1.154
47436W        W48300  20.068  24.823   2.923
47437W        W48301  18.966  24.306   0.486
47438W        W48302  20.770  23.767   1.736
47439W        W48303  20.854  23.413   2.099
47440W        W48304  20.234  24.220   2.188
47441W        W48305  20.725  24.517   0.254
47442W        W48306  20.406  22.364   1.361
47443W        W48307  21.919  22.832   0.788
47444W        W48308  18.456  25.284   2.945
47445W        W48309  18.771  24.495   2.523
47446W        W48310  18.233  25.495   0.802
47447W        W48311  19.973  22.697   2.294
47448W        W48312  19.399  24.672   0.420
47449W        W48313  21.433  25.188   0.569
47450W        W48314  20.308  23.301   0.597
47451W        W48315  19.178  22.961   1.215
47452W        W48316  20.206  22.792   0.064
47453W        W48317  20.493  24.540   3.128
47454W        W48318  21.153  22.372   0.807
47455W        W48319  18.415  21.989   0.321
47456W        W48320  19.565  24.607   2.561
47457W        W48321  19.398  24.273   1.764
47458W        W48322  19.402  24.159   0.247
47459W        W48323  18.370  24.962   0.815
47460W        W48324  19.000  23.511   3.061
47461W        W48325  19.523  22.148   3.314
47462W        W48326  20.226  22.310   2.562
47463W        W48327  19.621  22.076   1.187
47464W        W48328  20.310  22.020   0.712
47465W        W48329  18.463  22.079   2.134
47466W        W48330  18.485  22.892   1.509
47467W        W48331  21.305  22.075   1.893
47468W        W48332  18.759  22.727   0.893
47469W        W48333  21.218  22.267   2.362
47470W        W48334  21.617  23.526   0.247
47471W        W48335  19.107  22.493   1.835
47472W        W48336  20.177  22.932   2.714
47473W        W48337  18.266  22.510   0.267
47474W        W48338  19.064  24.030   2.942
47475W        W48339  20.326  23.500   1.973
47476W        W48340  20.105  25.308   0.372
47477W        W48341  18.408  23.870   0.168
47478W        W48342  19.225  24.376   3.320
47479W        W48343  18.615  23.514   2.725
47480W        W48344  19.712  23.875   2.495
47481W        W48345  21.145  21.961   2.763
47482W        W48346  21.890  23.706   2.713
47483W        W48347  21.709  23.822   0.644
47484W        W48348  20.508  24.236   0.902
47485W        W48349  21.230  25.531   0.227
47486W        W48350  20.337  23.545   3.505
47487W        W48351  18.942  24.582   3.716
47488W        W48352  21.763  22.327   3.433
47489W        W48353  21.575  23.079   1.733
47490W        W48354  19.826  25.333   3.626
47491W        W48355  19.810  22.089   0.395
47492W        W48356  21.266  24.546   0.339
47493W        W48357  19.143  22.787   2.960
47494W        W48358  19.591  24.694   3.093
47495W        W48359  21.584  22.541   2.595
47496W        W48360  20.934  25.441   0.653
47497W        W48361  21.091  23.884   2.102
47498W        W48362  19.251  22.424   2.622
47499W        W48363  19.814  23.494   3.292
47500W        W48364  19.088  24.646   0.850
47501W        W48365  20.944  23.961   0.984
47502W        W48366  18.761  22.558   2.703
47503W        W48367  20.032  24.654   1.280
47504W        W48368  21.917  23.384   1.489
47505W        W48369  19.941  22.036   3.005
47506W        W48370  20.982  24.652   2.127
47507W        W48371  21.214  25.048   1.851
47508W        W48372  20.318  24.632   0.575
47509W        W48373  18.520  24.776   3.470
47510W        W48374  19.056  22.784   2.311
47511W        W48375  19.138  22.135   1.377
47512W        W48376  20.576  22.992   1.939
47513W        W48377  19.777  23.957   0.554
47514W        W48378  21.553  24.066   1.976
47515W        W48379  18.992  24.859   3.264
47516W        W48380  21.318  25.509   0.997
47517W        W48381  19.476  22.536   1.441
47518W        W48382  19.046  23.877   1.719
47519W        W48383  19.292  25.529   2.500
47520W        W48384  21.361  25.452   3.227
47521W        W48385  20.593  23.849   2.231
47522W        W48386  18.652  23.457   0.432
47523W        W48387  21.650  25.112   1.032
47524W        W48388  21.488  22.666   0.565
47525W        W48389  19.453  22.003   2.831
47526W        W48390  21.351  24.828   1.360
47527W        W48391  21.436  23.324   1.302
47528W        W48392  19.687  23.168   1.432
47529W        W48393  19.853  23.366   2.761
47530W        W48394  20.875  24.263   2.934
47531W        W48395  19.619  22.901   2.678
47532W        W48396  19.370  25.364   1.560
47533W        W48397  18.801  25.362   3.341
47534W        W48398  18.713  24.764   0.386
47535W        W48399  21.228  24.353   1.176
47536W        W48400  19.110  23.193   2.638
47537W        W48401  21.772  23.054   0.345
47538W        W48402  19.409  24.225   0.798
47539W        W48403  20.624  23.591   2.673
47540W        W48404  20.465  23.208   2.385
47541W        W48405  19.059  23.698   2.522
47542W        W48406  21.199  25.431   2.411
47543W        W48407  20.928  22.276   3.088
47544W        W48408  18.486  22.230   3.043
47545W        W48409  19.097  23.358   2.078
47546W        W48410  19.425  22.914   0.110
47547W        W48411  18.385  24.763   2.953
47548W        W48412  19.908  23.822   2.016
47549W        W48413  19.777  22.533   0.129
47550W        W48414  18.870  23.630   0.893
47551W        W48415  18.393  25.515   2.500
47552W        W48416  21.194  23.696   0.509
47553W        W48417  21.454  22.277   3.025
47554W        W48418  20.817  24.684   1.246
47555W        W48419  18.513  23.367   3.234
47556W        W48420  21.545  22.152   0.482
47557W        W48421  20.945  24.525   0.758
47558W        W48422  19.826  23.459   0.689
47559W        W48423  21.070  22.241   0.285
47560W        W48424  20.963  22.945   2.322
47561W        W48425  18.683  23.456   1.726
47562W        W48426  19.155  24.457   1.335
47563W        W48427  20.977  23.062   1.299
47564W        W48428  19.772  22.706   1.819
47565W        W48429  21.749  24.398   2.391
47566W        W48430  21.715  22.322   2.137
47567W        W48431  18.304  25.197   1.581
47568W        W48432  18.589  24.500   0.820
47569W        W48433  18.629  22.170   3.527
47570W        W48434  19.948  24.831   3.463
47571W        W48435  21.719  23.880   1.506
47572W        W48436  20.857  24.091   0.497
47573W        W48437  20.298  25.536   2.336
47574W        W48438  21.266  24.018   3.220
47575W        W48439  19.839  21.773   0.792
47576W        W48440  20.517  22.855   1.448
47577W        W48441  18.488  24.429   2.085
47578W        W48442  19.621  22.523   0.616
47579W        W48443  19.513  23.927   3.317
47580W        W48444  20.404  22.741   0.955
47581W        W48445  20.759  24.292   2.423
47582W        W48446  18.822  24.953   2.766
47583W        W48447  19.411  24.811   3.580
47584W        W48448  19.147  22.714   0.536
47585W        W48449  20.888  22.912   0.784
47586W        W48450  20.553  25.034   2.950
47587W        W48451  19.203  23.420   1.523
47588W        W48452  18.842  25.310   2.405
47589W        W48453  21.756  25.334   0.177
47590W        W48454  18.602  23.876   3.131
47591W        W48455  20.730  24.246   1.919
47592W        W48456  18.920  24.150   0.982
47593W        W48457  19.237  24.990   2.408
47594W        W48458  19.925  22.271   1.564
47595W        W48459  18.359  24.351   0.366
47596W        W48460  19.893  23.168   0.255
47597W        W48461  18.708  23.821   1.340
47598W        W48462  19.750  22.401   2.668
47599W        W48463  21.573  22.055  28.971
47600W        W48464  21.789  23.935   3.162
47601W        W48465  20.234  25.216   3.298
47602W        W48466  22.027  24.206   2.757
47603W        W48467  21.203  25.043   3.529
47604W        W48468  18.999  25.544   1.969
47605W        W48469  21.735  24.206   1.069
47606W        W48470  20.569  23.343   1.550
47607W        W48471  20.137  21.955   1.199
47608W        W48472  19.224  24.966   1.265
47609W        W48473  19.515  22.967   2.186
47610W        W48474  19.470  22.100   1.776
47611W        W48475  18.535  25.270   0.447
47612W        W48476  20.148  24.116   1.280
47613W        W48477  19.289  25.088   2.915
47614W        W48478  18.592  23.966   0.630
47615W        W48479  18.534  22.415   1.734
47616W        W48480  19.921  24.308   1.720
47617W        W48481  18.328  22.214   0.759
47618W        W48482  21.080  23.398   2.570
47619W        W48483  21.017  22.740   0.320
47620W        W48484  21.477  24.605   2.013
47621W        W48485  20.047  24.808   1.811
47622W        W48486  19.386  25.083   0.792
47623W        W48487  20.630  21.947   0.270
47624W        W48488  18.522  25.294   2.020
47625W        W48489  20.394  22.931   3.257
47626W        W48490  18.720  22.631   3.240
47627W        W48491  18.488  23.159   0.832
47628W        W48492  19.009  23.165   0.754
47629W        W48493  20.756  23.277   3.366
47630W        W48494  19.380  23.841   2.099
47631W        W48495  20.727  22.079   1.064
47632W        W48496  19.876  25.282   1.680
47633W        W48497  20.847  24.778   2.613
47634W        W48498  20.744  24.882   1.722
47635W        W48499  20.743  24.178   1.399
47636W        W48500  20.185  22.448   0.455
47637W        W48501  21.889  22.037   1.176
47638W        W48502  19.580  23.588   0.232
47639W        W48503  21.773  22.921   1.276
47640W        W48504  20.335  24.135   0.398
47641W        W48505  21.519  24.089   2.752
47642W        W48506  20.945  24.964   0.423
47643W        W48507  19.589  22.608   3.116
47644W        W48508  19.497  23.427   2.404
47645W        W48509  21.289  24.553   2.800
47646W        W48510  20.557  22.606   2.860
47647W        W48511  18.188  23.207   2.865
47648W        W48512  20.167  23.661   2.459
47649W        W48513  18.626  24.337   1.368
47650W        W48514  18.646  23.633   2.207
47651W        W48515  21.048  23.899   2.623
47652W        W48516  20.844  25.311   3.286
47653W        W48517  20.696  23.096   2.830
47654W        W48518  20.986  25.192   1.355
47655W        W48519  19.708  25.089   2.626
47656W        W48520  19.476  25.339   2.062
47657W        W48521  21.259  24.290   2.356
47658W        W48522  20.246  24.419   3.571
47659W        W48523  18.901  24.383   1.786
47660W        W48524  21.210  24.005   1.562
47661W        W48525  20.837  25.130   2.211
47662W        W48526  18.779  24.859   2.149
47663W        W48527  19.904  23.011   3.139
47664W        W48528  20.202  25.045   0.953
47665W        W48529  19.714  24.379   3.492
47666W        W48530  19.574  24.661   1.019
47667W        W48531  19.128  23.314   0.259
47668W        W48532  18.337  25.657   7.093
47669W        W48533  18.726  24.523   6.563
47670W        W48534  21.627  23.737   4.571
47671W        W48535  21.724  25.370   6.414
47672W        W48536  19.403  25.244   3.937
47673W        W48537  19.884  23.331   4.656
47674W        W48538  19.159  23.259   5.598
47675W        W48539  20.306  23.551   4.481
47676W        W48540  19.728  25.186   6.710
47677W        W48541  18.265  22.694   6.685
47678W        W48542  18.997  21.760   6.576
47679W        W48543  20.897  22.246   5.317
47680W        W48544  20.501  23.069   3.790
47681W        W48545  21.004  22.725   6.940
47682W        W48546  18.415  22.365   6.313
47683W        W48547  18.469  25.164   7.176
47684W        W48548  19.904  24.183   3.939
47685W        W48549  18.208  23.135   5.769
47686W        W48550  19.497  23.170   6.809
47687W        W48551  21.582  22.815   5.509
47688W        W48552  21.563  23.999   6.336
47689W        W48553  20.174  23.436   5.253
47690W        W48554  20.519  24.759   5.731
47691W        W48555  18.872  23.989   5.949
47692W        W48556  18.048  23.634   5.742
47693W        W48557  19.407  23.581   6.427
47694W        W48558  21.450  23.136   7.145
47695W        W48559  19.090  24.731   5.183
47696W        W48560  20.348  24.587   6.435
47697W        W48561  19.674  23.123   5.604
47698W        W48562  20.052  23.927   5.369
47699W        W48563  20.608  24.784   7.093
47700W        W48564  19.975  23.956   7.126
47701W        W48565  20.000  23.756   6.627
47702W        W48566  17.864  23.024   7.105
47703W        W48567  21.057  24.667   6.850
47704W        W48568  18.746  22.181   4.880
47705W        W48569  19.245  24.716   5.681
47706W        W48570  21.706  24.418   5.325
47707W        W48571  21.279  22.426   5.609
47708W        W48572  21.230  22.472   3.478
47709W        W48573  21.805  23.475   6.223
47710W        W48574  19.675  25.466   5.798
47711W        W48575  21.494  25.151   4.390
47712W        W48576  18.772  25.444   4.108
47713W        W48577  19.046  25.533   4.721
47714W        W48578  18.952  22.246   6.379
47715W        W48579  21.462  23.076   6.360
47716W        W48580  20.997  23.500   5.161
47717W        W48581  20.961  23.347   3.860
47718W        W48582  20.080  24.663   5.983
47719W        W48583  20.197  22.678   5.059
47720W        W48584  20.494  25.006   6.170
47721W        W48585  21.243  23.410   4.710
47722W        W48586  20.549  22.247   4.398
47723W        W48587  19.035  25.120   4.397
47724W        W48588  18.387  22.534   4.939
47725W        W48589  21.073  22.896   5.486
47726W        W48590  18.604  24.820   5.335
47727W        W48591  19.873  25.190   4.146
47728W        W48592  21.178  23.006   3.532
47729W        W48593  18.280  24.984   5.944
47730W        W48594  19.050  24.457   6.100
47731W        W48595  19.570  24.119   5.245
47732W        W48596  19.399  22.224   6.015
47733W        W48597  21.911  21.909   5.453
47734W        W48598  19.020  23.902   3.445
47735W        W48599  18.804  22.601   3.771
47736W        W48600  18.775  24.961   4.822
47737W        W48601  19.550  24.616   4.974
47738W        W48602  21.287  25.196   6.608
47739W        W48603  20.342  22.690   4.147
47740W        W48604  21.553  25.300   5.384
47741W        W48605  21.140  23.199   6.748
47742W        W48606  21.963  24.817   5.091
47743W        W48607  20.493  24.018   6.422
47744W        W48608  17.894  23.698   5.060
47745W        W48609  19.370  24.003   6.107
47746W        W48610  20.559  23.101   4.357
47747W        W48611  20.561  23.599   4.934
47748W        W48612  18.523  23.164   6.209
47749W        W48613  18.658  23.102   6.704
47750W        W48614  18.639  22.013   5.365
47751W        W48615  20.408  22.486   5.486
47752W        W48616  20.089  22.488   6.724
47753W        W48617  20.491  22.270   3.857
47754W        W48618  21.776  25.147   6.897
47755W        W48619  20.531  22.037   6.763
47756W        W48620  21.488  24.515   7.111
47757W        W48621  21.128  22.630   6.434
47758W        W48622  20.958  22.424   4.744
47759W        W48623  21.181  23.580   7.163
47760W        W48624  18.928  25.231   5.228
47761W        W48625  19.822  22.817   4.012
47762W        W48626  19.090  22.200   6.876
47763W        W48627  21.309  22.824   4.660
47764W        W48628  21.570  23.194   4.381
47765W        W48629  19.379  25.382   7.047
47766W        W48630  19.253  21.829   4.145
47767W        W48631  21.741  22.373   5.281
47768W        W48632  21.726  25.180   3.481
47769W        W48633  18.657  23.905   5.482
47770W        W48634  20.531  22.436   3.368
47771W        W48635  21.814  24.897   5.570
47772W        W48636  21.707  21.944   6.146
47773W        W48637  20.296  23.347   6.729
47774W        W48638  19.797  24.196   4.750
47775W        W48639  20.734  23.848   7.301
47776W        W48640  20.476  21.975   5.485
47777W        W48641  18.686  22.963   5.532
47778W        W48642  18.528  24.092   6.329
47779W        W48643  20.487  25.203   5.473
47780W        W48644  21.554  22.700   6.017
47781W        W48645  20.366  25.344   6.532
47782W        W48646  21.273  23.886   3.781
47783W        W48647  20.071  23.778   4.879
47784W        W48648  21.868  21.996   6.636
47785W        W48649  20.041  24.201   6.205
47786W        W48650  20.180  22.989   5.508
47787W        W48651  21.067  23.118   4.313
47788W        W48652  21.278  22.791   3.991
47789W        W48653  21.306  24.796   4.742
47790W        W48654  21.199  24.377   5.437
47791W        W48655  20.809  23.527   4.474
47792W        W48656  20.559  23.753   5.425
47793W        W48657  21.401  23.476   5.460
47794W        W48658  18.497  22.713   5.938
47795W        W48659  21.338  23.652   6.643
47796W        W48660  21.788  25.321   5.844
47797W        W48661  19.561  24.985   5.343
47798W        W48662  20.864  25.389   6.358
47799W        W48663  20.676  22.639   6.156
47800W        W48664  19.954  25.535   6.247
47801W        W48665  21.614  22.392   4.771
47802W        W48666  21.395  23.693   5.942
47803W        W48667  18.101  22.874   6.225
47804W        W48668  21.276  22.584   5.121
47805W        W48669  21.491  22.786   6.773
47806W        W48670  20.474  24.628   5.246
47807W        W48671  19.777  25.258   4.897
47808W        W48672  18.785  22.156   4.015
47809W        W48673  20.072  22.150   5.781
47810W        W48674  18.953  25.091   3.753
47811W        W48675  19.881  23.833   4.362
47812W        W48676  20.104  24.246   6.720
47813W        W48677  20.085  22.306   4.654
47814W        W48678  21.359  22.061   5.137
47815W        W48679  21.048  25.427   5.462
47816W        W48680  20.135  25.215   5.857
47817W        W48681  19.767  24.056   5.770
47818W        W48682  21.605  24.927   6.157
47819W        W48683  19.309  22.133   4.585
47820W        W48684  19.674  24.957   5.863
47821W        W48685  19.203  22.558   3.460
47822W        W48686  20.041  23.129   6.000
47823W        W48687  20.916  22.013   5.801
47824W        W48688  18.354  24.089   5.854
47825W        W48689  20.019  23.642   3.894
47826W        W48690  19.128  22.006   3.612
47827W        W48691  20.334  23.142   4.849
47828W        W48692  20.857  22.177   6.329
47829W        W48693  19.636  24.115   6.523
47830W        W48694  20.416  23.830   6.902
47831W        W48695  20.918  23.895   6.826
47832W        W48696  20.062  22.170   7.227
47833W        W48697  19.291  22.734   5.660
47834W        W48698  18.900  22.471   5.385
47835W        W48699  18.543  25.363   4.569
47836W        W48700  20.186  24.913   6.809
47837W        W48701  18.796  24.664   4.252
47838W        W48702  21.039  23.830   5.568
47839W        W48703  20.955  23.341   5.712
47840W        W48704  20.281  23.904   5.855
47841W        W48705  20.831  24.282   3.451
47842W        W48706  20.497  22.257   4.982
47843W        W48707  21.684  22.692   4.316
47844W        W48708  18.452  25.339   6.683
47845W        W48709  18.541  24.554   6.093
47846W        W48710  18.101  25.253   4.243
47847W        W48711  20.209  22.635   5.940
47848W        W48712  19.764  24.699   3.942
47849W        W48713  21.191  25.552   4.139
47850W        W48714  20.509  23.524   4.014
47851W        W48715  20.036  22.833   4.551
47852W        W48716  20.179  22.668   3.654
47853W        W48717  20.614  24.323   6.856
47854W        W48718  21.294  22.369   4.356
47855W        W48719  18.332  21.908   3.886
47856W        W48720  19.584  24.479   6.090
47857W        W48721  19.699  24.517   5.570
47858W        W48722  19.368  24.322   3.847
47859W        W48723  18.393  24.877   4.483
47860W        W48724  19.052  23.554   6.808
47861W        W48725  19.612  22.136   6.980
47862W        W48726  20.344  22.237   6.311
47863W        W48727  19.714  21.983   4.893
47864W        W48728  20.991  21.951   4.368
47865W        W48729  18.528  22.144   5.853
47866W        W48730  18.240  22.932   5.260
47867W        W48731  21.420  21.937   5.650
47868W        W48732  18.938  22.431   4.421
47869W        W48733  21.294  22.234   6.074
47870W        W48734  21.473  23.260   3.853
47871W        W48735  18.935  22.448   5.906
47872W        W48736  20.242  22.883   6.413
47873W        W48737  18.317  22.430   3.899
47874W        W48738  19.023  23.976   6.465
47875W        W48739  20.432  23.380   5.743
47876W        W48740  20.234  25.574   4.045
47877W        W48741  18.186  23.715   3.430
47878W        W48742  19.257  24.459   6.572
47879W        W48743  18.660  23.597   6.447
47880W        W48744  19.814  23.731   6.160
47881W        W48745  21.306  21.949   6.517
47882W        W48746  21.846  23.729   6.685
47883W        W48747  21.792  23.572   4.105
47884W        W48748  20.592  23.984   4.598
47885W        W48749  21.096  25.651   3.629
47886W        W48750  20.348  23.494   7.318
47887W        W48751  18.954  24.551   7.030
47888W        W48752  21.939  22.321   7.043
47889W        W48753  21.513  23.195   5.863
47890W        W48754  19.895  25.365   7.164
47891W        W48755  19.629  22.005   3.812
47892W        W48756  21.309  24.512   3.373
47893W        W48757  19.180  22.715   6.710
47894W        W48758  19.776  24.639   6.580
47895W        W48759  21.604  22.402   6.433
47896W        W48760  20.731  25.779   3.986
47897W        W48761  21.215  24.156   5.905
47898W        W48762  19.454  22.319   6.532
47899W        W48763  19.901  23.429   7.059
47900W        W48764  19.158  24.667   4.625
47901W        W48765  21.117  23.907   4.630
47902W        W48766  18.771  22.726   6.385
47903W        W48767  19.998  24.424   5.160
47904W        W48768  21.822  23.224   5.351
47905W        W48769  20.000  21.999   6.668
47906W        W48770  20.988  24.606   5.859
47907W        W48771  21.321  24.998   5.730
47908W        W48772  20.263  25.116   3.801
47909W        W48773  18.385  24.701   6.941
47910W        W48774  19.272  22.688   6.213
47911W        W48775  19.281  22.226   5.115
47912W        W48776  20.629  22.896   5.722
47913W        W48777  19.549  23.827   3.810
47914W        W48778  21.526  23.976   5.495
47915W        W48779  18.803  24.987   6.801
47916W        W48780  21.413  25.596   4.645
47917W        W48781  19.712  22.510   4.956
47918W        W48782  19.268  24.212   5.662
47919W        W48783  19.301  25.549   6.138
47920W        W48784  21.501  25.569   6.890
47921W        W48785  20.737  23.722   5.994
47922W        W48786  18.492  22.953   3.562
47923W        W48787  21.703  25.207   4.880
47924W        W48788  21.519  22.366   3.889
47925W        W48789  19.494  21.809   6.412
47926W        W48790  21.414  24.820   5.240
47927W        W48791  21.331  23.102   5.108
47928W        W48792  19.850  23.051   5.106
47929W        W48793  19.857  23.291   6.458
47930W        W48794  20.858  24.448   6.412
47931W        W48795  19.710  22.798   6.468
47932W        W48796  19.410  25.472   5.259
47933W        W48797  18.851  25.490   6.999
47934W        W48798  19.272  24.775   4.093
47935W        W48799  21.375  24.286   4.952
47936W        W48800  19.100  23.155   6.454
47937W        W48801  21.919  23.049   4.024
47938W        W48802  19.538  24.389   4.337
47939W        W48803  20.713  23.556   6.504
47940W        W48804  20.634  23.169   6.159
47941W        W48805  19.034  23.510   6.075
47942W        W48806  21.316  25.364   6.091
47943W        W48807  20.963  22.220   7.103
47944W        W48808  18.588  22.132   6.755
47945W        W48809  18.948  22.995   5.977
47946W        W48810  19.532  22.977   3.504
47947W        W48811  18.273  24.878   6.455
47948W        W48812  19.959  23.542   5.708
47949W        W48813  19.683  22.500   3.640
47950W        W48814  19.168  23.773   5.414
47951W        W48815  18.411  25.437   6.187
47952W        W48816  21.269  23.592   4.216
47953W        W48817  21.432  22.299   6.896
47954W        W48818  20.934  24.538   5.029
47955W        W48819  18.511  23.523   6.952
47956W        W48820  21.448  21.924   4.113
47957W        W48821  21.486  24.217   4.447
47958W        W48822  20.107  23.205   4.152
47959W        W48823  21.025  22.231   3.919
47960W        W48824  21.084  22.926   6.006
47961W        W48825  18.329  23.462   5.353
47962W        W48826  18.986  24.227   5.213
47963W        W48827  20.853  23.094   4.810
47964W        W48828  19.840  22.621   5.465
47965W        W48829  21.878  24.481   6.229
47966W        W48830  21.781  22.311   5.785
47967W        W48831  18.396  25.216   5.056
47968W        W48832  18.702  24.454   4.781
47969W        W48833  18.724  22.208   7.270
47970W        W48834  19.776  24.859   7.119
47971W        W48835  21.901  23.711   5.223
47972W        W48836  20.854  23.893   4.109
47973W        W48837  20.466  25.556   6.067
47974W        W48838  21.082  24.212   7.192
47975W        W48839  19.730  22.015   4.329
47976W        W48840  20.733  22.707   5.138
47977W        W48841  18.275  24.558   5.651
47978W        W48842  19.649  22.509   4.407
47979W        W48843  19.554  23.757   6.882
47980W        W48844  20.521  22.688   4.661
47981W        W48845  20.540  24.332   6.018
47982W        W48846  18.731  25.034   6.303
47983W        W48847  19.330  24.875   6.869
47984W        W48848  19.293  22.342   4.013
47985W        W48849  20.857  22.644   4.260
47986W        W48850  20.700  24.953   6.625
47987W        W48851  19.663  23.579   5.289
47988W        W48852  18.854  25.403   5.965
47989W        W48853  21.654  25.427   3.945
47990W        W48854  18.663  24.055   6.828
47991W        W48855  20.712  24.251   5.534
47992W        W48856  19.283  24.200   4.795
47993W        W48857  19.223  24.978   6.138
47994W        W48858  20.041  22.202   5.243
47995W        W48859  18.235  24.381   4.500
47996W        W48860  20.022  23.154   3.625
47997W        W48861  18.442  23.843   5.014
47998W        W48862  19.861  22.337   6.240
47999W        W48863  21.406  21.972   3.555
48000W        W48864  21.530  23.949   7.050
48001W        W48865  20.393  25.331   7.047
48002W        W48866  21.810  24.268   6.704
48003W        W48867  21.315  25.049   7.102
48004W        W48868  18.909  25.648   5.512
48005W        W48869  21.865  24.105   4.909
48006W        W48870  20.625  23.188   5.294
48007W        W48871  20.234  21.782   5.033
48008W        W48872  19.292  25.102   4.875
48009W        W48873  19.709  22.728   5.951
48010W        W48874  19.607  22.165   5.533
48011W        W48875  18.497  25.013   3.994
48012W        W48876  20.431  24.126   5.086
48013W        W48877  19.171  25.272   6.576
48014W        W48878  18.155  23.800   4.589
48015W        W48879  18.394  22.489   5.484
48016W        W48880  20.207  24.348   5.613
48017W        W48881  18.437  22.318   4.412
48018W        W48882  21.100  23.402   6.226
48019W        W48883  20.818  22.675   3.731
48020W        W48884  21.543  24.532   5.800
48021W        W48885  20.065  24.861   5.485
48022W        W48886  19.486  25.375   4.449
48023W        W48887  20.796  21.989   3.499
48024W        W48888  18.534  25.275   5.580
48025W        W48889  20.470  22.985   7.130
48026W        W48890  18.725  22.611   6.915
48027W        W48891  18.122  23.303   4.855
48028W        W48892  19.623  23.308   3.904
48029W        W48893  20.731  23.424   6.990
48030W        W48894  19.468  23.612   5.797
48031W        W48895  20.910  21.937   4.894
48032W        W48896  19.952  25.370   5.384
48033W        W48897  21.069  24.913   6.253
48034W        W48898  20.922  24.888   5.415
48035W        W48899  20.936  24.015   5.103
48036W        W48900  19.997  22.325   4.020
48037W        W48901  21.855  21.944   4.941
48038W        W48902  19.328  23.468   3.479
48039W        W48903  21.753  22.826   5.000
48040W        W48904  20.397  23.989   3.808
48041W        W48905  21.282  24.234   6.704
48042W        W48906  20.799  25.265   3.816
48043W        W48907  19.621  22.634   6.946
48044W        W48908  19.476  23.174   6.091
48045W        W48909  21.543  24.742   6.656
48046W        W48910  20.629  22.526   6.639
48047W        W48911  18.149  23.208   6.637
48048W        W48912  20.280  23.542   6.230
48049W        W48913  18.470  24.329   5.228
48050W        W48914  18.546  23.572   5.879
48051W        W48915  21.038  23.951   6.334
48052W        W48916  20.883  25.370   6.883
48053W        W48917  20.683  23.026   6.646
48054W        W48918  21.199  25.240   5.001
48055W        W48919  20.004  25.025   6.322
48056W        W48920  19.227  25.232   5.672
48057W        W48921  21.352  24.479   6.267
48058W        W48922  20.152  24.481   7.166
48059W        W48923  18.777  24.411   5.648
48060W        W48924  21.420  23.774   5.037
48061W        W48925  20.849  25.168   5.858
48062W        W48926  18.796  24.906   5.811
48063W        W48927  20.002  22.962   6.890
48064W        W48928  20.414  25.887   4.446
48065W        W48929  19.640  24.359   6.995
48066W        W48930  19.607  24.883   4.497
48067W        W48931  18.988  23.071   3.356
48068W        W48932  18.209  25.705  10.576
48069W        W48933  18.643  24.511  10.158
48070W        W48934  21.513  24.318   8.157
48071W        W48935  21.763  25.477   9.957
48072W        W48936  19.326  25.290   7.586
48073W        W48937  19.492  23.155   8.354
48074W        W48938  19.123  23.024   8.740
48075W        W48939  19.878  23.767   8.037
48076W        W48940  19.751  25.222  10.221
48077W        W48941  18.289  22.701  10.250
48078W        W48942  18.934  21.916  10.176
48079W        W48943  20.823  22.353   9.008
48080W        W48944  20.569  23.033   7.642
48081W        W48945  20.980  22.746  10.614
48082W        W48946  18.379  22.369   9.874
48083W        W48947  18.464  25.247  10.805
48084W        W48948  19.851  24.638   7.595
48085W        W48949  18.283  23.049   9.300
48086W        W48950  19.379  23.264  10.426
48087W        W48951  21.558  22.764   9.161
48088W        W48952  21.619  24.111   9.765
48089W        W48953  19.981  23.396   8.947
48090W        W48954  20.620  24.730   9.302
48091W        W48955  18.718  23.933   9.478
48092W        W48956  18.090  23.530   9.214
48093W        W48957  19.241  23.610  10.061
48094W        W48958  21.611  23.343  10.357
48095W        W48959  19.209  24.688   8.949
48096W        W48960  20.373  24.581   9.877
48097W        W48961  19.658  23.156   9.253
48098W        W48962  19.756  23.857   8.942
48099W        W48963  20.672  24.889  10.619
48100W        W48964  19.914  23.945  10.762
48101W        W48965  19.926  23.945  10.223
48102W        W48966  18.324  23.046  10.640
48103W        W48967  21.143  24.952  10.360
48104W        W48968  18.681  22.132   8.449
48105W        W48969  19.272  24.566   9.454
48106W        W48970  21.775  24.453   8.987
48107W        W48971  21.065  22.712   9.311
48108W        W48972  21.389  22.643   7.294
48109W        W48973  21.800  23.636   9.682
48110W        W48974  19.955  24.989   9.412
48111W        W48975  21.594  25.130   7.978
48112W        W48976  18.557  25.435   8.042
48113W        W48977  19.081  25.425   8.441
48114W        W48978  18.910  22.251   9.768
48115W        W48979  21.459  23.269   9.848
48116W        W48980  20.874  23.536   8.644
48117W        W48981  20.815  23.482   7.640
48118W        W48982  20.175  24.490   9.403
48119W        W48983  20.047  22.629   8.776
48120W        W48984  20.433  25.053   9.680
48121W        W48985  21.384  23.669   8.627
48122W        W48986  20.403  22.231   8.144
48123W        W48987  18.906  25.045   8.131
48124W        W48988  18.328  22.491   8.566
48125W        W48989  20.973  23.120   8.972
48126W        W48990  18.695  24.789   9.104
48127W        W48991  19.813  25.157   7.625
48128W        W48992  20.966  23.107   7.299
48129W        W48993  18.562  24.857   9.591
48130W        W48994  19.055  24.795   9.871
48131W        W48995  19.338  23.883   8.653
48132W        W48996  19.351  22.369   9.489
48133W        W48997  21.823  22.014   9.154
48134W        W48998  19.183  24.095   6.943
48135W        W48999  18.664  22.682   7.439
48136W        W49000  18.803  24.784   8.595
48137W        W49001  19.605  24.354   8.702
48138W        W49002  21.295  25.424  10.219
48139W        W49003  20.203  22.762   7.894
48140W        W49004  21.555  25.337   9.053
48141W        W49005  21.173  23.094  10.268
48142W        W49006  22.006  24.868   8.692
48143W        W49007  20.472  24.058  10.020
48144W        W49008  18.205  23.657   8.400
48145W        W49009  19.211  24.069   9.584
48146W        W49010  20.450  23.140   8.133
48147W        W49011  20.285  23.556   8.391
48148W        W49012  18.681  23.142   9.752
48149W        W49013  18.787  23.147  10.328
48150W        W49014  18.614  22.080   8.944
48151W        W49015  20.313  22.446   9.200
48152W        W49016  20.158  22.523  10.479
48153W        W49017  20.430  22.383   7.616
48154W        W49018  22.000  25.255  10.526
48155W        W49019  20.464  22.102  10.434
48156W        W49020  21.525  24.621  10.491
48157W        W49021  21.131  22.594  10.118
48158W        W49022  20.807  22.477   8.488
48159W        W49023  21.115  23.582  10.423
48160W        W49024  18.979  25.176   8.895
48161W        W49025  19.703  22.778   7.783
48162W        W49026  19.086  22.297  10.508
48163W        W49027  21.177  22.709   8.235
48164W        W49028  21.475  23.062   8.040
48165W        W49029  19.424  25.572  10.419
48166W        W49030  19.124  21.993   7.940
48167W        W49031  21.628  22.386   8.837
48168W        W49032  21.718  24.861   7.429
48169W        W49033  18.414  23.933   9.053
48170W        W49034  20.459  22.453   7.098
48171W        W49035  21.861  24.922   9.210
48172W        W49036  21.696  22.003   9.676
48173W        W49037  20.202  23.302  10.249
48174W        W49038  19.949  24.319   8.020
48175W        W49039  20.751  23.730  10.741
48176W        W49040  20.414  21.949   9.120
48177W        W49041  18.767  22.931   9.130
48178W        W49042  18.493  24.072   9.918
48179W        W49043  20.654  25.232   8.755
48180W        W49044  21.471  22.783   9.660
48181W        W49045  20.390  25.344  10.107
48182W        W49046  21.210  23.840   7.612
48183W        W49047  19.785  23.557   8.503
48184W        W49048  21.729  21.965  10.214
48185W        W49049  20.050  24.156   9.774
48186W        W49050  20.122  22.954   9.164
48187W        W49051  20.950  23.153   8.029
48188W        W49052  21.155  22.840   7.703
48189W        W49053  21.139  24.984   8.149
48190W        W49054  21.241  24.461   9.063
48191W        W49055  20.745  23.609   8.147
48192W        W49056  20.270  23.805   8.843
48193W        W49057  21.178  23.594   9.076
48194W        W49058  18.569  22.683   9.539
48195W        W49059  21.418  23.732  10.051
48196W        W49060  21.898  25.400   9.438
48197W        W49061  19.711  24.873   8.735
48198W        W49062  20.880  25.383   9.895
48199W        W49063  20.581  22.694   9.801
48200W        W49064  20.017  25.416   9.774
48201W        W49065  21.556  22.337   8.328
48202W        W49066  21.301  23.679   9.557
48203W        W49067  18.175  22.912   9.783
48204W        W49068  21.187  22.694   8.776
48205W        W49069  21.625  22.884  10.132
48206W        W49070  20.610  24.667   8.761
48207W        W49071  19.959  25.257   8.488
48208W        W49072  18.717  22.278   7.785
48209W        W49073  19.955  22.134   9.459
48210W        W49074  18.773  25.432   7.531
48211W        W49075  19.382  23.628   8.186
48212W        W49076  19.959  24.471  10.161
48213W        W49077  19.968  22.278   8.416
48214W        W49078  21.185  22.168   8.674
48215W        W49079  21.057  25.454   9.024
48216W        W49080  20.392  25.217   9.205
48217W        W49081  19.749  24.120   9.379
48218W        W49082  21.714  24.998   9.701
48219W        W49083  19.135  22.332   8.358
48220W        W49084  19.701  24.588   9.160
48221W        W49085  19.162  22.583   7.220
48222W        W49086  19.983  23.167   9.701
48223W        W49087  20.822  22.069   9.448
48224W        W49088  18.212  23.934   9.524
48225W        W49089  19.878  23.640   7.531
48226W        W49090  19.216  22.079   7.360
48227W        W49091  20.126  23.097   8.563
48228W        W49092  20.764  22.231   9.951
48229W        W49093  19.484  24.255  10.002
48230W        W49094  20.355  23.953  10.505
48231W        W49095  20.857  24.043  10.345
48232W        W49096  20.105  22.140  10.875
48233W        W49097  19.315  22.753   9.126
48234W        W49098  18.820  22.563   8.731
48235W        W49099  18.597  25.263   8.530
48236W        W49100  20.236  24.889  10.347
48237W        W49101  19.463  24.352   7.792
48238W        W49102  20.684  23.724   9.119
48239W        W49103  20.869  23.361   9.429
48240W        W49104  20.253  23.949   9.348
48241W        W49105  20.617  24.349   7.385
48242W        W49106  20.403  22.271   8.708
48243W        W49107  21.932  22.816   8.067
48244W        W49108  18.531  25.397  10.313
48245W        W49109  18.803  24.403   9.678
48246W        W49110  18.045  25.332   8.054
48247W        W49111  20.087  22.658   9.603
48248W        W49112  19.426  24.866   7.863
48249W        W49113  21.245  25.147   7.616
48250W        W49114  20.320  23.536   7.836
48251W        W49115  19.835  22.759   8.297
48252W        W49116  20.073  22.685   7.364
48253W        W49117  20.549  24.463  10.336
48254W        W49118  21.086  22.204   8.144
48255W        W49119  18.325  21.983   7.643
48256W        W49120  19.738  24.558   9.671
48257W        W49121  19.348  24.169   9.087
48258W        W49122  19.368  24.662   7.361
48259W        W49123  18.367  24.911   8.228
48260W        W49124  18.976  23.604  10.498
48261W        W49125  19.591  22.163  10.759
48262W        W49126  20.248  22.304   9.994
48263W        W49127  19.526  21.994   8.481
48264W        W49128  20.727  22.013   7.811
48265W        W49129  18.532  22.170   9.436
48266W        W49130  18.379  22.960   8.794
48267W        W49131  21.305  22.164   9.190
48268W        W49132  18.679  22.587   8.202
48269W        W49133  21.207  22.337   9.663
48270W        W49134  21.312  23.328   7.618
48271W        W49135  18.910  22.444   9.221
48272W        W49136  20.168  22.829  10.075
48273W        W49137  18.206  22.483   7.656
48274W        W49138  18.990  24.067  10.051
48275W        W49139  20.339  23.412   9.352
48276W        W49140  20.282  25.430   7.564
48277W        W49141  18.150  23.743   7.439
48278W        W49142  19.143  24.525  10.287
48279W        W49143  18.693  23.598  10.046
48280W        W49144  19.632  23.825   9.788
48281W        W49145  21.230  22.049  10.095
48282W        W49146  21.906  23.746  10.164
48283W        W49147  21.749  23.464   7.873
48284W        W49148  20.345  23.984   8.109
48285W        W49149  21.182  25.521   7.278
48286W        W49150  20.324  23.456  10.722
48287W        W49151  18.794  24.515  10.660
48288W        W49152  21.816  22.438  10.813
48289W        W49153  21.333  23.183   9.361
48290W        W49154  19.850  25.364  10.698
48291W        W49155  19.589  21.984   7.706
48292W        W49156  21.048  24.704   7.379
48293W        W49157  19.185  22.799  10.423
48294W        W49158  19.532  24.770  10.098
48295W        W49159  21.613  22.404   9.969
48296W        W49160  20.927  25.579   7.737
48297W        W49161  21.021  24.054   9.338
48298W        W49162  19.276  22.552   9.985
48299W        W49163  19.817  23.446  10.652
48300W        W49164  19.121  24.536   8.207
48301W        W49165  21.107  23.988   8.313
48302W        W49166  18.774  22.699  10.036
48303W        W49167  20.070  24.561   8.513
48304W        W49168  21.511  23.194   8.880
48305W        W49169  19.945  22.092  10.374
48306W        W49170  21.078  24.555   9.543
48307W        W49171  21.350  24.961   9.344
48308W        W49172  20.214  24.962   7.362
48309W        W49173  18.356  24.752  10.539
48310W        W49174  19.059  22.807   9.572
48311W        W49175  19.125  22.117   8.834
48312W        W49176  20.596  22.940   9.351
48313W        W49177  19.514  23.997   7.362
48314W        W49178  21.523  24.047   9.212
48315W        W49179  18.845  24.966  10.347
48316W        W49180  21.303  25.518   8.211
48317W        W49181  19.545  22.452   8.725
48318W        W49182  18.951  23.806   9.026
48319W        W49183  19.665  25.469   9.420
48320W        W49184  21.697  25.664  10.442
48321W        W49185  20.635  23.750   9.645
48322W        W49186  18.373  22.974   7.111
48323W        W49187  21.705  25.274   8.538
48324W        W49188  21.532  22.548   7.859
48325W        W49189  19.452  22.076  10.200
48326W        W49190  21.503  24.866   8.850
48327W        W49191  21.225  23.187   8.472
48328W        W49192  19.671  22.960   8.791
48329W        W49193  19.743  23.455  10.121
48330W        W49194  20.970  24.498  10.039
48331W        W49195  19.633  22.948  10.077
48332W        W49196  19.487  25.353   8.739
48333W        W49197  18.960  25.410  10.614
48334W        W49198  19.012  25.051   7.257
48335W        W49199  21.604  24.790   8.354
48336W        W49200  19.149  23.094   9.982
48337W        W49201  21.699  22.978   7.589
48338W        W49202  19.523  24.123   8.245
48339W        W49203  20.613  23.594  10.243
48340W        W49204  20.508  23.239   9.800
48341W        W49205  19.009  23.546   9.627
48342W        W49206  21.372  25.428   9.595
48343W        W49207  20.959  22.225  10.551
48344W        W49208  18.576  22.249  10.333
48345W        W49209  19.150  23.236   9.252
48346W        W49210  19.648  22.997   7.301
48347W        W49211  18.386  24.964  10.063
48348W        W49212  19.876  23.601   9.407
48349W        W49213  19.629  22.414   7.416
48350W        W49214  18.991  23.514   8.583
48351W        W49215  18.500  25.639   9.865
48352W        W49216  21.284  23.552   8.102
48353W        W49217  21.457  22.359  10.459
48354W        W49218  21.148  24.616   8.565
48355W        W49219  18.454  23.542  10.539
48356W        W49220  21.533  22.030   7.879
48357W        W49221  21.386  24.679   7.797
48358W        W49222  19.951  23.241   8.096
48359W        W49223  21.124  22.309   7.638
48360W        W49224  21.005  22.984   9.769
48361W        W49225  18.492  23.476   8.805
48362W        W49226  19.034  24.298   8.672
48363W        W49227  20.767  22.999   8.495
48364W        W49228  19.774  22.547   9.200
48365W        W49229  22.013  24.597   9.875
48366W        W49230  21.836  22.449   9.472
48367W        W49231  18.436  25.242   9.012
48368W        W49232  18.631  24.396   8.315
48369W        W49233  18.629  22.294  10.957
48370W        W49234  19.771  24.781  10.539
48371W        W49235  21.920  23.974   8.833
48372W        W49236  20.751  23.991   7.793
48373W        W49237  20.483  25.567   9.614
48374W        W49238  21.156  24.041  10.763
48375W        W49239  19.891  21.883   8.106
48376W        W49240  20.538  22.764   8.870
48377W        W49241  18.401  24.385   9.337
48378W        W49242  19.566  22.338   8.093
48379W        W49243  19.496  23.794  10.454
48380W        W49244  20.357  22.684   8.374
48381W        W49245  20.629  24.269   9.580
48382W        W49246  18.784  25.225   9.862
48383W        W49247  19.343  25.054  10.549
48384W        W49248  19.215  22.456   7.728
48385W        W49249  20.727  22.645   7.976
48386W        W49250  20.702  24.930  10.099
48387W        W49251  19.442  23.422   8.858
48388W        W49252  19.184  25.486   9.663
48389W        W49253  21.667  25.357   7.363
48390W        W49254  18.613  24.018  10.411
48391W        W49255  20.580  24.243   9.069
48392W        W49256  19.014  24.011   8.241
48393W        W49257  19.507  25.045   9.674
48394W        W49258  19.950  22.142   8.920
48395W        W49259  18.177  24.384   8.042
48396W        W49260  20.057  23.154   7.583
48397W        W49261  18.656  23.925   8.596
48398W        W49262  19.747  22.380   9.887
48399W        W49263  21.544  22.161   7.377
48400W        W49264  21.570  23.812  10.556
48401W        W49265  20.360  25.325  10.623
48402W        W49266  21.848  24.261  10.231
48403W        W49267  21.516  25.174  10.664
48404W        W49268  19.229  25.527   9.163
48405W        W49269  21.905  24.388   8.492
48406W        W49270  20.487  23.286   8.878
48407W        W49271  20.196  21.818   8.564
48408W        W49272  19.272  24.949   8.493
48409W        W49273  19.578  22.807   9.604
48410W        W49274  19.525  22.000   9.175
48411W        W49275  18.348  25.136   7.680
48412W        W49276  19.974  24.040   8.485
48413W        W49277  19.252  25.214  10.086
48414W        W49278  18.477  23.954   8.092
48415W        W49279  18.407  22.536   9.077
48416W        W49280  20.062  24.273   8.955
48417W        W49281  18.301  22.212   8.117
48418W        W49282  20.986  23.473   9.925
48419W        W49283  20.810  22.635   7.405
48420W        W49284  21.607  24.529   9.465
48421W        W49285  20.162  24.800   8.982
48422W        W49286  19.508  25.287   8.159
48423W        W49287  20.554  21.982   7.313
48424W        W49288  18.759  25.435   9.366
48425W        W49289  20.412  22.924  10.674
48426W        W49290  18.702  22.686  10.562
48427W        W49291  18.278  23.162   8.325
48428W        W49292  19.568  23.294   7.761
48429W        W49293  20.827  23.232  10.714
48430W        W49294  19.393  23.692   9.295
48431W        W49295  20.741  21.956   8.479
48432W        W49296  19.923  25.294   9.003
48433W        W49297  21.196  24.984   9.844
48434W        W49298  20.995  24.919   8.989
48435W        W49299  21.003  24.024   8.825
48436W        W49300  19.973  22.314   7.802
48437W        W49301  21.867  21.980   8.623
48438W        W49302  19.413  23.455   7.265
48439W        W49303  21.613  22.826   8.503
48440W        W49304  20.278  23.977   7.556
48441W        W49305  21.337  24.186  10.262
48442W        W49306  20.784  25.185   7.371
48443W        W49307  19.632  22.529  10.396
48444W        W49308  19.484  23.335   9.687
48445W        W49309  21.628  25.032  10.193
48446W        W49310  20.624  22.570  10.301
48447W        W49311  18.327  23.221  10.153
48448W        W49312  20.163  23.648   9.844
48449W        W49313  18.543  24.378   8.824
48450W        W49314  18.626  23.444   9.300
48451W        W49315  21.029  24.018   9.856
48452W        W49316  20.826  25.360  10.404
48453W        W49317  20.671  23.068  10.242
48454W        W49318  21.201  25.200   8.609
48455W        W49319  19.994  24.922   9.908
48456W        W49320  19.484  25.061   9.161
48457W        W49321  21.492  24.582   9.967
48458W        W49322  20.145  24.415  10.636
48459W        W49323  18.889  24.318   9.184
48460W        W49324  21.462  24.190   8.669
48461W        W49325  20.879  25.178   9.428
48462W        W49326  19.043  25.026   9.412
48463W        W49327  19.898  22.966  10.498
48464W        W49328  19.942  24.949   8.069
48465W        W49329  19.616  24.291  10.495
48466W        W49330  19.615  24.629   8.275
48467W        W49331  19.043  23.075   7.053
48468W        W49332  18.378  25.810  14.338
48469W        W49333  18.645  24.434  13.922
48470W        W49334  21.712  23.919  12.086
48471W        W49335  21.758  25.475  13.828
48472W        W49336  19.392  25.420  10.917
48473W        W49337  19.831  23.202  12.098
48474W        W49338  19.170  23.165  12.687
48475W        W49339  20.111  23.978  12.007
48476W        W49340  19.827  25.264  14.016
48477W        W49341  18.206  22.554  13.947
48478W        W49342  18.803  21.739  13.786
48479W        W49343  20.745  22.268  12.593
48480W        W49344  20.490  23.187  11.128
48481W        W49345  20.921  22.543  14.314
48482W        W49346  18.317  22.232  13.540
48483W        W49347  18.504  25.315  14.497
48484W        W49348  19.768  24.471  10.969
48485W        W49349  18.288  22.944  13.049
48486W        W49350  19.477  23.055  14.047
48487W        W49351  21.555  22.800  12.716
48488W        W49352  21.340  24.034  13.532
48489W        W49353  20.097  23.115  12.523
48490W        W49354  20.484  24.643  12.912
48491W        W49355  18.725  23.892  13.217
48492W        W49356  18.060  23.374  12.892
48493W        W49357  19.470  23.535  13.835
48494W        W49358  21.594  23.452  14.044
48495W        W49359  19.009  24.895  12.687
48496W        W49360  20.299  24.597  13.713
48497W        W49361  19.449  22.846  13.038
48498W        W49362  19.873  23.788  12.951
48499W        W49363  20.665  24.980  14.370
48500W        W49364  20.029  24.084  14.567
48501W        W49365  19.957  23.709  13.756
48502W        W49366  17.872  22.873  14.208
48503W        W49367  21.065  24.823  14.028
48504W        W49368  18.554  22.093  12.037
48505W        W49369  19.122  24.842  13.311
48506W        W49370  21.778  24.457  12.804
48507W        W49371  21.177  22.662  13.033
48508W        W49372  21.311  22.532  10.953
48509W        W49373  21.941  23.240  13.371
48510W        W49374  19.951  25.246  13.176
48511W        W49375  21.639  25.321  11.692
48512W        W49376  18.491  25.499  11.657
48513W        W49377  18.930  25.372  12.111
48514W        W49378  18.781  22.078  13.331
48515W        W49379  21.394  23.318  13.548
48516W        W49380  20.985  23.474  12.270
48517W        W49381  20.939  23.301  11.321
48518W        W49382  20.052  24.614  13.273
48519W        W49383  19.982  22.634  12.350
48520W        W49384  20.500  24.909  13.354
48521W        W49385  21.497  23.575  12.404
48522W        W49386  20.396  22.072  11.771
48523W        W49387  18.823  25.113  11.675
48524W        W49388  18.197  22.441  12.201
48525W        W49389  20.909  22.941  12.687
48526W        W49390  18.485  24.916  12.747
48527W        W49391  19.612  24.968  10.990
48528W        W49392  21.221  23.038  10.978
48529W        W49393  18.305  24.981  13.230
48530W        W49394  19.047  24.750  13.796
48531W        W49395  19.764  23.531  12.517
48532W        W49396  19.246  22.353  13.053
48533W        W49397  21.878  21.980  12.944
48534W        W49398  19.105  24.105  10.558
48535W        W49399  18.565  22.808  11.044
48536W        W49400  18.687  24.902  12.248
48537W        W49401  19.749  24.441  12.698
48538W        W49402  21.270  25.329  13.907
48539W        W49403  20.287  22.718  11.192
48540W        W49404  21.598  25.402  12.773
48541W        W49405  21.184  23.180  13.992
48542W        W49406  21.977  24.935  12.486
48543W        W49407  20.392  24.098  13.791
48544W        W49408  18.226  23.513  12.033
48545W        W49409  19.017  24.351  13.430
48546W        W49410  20.680  22.946  11.598
48547W        W49411  20.602  23.759  12.489
48548W        W49412  18.612  23.022  13.452
48549W        W49413  18.713  22.995  13.956
48550W        W49414  18.661  21.950  12.521
48551W        W49415  20.254  22.315  12.790
48552W        W49416  20.083  22.402  14.205
48553W        W49417  20.446  22.257  11.286
48554W        W49418  21.878  25.222  14.284
48555W        W49419  20.429  21.959  14.110
48556W        W49420  21.375  24.449  14.172
48557W        W49421  21.023  22.412  13.828
48558W        W49422  20.794  22.374  12.076
48559W        W49423  21.152  23.562  14.328
48560W        W49424  18.726  25.332  12.584
48561W        W49425  19.795  22.820  11.346
48562W        W49426  18.985  22.153  14.043
48563W        W49427  21.204  22.627  11.910
48564W        W49428  21.560  22.989  11.774
48565W        W49429  19.398  25.479  14.281
48566W        W49430  19.117  21.976  11.516
48567W        W49431  21.600  22.287  12.561
48568W        W49432  21.914  25.029  10.988
48569W        W49433  18.407  24.017  12.791
48570W        W49434  20.547  22.440  10.811
48571W        W49435  21.829  24.972  12.983
48572W        W49436  21.528  21.996  13.339
48573W        W49437  20.319  23.120  13.952
48574W        W49438  20.087  24.417  12.283
48575W        W49439  20.529  24.157  14.433
48576W        W49440  20.373  21.868  12.600
48577W        W49441  18.775  22.861  12.892
48578W        W49442  18.397  24.120  13.534
48579W        W49443  20.193  25.458  12.569
48580W        W49444  21.554  22.917  13.266
48581W        W49445  20.348  25.434  13.843
48582W        W49446  21.214  23.545  10.930
48583W        W49447  20.219  23.526  12.236
48584W        W49448  21.715  21.867  13.819
48585W        W49449  19.907  24.238  13.650
48586W        W49450  20.025  22.751  12.861
48587W        W49451  21.086  23.153  11.849
48588W        W49452  21.177  22.851  11.445
48589W        W49453  21.580  24.998  12.107
48590W        W49454  21.250  24.496  12.786
48591W        W49455  20.606  23.329  11.937
48592W        W49456  20.272  23.524  12.799
48593W        W49457  21.261  23.717  12.814
48594W        W49458  18.546  22.537  13.214
48595W        W49459  21.119  23.661  13.810
48596W        W49460  21.831  25.522  13.198
48597W        W49461  19.519  24.900  12.632
48598W        W49462  20.838  25.432  13.649
48599W        W49463  20.700  22.617  13.494
48600W        W49464  19.946  25.593  13.564
48601W        W49465  21.531  22.229  12.028
48602W        W49466  21.072  23.589  13.268
48603W        W49467  18.166  22.742  13.486
48604W        W49468  21.158  22.564  12.447
48605W        W49469  21.333  22.716  14.076
48606W        W49470  20.501  24.266  12.558
48607W        W49471  19.645  25.208  12.223
48608W        W49472  18.642  22.204  11.476
48609W        W49473  19.964  21.964  13.046
48610W        W49474  18.792  25.397  11.203
48611W        W49475  20.064  23.529  11.747
48612W        W49476  20.119  24.349  14.129
48613W        W49477  19.940  22.279  11.966
48614W        W49478  21.150  22.062  12.345
48615W        W49479  21.114  25.539  12.854
48616W        W49480  20.425  25.159  12.914
48617W        W49481  19.693  24.220  13.181
48618W        W49482  21.640  25.121  13.477
48619W        W49483  19.036  22.294  11.939
48620W        W49484  19.617  24.839  13.142
48621W        W49485  19.062  22.628  10.916
48622W        W49486  19.915  22.900  13.320
48623W        W49487  20.666  22.077  13.079
48624W        W49488  18.191  23.776  13.206
48625W        W49489  20.077  23.519  11.211
48626W        W49490  19.121  22.122  11.012
48627W        W49491  20.296  22.951  12.071
48628W        W49492  20.675  22.103  13.623
48629W        W49493  19.391  24.053  13.658
48630W        W49494  20.223  23.794  14.189
48631W        W49495  20.721  23.834  14.076
48632W        W49496  20.102  22.039  14.553
48633W        W49497  19.163  22.652  12.620
48634W        W49498  18.716  22.480  12.342
48635W        W49499  18.434  25.337  12.153
48636W        W49500  20.229  24.920  14.107
48637W        W49501  19.361  24.619  11.271
48638W        W49502  20.829  23.442  12.826
48639W        W49503  20.872  23.050  13.191
48640W        W49504  20.208  23.900  13.345
48641W        W49505  20.656  24.248  10.799
48642W        W49506  20.343  22.276  12.269
48643W        W49507  21.817  22.554  11.753
48644W        W49508  18.543  25.465  13.952
48645W        W49509  18.586  24.610  13.449
48646W        W49510  18.014  25.356  11.578
48647W        W49511  20.245  22.485  13.286
48648W        W49512  19.220  25.134  11.313
48649W        W49513  21.446  25.240  11.187
48650W        W49514  20.514  23.557  11.491
48651W        W49515  19.856  22.756  11.846
48652W        W49516  19.880  22.596  10.885
48653W        W49517  20.624  24.527  14.091
48654W        W49518  21.094  22.074  11.787
48655W        W49519  18.256  21.967  11.225
48656W        W49520  19.490  24.546  13.534
48657W        W49521  19.291  24.475  12.983
48658W        W49522  19.302  24.589  10.766
48659W        W49523  18.317  24.966  11.821
48660W        W49524  18.944  23.484  13.972
48661W        W49525  19.460  22.096  14.186
48662W        W49526  20.175  22.177  13.702
48663W        W49527  19.488  22.007  12.096
48664W        W49528  20.760  21.887  11.435
48665W        W49529  18.361  22.061  13.039
48666W        W49530  18.404  23.029  12.565
48667W        W49531  21.195  22.167  12.863
48668W        W49532  18.539  22.567  11.829
48669W        W49533  21.081  22.272  13.348
48670W        W49534  21.444  23.301  11.375
48671W        W49535  18.792  22.333  12.830
48672W        W49536  20.061  22.685  13.769
48673W        W49537  18.220  22.476  11.263
48674W        W49538  18.865  23.968  13.731
48675W        W49539  20.429  23.063  12.934
48676W        W49540  19.832  25.377  11.218
48677W        W49541  18.125  23.912  11.127
48678W        W49542  19.385  24.414  14.022
48679W        W49543  18.561  23.547  13.599
48680W        W49544  19.635  23.726  13.378
48681W        W49545  21.166  21.908  13.728
48682W        W49546  21.735  23.718  13.627
48683W        W49547  21.457  23.497  11.901
48684W        W49548  20.614  23.838  11.991
48685W        W49549  21.304  25.633  10.750
48686W        W49550  20.300  23.336  14.435
48687W        W49551  19.013  24.646  14.303
48688W        W49552  21.686  22.555  14.410
48689W        W49553  21.292  23.207  12.922
48690W        W49554  19.839  25.442  14.558
48691W        W49555  19.610  21.997  11.279
48692W        W49556  21.025  24.497  10.550
48693W        W49557  19.133  22.660  13.932
48694W        W49558  19.808  24.704  13.913
48695W        W49559  21.511  22.477  13.584
48696W        W49560  21.278  25.732  11.254
48697W        W49561  20.997  24.218  13.170
48698W        W49562  19.181  22.282  13.575
48699W        W49563  19.855  23.426  14.180
48700W        W49564  19.223  24.766  11.741
48701W        W49565  21.171  23.924  12.142
48702W        W49566  18.695  22.523  13.711
48703W        W49567  21.780  23.284  12.740
48704W        W49568  19.916  21.932  14.067
48705W        W49569  20.953  24.736  13.136
48706W        W49570  21.326  25.105  13.078
48707W        W49571  20.132  24.919  10.866
48708W        W49572  18.308  24.658  14.265
48709W        W49573  19.027  22.717  13.344
48710W        W49574  19.141  22.170  12.454
48711W        W49575  20.661  22.596  12.986
48712W        W49576  19.443  24.063  10.934
48713W        W49577  21.487  24.111  13.050
48714W        W49578  18.666  24.976  14.091
48715W        W49579  21.508  25.707  12.020
48716W        W49580  19.499  22.505  12.207
48717W        W49581  18.934  24.137  12.768
48718W        W49582  19.547  25.603  13.214
48719W        W49583  21.536  25.608  14.281
48720W        W49584  20.555  23.486  13.248
48721W        W49585  18.106  23.409  10.964
48722W        W49586  21.811  25.399  12.318
48723W        W49587  21.370  22.388  11.467
48724W        W49588  19.342  21.806  13.753
48725W        W49589  21.467  24.928  12.616
48726W        W49590  21.286  23.076  12.352
48727W        W49591  19.612  22.953  12.529
48728W        W49592  19.861  23.174  13.742
48729W        W49593  20.827  24.581  13.610
48730W        W49594  19.511  22.742  13.590
48731W        W49595  19.246  25.357  12.523
48732W        W49596  18.878  25.613  14.301
48733W        W49597  18.949  24.977  10.889
48734W        W49598  21.638  24.542  12.330
48735W        W49599  19.124  23.109  13.671
48736W        W49600  21.658  22.804  11.215
48737W        W49601  19.663  24.132  12.270
48738W        W49602  20.435  23.571  13.739
48739W        W49603  20.399  23.030  13.457
48740W        W49604  19.111  23.600  13.476
48741W        W49605  21.301  25.523  13.411
48742W        W49606  20.932  22.049  14.187
48743W        W49607  18.483  22.132  14.023
48744W        W49608  19.029  23.209  13.171
48745W        W49609  19.499  22.947  10.838
48746W        W49610  18.262  24.820  13.764
48747W        W49611  19.814  23.226  12.931
48748W        W49612  19.481  22.470  11.164
48749W        W49613  18.921  23.618  12.828
48750W        W49614  18.604  25.600  13.452
48751W        W49615  20.995  23.637  11.715
48752W        W49616  21.446  22.235  14.039
48753W        W49617  21.118  24.435  12.299
48754W        W49618  18.415  23.446  14.113
48755W        W49619  21.563  21.926  11.571
48756W        W49620  21.433  24.316  11.909
48757W        W49621  20.190  23.080  11.553
48758W        W49622  20.936  22.241  11.098
48759W        W49623  21.157  22.852  13.582
48760W        W49624  18.436  23.545  12.572
48761W        W49625  19.251  24.466  12.474
48762W        W49626  20.813  22.877  12.168
48763W        W49627  19.633  22.477  12.713
48764W        W49628  21.864  24.676  13.569
48765W        W49629  21.684  22.441  13.086
48766W        W49630  18.171  25.297  12.583
48767W        W49631  18.349  24.463  12.037
48768W        W49632  18.548  22.163  14.560
48769W        W49633  19.841  24.952  14.420
48770W        W49634  21.805  23.816  12.778
48771W        W49635  20.877  23.821  11.225
48772W        W49636  20.408  25.472  13.333
48773W        W49637  21.045  24.063  14.384
48774W        W49638  19.820  21.858  11.731
48775W        W49639  20.461  22.722  12.523
48776W        W49640  18.255  24.490  12.937
48777W        W49641  19.503  22.323  11.680
48778W        W49642  19.730  24.011  14.088
48779W        W49643  20.336  22.576  11.716
48780W        W49644  20.500  24.326  13.319
48781W        W49645  18.685  25.101  13.591
48782W        W49646  19.411  24.948  14.131
48783W        W49647  19.051  22.491  11.432
48784W        W49648  20.837  22.458  11.558
48785W        W49649  20.639  25.007  13.834
48786W        W49650  19.410  23.536  12.958
48787W        W49651  19.097  25.400  13.429
48788W        W49652  21.791  25.527  10.959
48789W        W49653  18.439  23.951  14.021
48790W        W49654  20.593  23.926  12.982
48791W        W49655  19.462  24.012  12.722
48792W        W49656  19.510  25.072  13.611
48793W        W49657  19.887  22.116  12.454
48794W        W49658  18.117  24.404  11.573
48795W        W49659  20.014  23.086  10.968
48796W        W49660  18.359  23.980  12.255
48797W        W49661  19.668  22.239  13.712
48798W        W49662  21.478  22.061  11.065
48799W        W49663  21.435  23.946  14.072
48800W        W49664  20.294  25.382  14.340
48801W        W49665  21.761  24.235  13.822
48802W        W49666  21.302  25.126  14.372
48803W        W49667  18.972  25.610  12.950
48804W        W49668  21.990  24.162  12.435
48805W        W49669  20.572  23.232  12.446
48806W        W49670  20.143  21.808  12.135
48807W        W49671  19.199  24.946  12.216
48808W        W49672  19.732  22.412  13.222
48809W        W49673  19.524  21.998  12.789
48810W        W49674  18.388  25.093  11.314
48811W        W49675  20.095  23.944  12.521
48812W        W49676  19.062  25.260  13.929
48813W        W49677  18.260  23.937  11.737
48814W        W49678  18.333  22.529  12.706
48815W        W49679  20.156  24.228  12.945
48816W        W49680  18.171  22.187  11.691
48817W        W49681  20.836  23.281  13.634
48818W        W49682  20.800  22.767  11.110
48819W        W49683  21.502  24.633  13.204
48820W        W49684  20.008  24.883  12.822
48821W        W49685  19.321  25.263  11.801
48822W        W49686  20.565  21.909  10.928
48823W        W49687  18.422  25.450  12.990
48824W        W49688  20.478  22.838  14.363
48825W        W49689  18.710  22.548  14.237
48826W        W49690  18.271  22.976  12.074
48827W        W49691  19.618  23.287  11.230
48828W        W49692  20.723  23.341  14.154
48829W        W49693  19.231  23.978  13.165
48830W        W49694  20.692  21.874  12.193
48831W        W49695  19.716  25.374  12.745
48832W        W49696  21.129  25.002  13.544
48833W        W49697  20.956  25.046  12.714
48834W        W49698  20.969  24.083  12.648
48835W        W49699  19.962  22.340  11.431
48836W        W49700  21.847  21.886  12.310
48837W        W49701  19.345  23.529  10.867
48838W        W49702  21.609  22.701  12.215
48839W        W49703  20.371  23.891  11.038
48840W        W49704  21.009  24.206  13.892
48841W        W49705  21.034  25.197  10.843
48842W        W49706  19.618  22.573  14.094
48843W        W49707  19.516  23.235  13.371
48844W        W49708  21.583  24.920  13.955
48845W        W49709  20.527  22.449  13.979
48846W        W49710  18.219  23.066  13.857
48847W        W49711  20.056  23.412  13.331
48848W        W49712  18.575  24.455  12.517
48849W        W49713  18.540  23.396  13.091
48850W        W49714  20.766  23.909  13.514
48851W        W49715  20.820  25.432  14.166
48852W        W49716  20.785  22.876  13.942
48853W        W49717  21.274  25.356  12.374
48854W        W49718  20.075  25.050  13.621
48855W        W49719  19.299  25.206  13.000
48856W        W49720  21.350  24.542  13.674
48857W        W49721  20.258  24.621  14.533
48858W        W49722  18.778  24.567  12.994
48859W        W49723  21.473  24.100  12.520
48860W        W49724  20.850  25.255  13.180
48861W        W49725  18.792  25.137  13.088
48862W        W49726  19.970  22.915  14.253
48863W        W49727  19.664  24.989  11.530
48864W        W49728  19.704  24.462  14.421
48865W        W49729  19.629  24.664  12.171
48866W        W49730  18.997  23.129  10.789
48867W        W49731  18.351  25.737  18.055
48868W        W49732  18.739  24.473  17.609
48869W        W49733  21.039  23.925  15.316
48870W        W49734  21.779  25.371  17.354
48871W        W49735  19.367  25.371  14.800
48872W        W49736  19.600  23.546  16.290
48873W        W49737  19.254  23.132  16.300
48874W        W49738  20.128  23.618  15.530
48875W        W49739  19.849  25.191  17.764
48876W        W49740  18.243  22.515  17.634
48877W        W49741  18.860  21.716  17.461
48878W        W49742  20.888  22.245  16.374
48879W        W49743  20.640  23.170  14.785
48880W        W49744  20.992  22.719  17.912
48881W        W49745  18.383  22.178  17.193
48882W        W49746  18.490  25.229  18.143
48883W        W49747  19.843  24.741  14.895
48884W        W49748  18.334  22.844  16.677
48885W        W49749  19.471  23.093  17.738
48886W        W49750  21.448  22.785  16.509
48887W        W49751  21.510  24.136  17.288
48888W        W49752  20.056  23.357  16.369
48889W        W49753  20.620  24.794  16.769
48890W        W49754  18.893  24.085  16.968
48891W        W49755  18.240  23.568  16.662
48892W        W49756  19.516  23.603  17.639
48893W        W49757  21.623  23.315  17.829
48894W        W49758  19.201  24.825  16.414
48895W        W49759  20.408  24.576  17.418
48896W        W49760  19.657  23.142  16.625
48897W        W49761  19.810  24.018  16.497
48898W        W49762  20.647  24.867  18.138
48899W        W49763  20.094  23.994  18.259
48900W        W49764  20.005  23.796  17.743
48901W        W49765  17.928  22.905  17.989
48902W        W49766  21.091  24.722  17.900
48903W        W49767  18.626  21.979  15.726
48904W        W49768  19.226  24.498  16.990
48905W        W49769  21.696  24.112  16.291
48906W        W49770  20.960  22.698  16.681
48907W        W49771  21.252  22.641  14.677
48908W        W49772  21.855  23.342  16.990
48909W        W49773  19.943  25.226  16.949
48910W        W49774  21.224  24.399  15.162
48911W        W49775  18.801  25.478  15.370
48912W        W49776  19.123  25.506  15.795
48913W        W49777  18.985  22.122  17.171
48914W        W49778  21.489  23.203  17.327
48915W        W49779  20.883  23.487  16.074
48916W        W49780  20.713  23.669  14.591
48917W        W49781  20.153  24.610  16.970
48918W        W49782  20.101  22.531  16.154
48919W        W49783  20.454  25.067  17.153
48920W        W49784  21.153  23.512  15.607
48921W        W49785  20.486  22.180  15.532
48922W        W49786  19.051  25.063  15.543
48923W        W49787  18.325  22.361  15.903
48924W        W49788  21.073  23.132  16.407
48925W        W49789  18.648  24.893  16.466
48926W        W49790  19.804  25.255  15.060
48927W        W49791  21.000  23.029  14.451
48928W        W49792  18.394  24.951  16.929
48929W        W49793  19.096  24.809  17.377
48930W        W49794  19.437  24.021  16.163
48931W        W49795  19.341  22.274  16.822
48932W        W49796  21.813  21.999  16.407
48933W        W49797  19.215  23.913  14.117
48934W        W49798  18.823  22.541  14.756
48935W        W49799  18.878  24.855  15.990
48936W        W49800  19.577  24.557  16.091
48937W        W49801  21.358  25.146  17.593
48938W        W49802  20.340  22.847  15.116
48939W        W49803  21.551  25.681  16.139
48940W        W49804  21.127  23.235  17.691
48941W        W49805  21.699  24.628  16.094
48942W        W49806  20.519  24.066  17.489
48943W        W49807  17.763  23.564  15.963
48944W        W49808  19.285  24.128  17.332
48945W        W49809  20.344  23.140  15.579
48946W        W49810  20.378  23.498  15.985
48947W        W49811  18.720  22.964  17.053
48948W        W49812  18.719  22.987  17.581
48949W        W49813  18.629  21.922  16.247
48950W        W49814  20.349  22.347  16.604
48951W        W49815  20.070  22.468  17.683
48952W        W49816  20.468  22.254  15.010
48953W        W49817  21.837  25.151  17.842
48954W        W49818  20.384  22.054  17.724
48955W        W49819  21.604  24.684  17.866
48956W        W49820  21.073  22.516  17.443
48957W        W49821  20.879  22.342  15.848
48958W        W49822  21.254  23.591  18.085
48959W        W49823  18.972  25.268  16.273
48960W        W49824  19.765  22.653  15.014
48961W        W49825  19.032  22.158  17.714
48962W        W49826  21.114  22.729  15.633
48963W        W49827  21.405  23.084  15.422
48964W        W49828  19.356  25.460  18.058
48965W        W49829  19.059  21.667  15.184
48966W        W49830  21.495  22.360  16.235
48967W        W49831  21.672  24.761  14.451
48968W        W49832  18.533  24.018  16.552
48969W        W49833  20.549  22.270  14.494
48970W        W49834  21.670  24.960  16.500
48971W        W49835  21.642  22.000  17.081
48972W        W49836  20.301  23.366  17.783
48973W        W49837  20.111  24.479  15.650
48974W        W49838  20.825  23.776  18.341
48975W        W49839  20.456  21.857  16.465
48976W        W49840  18.827  22.799  16.488
48977W        W49841  18.819  23.913  17.441
48978W        W49842  20.330  25.219  16.166
48979W        W49843  21.345  22.754  17.037
48980W        W49844  20.363  25.313  17.583
48981W        W49845  21.181  23.815  14.812
48982W        W49846  19.951  23.797  16.009
48983W        W49847  21.763  22.043  17.605
48984W        W49848  20.046  24.217  17.331
48985W        W49849  20.097  22.864  16.544
48986W        W49850  20.839  23.113  15.457
48987W        W49851  21.059  22.954  15.033
48988W        W49852  21.322  24.708  15.737
48989W        W49853  20.884  24.408  16.580
48990W        W49854  20.653  23.588  15.548
48991W        W49855  20.269  23.831  16.400
48992W        W49856  21.248  23.607  16.565
48993W        W49857  18.677  22.487  16.881
48994W        W49858  21.375  23.692  17.572
48995W        W49859  21.780  25.382  16.818
48996W        W49860  19.682  24.982  16.362
48997W        W49861  20.912  25.362  17.405
48998W        W49862  20.644  22.489  17.034
48999W        W49863  20.011  25.593  17.315
49000W        W49864  21.403  22.305  15.679
49001W        W49865  21.457  23.683  17.046
49002W        W49866  18.276  22.698  17.164
49003W        W49867  21.094  22.683  16.154
49004W        W49868  21.465  22.819  17.684
49005W        W49869  20.537  24.686  16.257
49006W        W49870  19.843  25.281  15.959
49007W        W49871  18.737  22.125  15.075
49008W        W49872  20.006  21.961  16.697
49009W        W49873  18.860  25.529  14.825
49010W        W49874  19.507  23.672  15.784
49011W        W49875  20.149  24.296  17.816
49012W        W49876  20.009  22.261  15.715
49013W        W49877  21.218  21.990  16.028
49014W        W49878  20.826  25.640  16.470
49015W        W49879  20.419  25.340  16.695
49016W        W49880  19.746  24.291  16.933
49017W        W49881  21.461  25.052  17.068
49018W        W49882  19.104  22.089  15.483
49019W        W49883  19.638  24.804  16.861
49020W        W49884  19.210  22.489  14.412
49021W        W49885  20.027  23.127  16.999
49022W        W49886  20.810  21.987  16.820
49023W        W49887  18.417  23.882  17.075
49024W        W49888  19.904  23.574  14.671
49025W        W49889  19.049  22.035  14.567
49026W        W49890  20.246  23.001  16.062
49027W        W49891  20.768  22.103  17.327
49028W        W49892  19.661  24.165  17.680
49029W        W49893  20.472  23.867  17.956
49030W        W49894  20.954  23.930  17.844
49031W        W49895  20.001  22.102  18.085
49032W        W49896  19.359  22.650  16.461
49033W        W49897  18.798  22.489  16.035
49034W        W49898  18.638  25.349  15.889
49035W        W49899  20.241  24.842  17.822
49036W        W49900  19.656  24.472  15.329
49037W        W49901  20.742  23.714  16.506
49038W        W49902  20.844  23.321  16.812
49039W        W49903  20.176  23.979  16.893
49040W        W49904  20.963  24.561  14.475
49041W        W49905  20.455  22.187  16.072
49042W        W49906  21.713  22.596  15.396
49043W        W49907  18.483  25.413  17.638
49044W        W49908  18.698  24.571  17.099
49045W        W49909  18.302  25.527  15.514
49046W        W49910  20.117  22.609  16.994
49047W        W49911  19.427  24.924  15.193
49048W        W49912  21.660  25.441  15.252
49049W        W49913  20.289  23.386  15.083
49050W        W49914  19.944  22.778  15.708
49051W        W49915  20.167  22.559  14.693
49052W        W49916  20.646  24.385  17.914
49053W        W49917  20.979  22.136  15.392
49054W        W49918  18.254  21.892  14.893
49055W        W49919  19.596  24.565  17.330
49056W        W49920  19.406  24.367  16.540
49057W        W49921  19.394  24.856  14.652
49058W        W49922  18.514  25.019  15.533
49059W        W49923  19.013  23.450  17.683
49060W        W49924  19.501  22.116  17.905
49061W        W49925  20.260  22.169  17.238
49062W        W49926  19.555  21.970  15.806
49063W        W49927  20.370  21.784  15.228
49064W        W49928  18.654  21.992  16.787
49065W        W49929  18.358  22.826  16.161
49066W        W49930  21.318  21.977  16.585
49067W        W49931  18.680  22.437  15.504
49068W        W49932  21.193  22.267  17.001
49069W        W49933  21.303  23.314  14.761
49070W        W49934  18.964  22.296  16.481
49071W        W49935  20.240  22.886  17.409
49072W        W49936  18.272  22.416  14.930
49073W        W49937  19.183  23.949  17.807
49074W        W49938  20.336  23.476  16.780
49075W        W49939  20.220  25.571  14.981
49076W        W49940  17.990  23.782  14.260
49077W        W49941  19.269  24.483  17.740
49078W        W49942  18.671  23.433  17.282
49079W        W49943  19.711  23.835  17.233
49080W        W49944  21.259  21.992  17.452
49081W        W49945  21.885  23.706  17.347
49082W        W49946  21.442  23.564  15.190
49083W        W49947  20.403  23.989  15.782
49084W        W49948  21.143  25.575  14.607
49085W        W49949  20.330  23.504  18.284
49086W        W49950  18.920  24.625  18.085
49087W        W49951  21.883  22.376  18.042
49088W        W49952  21.378  23.205  16.828
49089W        W49953  19.839  25.413  18.236
49090W        W49954  19.530  21.875  15.021
49091W        W49955  21.384  24.301  14.676
49092W        W49956  19.144  22.686  17.635
49093W        W49957  19.756  24.685  17.784
49094W        W49958  21.565  22.425  17.346
49095W        W49959  21.243  25.741  15.126
49096W        W49960  21.022  23.975  16.834
49097W        W49961  19.444  22.332  17.432
49098W        W49962  19.847  23.401  18.040
49099W        W49963  19.262  24.609  15.685
49100W        W49964  20.952  23.928  15.848
49101W        W49965  18.715  22.507  17.394
49102W        W49966  20.055  24.786  16.071
49103W        W49967  21.595  23.268  16.355
49104W        W49968  19.876  22.003  17.576
49105W        W49969  21.140  24.874  16.706
49106W        W49970  21.319  25.347  16.517
49107W        W49971  20.209  25.097  14.754
49108W        W49972  18.410  24.732  17.964
49109W        W49973  19.132  22.626  17.123
49110W        W49974  19.081  22.051  16.027
49111W        W49975  20.504  22.936  16.829
49112W        W49976  19.525  23.938  14.545
49113W        W49977  21.494  24.113  16.762
49114W        W49978  18.802  25.017  17.760
49115W        W49979  21.361  25.662  15.644
49116W        W49980  19.613  22.433  16.034
49117W        W49981  19.038  23.979  16.485
49118W        W49982  19.542  25.558  17.110
49119W        W49983  21.540  25.557  17.912
49120W        W49984  20.639  23.759  17.071
49121W        W49985  18.366  22.914  14.341
49122W        W49986  21.572  25.213  15.948
49123W        W49987  21.261  22.501  15.180
49124W        W49988  19.399  21.825  17.333
49125W        W49989  21.240  24.929  16.206
49126W        W49990  21.238  23.143  15.934
49127W        W49991  19.736  22.918  16.177
49128W        W49992  19.893  23.295  17.484
49129W        W49993  20.901  24.453  17.476
49130W        W49994  19.730  22.791  17.403
49131W        W49995  19.462  25.482  16.227
49132W        W49996  18.850  25.545  17.969
49133W        W49997  19.019  25.151  14.449
49134W        W49998  21.390  24.202  15.883
49135W        W49999  19.144  23.109  17.324
49136W        W50000  21.584  22.888  14.965
49137W        W50001  19.705  24.183  15.762
49138W        W50002  20.705  23.585  17.576
49139W        W50003  20.511  23.274  17.221
49140W        W50004  19.164  23.630  17.191
49141W        W50005  21.310  25.576  16.975
49142W        W50006  20.888  22.155  17.813
49143W        W50007  18.532  22.084  17.682
49144W        W50008  19.184  23.022  16.809
49145W        W50009  19.555  22.853  14.546
49146W        W50010  18.379  24.841  17.457
49147W        W50011  19.828  23.600  16.784
49148W        W50012  19.683  22.333  14.591
49149W        W50013  19.109  23.608  16.141
49150W        W50014  18.463  25.563  17.138
49151W        W50015  20.934  23.462  15.100
49152W        W50016  21.383  22.324  17.838
49153W        W50017  21.008  24.485  16.092
49154W        W50018  18.488  23.418  17.774
49155W        W50019  21.364  21.964  15.052
49156W        W50020  20.927  24.366  15.593
49157W        W50021  19.887  23.301  15.858
49158W        W50022  20.954  22.222  14.857
49159W        W50023  20.900  22.943  17.190
49160W        W50024  18.588  23.568  16.286
49161W        W50025  19.085  24.397  16.139
49162W        W50026  20.744  23.014  15.943
49163W        W50027  19.814  22.417  16.564
49164W        W50028  21.668  24.553  17.001
49165W        W50029  21.707  22.435  16.821
49166W        W50030  18.362  25.309  16.314
49167W        W50031  18.758  24.429  15.731
49168W        W50032  18.610  22.136  18.220
49169W        W50033  19.905  24.915  18.224
49170W        W50034  21.372  23.650  16.073
49171W        W50035  20.853  24.202  14.848
49172W        W50036  20.527  25.595  17.129
49173W        W50037  21.052  24.259  18.226
49174W        W50038  19.889  21.846  15.416
49175W        W50039  20.586  22.686  16.304
49176W        W50040  18.367  24.489  16.679
49177W        W50041  19.592  22.276  15.376
49178W        W50042  19.622  23.865  18.100
49179W        W50043  20.449  22.635  15.760
49180W        W50044  20.636  24.297  17.033
49181W        W50045  18.729  25.147  17.264
49182W        W50046  19.341  25.002  17.803
49183W        W50047  19.274  22.319  14.941
49184W        W50048  20.748  22.594  15.305
49185W        W50049  20.712  24.934  17.628
49186W        W50050  19.268  23.506  16.673
49187W        W50051  19.056  25.442  17.026
49188W        W50052  21.605  25.358  14.727
49189W        W50053  18.382  23.928  17.685
49190W        W50054  20.362  24.338  16.588
49191W        W50055  19.179  24.092  15.729
49192W        W50056  19.526  25.095  17.316
49193W        W50057  19.965  22.032  16.180
49194W        W50058  17.913  23.790  15.497
49195W        W50059  20.015  23.053  14.760
49196W        W50060  18.767  23.988  16.044
49197W        W50061  19.778  22.230  17.072
49198W        W50062  21.362  22.167  14.537
49199W        W50063  21.754  23.991  17.755
49200W        W50064  20.320  25.278  18.103
49201W        W50065  21.947  24.366  17.430
49202W        W50066  21.397  25.101  18.110
49203W        W50067  19.108  25.654  16.560
49204W        W50068  21.605  23.777  15.644
49205W        W50069  20.562  23.218  16.393
49206W        W50070  20.241  21.794  15.797
49207W        W50071  19.356  25.051  15.965
49208W        W50072  19.609  22.728  16.919
49209W        W50073  19.484  22.062  16.367
49210W        W50074  18.432  25.286  15.044
49211W        W50075  20.121  24.267  16.128
49212W        W50076  19.120  25.382  17.543
49213W        W50077  18.277  23.631  15.853
49214W        W50078  18.456  22.386  16.423
49215W        W50079  19.889  24.523  16.501
49216W        W50080  18.281  22.132  15.360
49217W        W50081  21.049  23.458  17.236
49218W        W50082  20.715  22.665  14.784
49219W        W50083  21.389  24.504  16.474
49220W        W50084  20.161  24.934  16.566
49221W        W50085  19.539  25.299  15.530
49222W        W50086  20.528  21.787  14.705
49223W        W50087  18.669  25.354  16.709
49224W        W50088  20.439  22.974  18.123
49225W        W50089  18.698  22.537  17.895
49226W        W50090  18.116  23.135  15.776
49227W        W50091  19.910  23.102  15.297
49228W        W50092  20.778  23.357  18.049
49229W        W50093  19.390  23.956  16.850
49230W        W50094  20.763  21.838  15.827
49231W        W50095  19.926  25.412  16.462
49232W        W50096  20.955  24.881  17.184
49233W        W50097  20.799  25.126  16.396
49234W        W50098  20.645  24.136  16.210
49235W        W50099  19.963  22.171  15.024
49236W        W50100  21.723  21.926  15.888
49237W        W50101  19.363  23.461  14.343
49238W        W50102  21.556  22.763  15.887
49239W        W50103  20.571  23.825  15.081
49240W        W50104  21.312  24.265  17.748
49241W        W50105  21.286  24.812  14.796
49242W        W50106  19.607  22.602  17.870
49243W        W50107  19.552  23.306  17.103
49244W        W50108  21.368  24.657  17.415
49245W        W50109  20.575  22.521  17.567
49246W        W50110  18.215  23.034  17.553
49247W        W50111  20.194  23.663  17.293
49248W        W50112  18.582  24.428  16.220
49249W        W50113  18.770  23.603  16.792
49250W        W50114  21.020  23.979  17.339
49251W        W50115  20.940  25.299  17.935
49252W        W50116  20.667  23.028  17.653
49253W        W50117  21.096  25.448  16.062
49254W        W50118  20.004  24.906  17.363
49255W        W50119  19.418  25.255  16.702
49256W        W50120  21.158  24.433  17.010
49257W        W50121  20.251  24.545  18.244
49258W        W50122  18.887  24.461  16.619
49259W        W50123  21.158  24.048  16.330
49260W        W50124  20.892  25.297  16.881
49261W        W50125  18.989  24.949  16.863
49262W        W50126  19.985  22.954  17.854
49263W        W50127  20.076  25.186  15.509
49264W        W50128  19.772  24.377  18.173
49265W        W50129  19.725  24.842  15.675
49266W        W50130  19.056  22.982  14.339
49267W        W50131  18.389  25.736  21.761
49268W        W50132  18.702  24.505  21.205
49269W        W50133  21.438  24.113  19.019
49270W        W50134  21.713  25.347  20.993
49271W        W50135  19.324  25.372  18.566
49272W        W50136  19.653  23.379  19.337
49273W        W50137  19.216  23.251  20.002
49274W        W50138  20.068  24.023  19.114
49275W        W50139  19.802  25.233  21.351
49276W        W50140  18.226  22.643  21.262
49277W        W50141  18.957  22.005  21.108
49278W        W50142  20.765  22.551  19.879
49279W        W50143  20.534  23.191  18.642
49280W        W50144  21.000  22.729  21.588
49281W        W50145  18.376  22.363  20.838
49282W        W50146  18.508  25.222  21.755
49283W        W50147  19.738  24.629  18.628
49284W        W50148  18.191  23.089  20.324
49285W        W50149  19.407  23.237  21.439
49286W        W50150  21.597  22.798  20.089
49287W        W50151  21.536  23.980  20.931
49288W        W50152  20.061  23.314  19.935
49289W        W50153  20.536  24.721  20.320
49290W        W50154  18.856  24.153  20.528
49291W        W50155  18.078  23.614  20.309
49292W        W50156  19.363  23.626  21.071
49293W        W50157  21.589  23.418  21.564
49294W        W50158  19.200  24.983  19.986
49295W        W50159  20.344  24.565  20.999
49296W        W50160  19.668  23.171  20.248
49297W        W50161  19.748  24.050  19.942
49298W        W50162  20.601  24.888  21.732
49299W        W50163  19.951  23.934  21.828
49300W        W50164  20.004  23.818  21.264
49301W        W50165  17.835  22.866  21.544
49302W        W50166  21.058  24.710  21.461
49303W        W50167  18.653  22.074  19.411
49304W        W50168  19.310  24.494  20.551
49305W        W50169  21.693  24.368  19.905
49306W        W50170  21.089  22.912  20.142
49307W        W50171  21.473  22.637  18.231
49308W        W50172  21.888  23.390  20.750
49309W        W50173  20.001  25.244  20.491
49310W        W50174  21.555  24.633  18.894
49311W        W50175  18.688  25.481  19.015
49312W        W50176  19.081  25.477  19.392
49313W        W50177  18.992  22.235  20.652
49314W        W50178  21.422  23.306  20.956
49315W        W50179  20.904  23.521  19.394
49316W        W50180  21.010  23.344  18.520
49317W        W50181  20.108  24.592  20.555
49318W        W50182  20.033  22.719  19.708
49319W        W50183  20.442  25.015  20.737
49320W        W50184  21.389  23.716  19.400
49321W        W50185  20.340  22.423  19.002
49322W        W50186  18.971  25.057  19.094
49323W        W50187  18.293  22.448  19.518
49324W        W50188  20.943  23.321  19.875
49325W        W50189  18.713  24.984  20.117
49326W        W50190  19.781  25.156  18.693
49327W        W50191  21.277  23.090  18.160
49328W        W50192  18.494  25.012  20.609
49329W        W50193  19.277  24.818  20.972
49330W        W50194  19.665  24.015  19.439
49331W        W50195  19.459  22.372  20.527
49332W        W50196  21.875  22.032  20.113
49333W        W50197  19.282  24.249  18.212
49334W        W50198  18.679  22.609  18.408
49335W        W50199  18.854  25.017  19.591
49336W        W50200  19.640  24.537  19.533
49337W        W50201  21.264  25.202  21.240
49338W        W50202  20.177  22.965  18.947
49339W        W50203  21.553  25.289  19.903
49340W        W50204  21.158  23.188  21.377
49341W        W50205  21.830  24.840  19.649
49342W        W50206  20.506  24.046  21.101
49343W        W50207  18.295  23.731  19.500
49344W        W50208  19.336  24.012  20.715
49345W        W50209  20.528  23.258  19.173
49346W        W50210  20.474  23.770  19.273
49347W        W50211  18.563  23.223  20.696
49348W        W50212  18.600  22.995  21.169
49349W        W50213  18.618  21.979  19.907
49350W        W50214  20.291  22.495  20.098
49351W        W50215  19.988  22.504  21.323
49352W        W50216  20.379  22.686  18.559
49353W        W50217  21.828  25.143  21.445
49354W        W50218  20.684  22.034  21.307
49355W        W50219  21.479  24.477  21.712
49356W        W50220  21.024  22.476  21.138
49357W        W50221  20.812  22.474  19.367
49358W        W50222  21.074  23.594  21.757
49359W        W50223  18.923  25.421  19.896
49360W        W50224  19.819  22.697  18.691
49361W        W50225  19.061  22.287  21.509
49362W        W50226  21.208  22.738  19.152
49363W        W50227  21.537  23.198  19.047
49364W        W50228  19.425  25.655  21.575
49365W        W50229  19.122  21.901  18.815
49366W        W50230  21.632  22.376  19.801
49367W        W50231  21.833  24.870  18.299
49368W        W50232  18.597  24.144  20.050
49369W        W50233  20.535  22.459  18.089
49370W        W50234  21.848  24.921  20.153
49371W        W50235  21.722  21.947  20.623
49372W        W50236  20.279  23.314  21.269
49373W        W50237  20.138  24.553  19.131
49374W        W50238  20.657  23.801  22.042
49375W        W50239  20.330  21.989  20.040
49376W        W50240  18.745  22.912  20.094
49377W        W50241  18.553  24.068  20.951
49378W        W50242  20.457  25.152  19.761
49379W        W50243  21.329  22.670  20.546
49380W        W50244  20.332  25.297  21.179
49381W        W50245  21.377  23.904  18.475
49382W        W50246  20.031  23.678  19.522
49383W        W50247  21.761  21.971  21.158
49384W        W50248  20.063  24.147  20.856
49385W        W50249  20.148  22.950  20.289
49386W        W50250  21.018  23.199  19.019
49387W        W50251  21.301  22.949  18.665
49388W        W50252  21.396  24.761  19.373
49389W        W50253  21.198  24.292  20.017
49390W        W50254  20.742  23.626  18.866
49391W        W50255  20.251  23.883  19.924
49392W        W50256  21.212  23.653  20.157
49393W        W50257  18.680  22.683  20.556
49394W        W50258  21.248  23.683  21.261
49395W        W50259  21.744  25.330  20.447
49396W        W50260  19.683  24.968  19.872
49397W        W50261  20.830  25.329  20.953
49398W        W50262  20.598  22.649  20.877
49399W        W50263  19.943  25.519  20.935
49400W        W50264  21.555  22.363  19.295
49401W        W50265  21.259  23.662  20.647
49402W        W50266  18.209  22.855  20.796
49403W        W50267  21.213  22.699  19.682
49404W        W50268  21.403  22.813  21.067
49405W        W50269  20.474  24.622  19.804
49406W        W50270  19.811  25.268  19.463
49407W        W50271  18.681  22.185  18.732
49408W        W50272  19.913  22.173  20.339
49409W        W50273  18.816  25.512  18.498
49410W        W50274  19.643  23.765  18.982
49411W        W50275  20.049  24.327  21.339
49412W        W50276  19.934  22.356  19.314
49413W        W50277  21.178  22.183  19.621
49414W        W50278  20.955  25.421  20.041
49415W        W50279  20.454  25.254  20.265
49416W        W50280  19.752  24.194  20.441
49417W        W50281  21.620  24.907  20.725
49418W        W50282  19.100  22.257  19.188
49419W        W50283  19.677  24.834  20.413
49420W        W50284  19.157  22.502  18.117
49421W        W50285  19.982  23.270  20.645
49422W        W50286  20.739  22.256  20.299
49423W        W50287  18.332  24.108  20.485
49424W        W50288  19.874  23.596  18.529
49425W        W50289  19.142  22.010  18.264
49426W        W50290  20.108  23.175  19.452
49427W        W50291  20.781  22.154  20.813
49428W        W50292  19.587  24.119  21.149
49429W        W50293  20.402  23.961  21.601
49430W        W50294  20.902  24.046  21.490
49431W        W50295  20.259  22.188  21.616
49432W        W50296  19.293  22.792  20.253
49433W        W50297  18.780  22.553  19.654
49434W        W50298  18.560  25.453  19.522
49435W        W50299  20.182  24.839  21.424
49436W        W50300  19.274  24.388  18.710
49437W        W50301  20.709  23.738  20.105
49438W        W50302  20.889  23.318  20.413
49439W        W50303  20.269  23.973  20.423
49440W        W50304  20.563  24.194  18.420
49441W        W50305  20.372  22.321  19.613
49442W        W50306  21.692  22.716  18.955
49443W        W50307  18.499  25.500  21.317
49444W        W50308  18.838  24.642  20.723
49445W        W50309  18.057  25.373  18.968
49446W        W50310  20.190  22.533  20.598
49447W        W50311  19.322  24.901  18.745
49448W        W50312  21.472  25.107  18.659
49449W        W50313  20.314  23.825  18.696
49450W        W50314  19.770  22.842  19.248
49451W        W50315  20.023  22.602  18.209
49452W        W50316  20.547  24.448  21.458
49453W        W50317  21.114  22.185  19.074
49454W        W50318  18.279  21.873  18.585
49455W        W50319  19.709  24.527  20.865
49456W        W50320  19.514  24.511  20.048
49457W        W50321  19.410  24.752  18.243
49458W        W50322  18.425  25.044  19.208
49459W        W50323  19.025  23.611  21.464
49460W        W50324  19.755  22.111  21.774
49461W        W50325  20.308  22.238  21.026
49462W        W50326  19.538  22.022  19.408
49463W        W50327  20.778  22.369  18.699
49464W        W50328  18.560  22.162  20.396
49465W        W50329  18.273  22.917  19.826
49466W        W50330  21.224  22.411  20.111
49467W        W50331  18.644  22.514  19.131
49468W        W50332  21.225  22.136  20.551
49469W        W50333  21.519  23.405  18.543
49470W        W50334  18.943  22.420  20.147
49471W        W50335  20.115  22.888  20.997
49472W        W50336  18.210  22.382  18.633
49473W        W50337  19.042  24.037  21.140
49474W        W50338  20.366  23.439  20.335
49475W        W50339  20.228  25.396  18.631
49476W        W50340  17.934  23.340  18.323
49477W        W50341  19.216  24.491  21.352
49478W        W50342  18.659  23.547  21.109
49479W        W50343  19.762  23.735  20.767
49480W        W50344  21.226  22.002  21.099
49481W        W50345  21.862  23.697  21.197
49482W        W50346  21.741  23.672  19.016
49483W        W50347  20.543  24.206  18.994
49484W        W50348  21.232  25.537  18.331
49485W        W50349  20.373  23.455  21.774
49486W        W50350  18.844  24.554  21.712
49487W        W50351  21.881  22.453  21.735
49488W        W50352  21.422  23.176  20.454
49489W        W50353  19.797  25.435  21.834
49490W        W50354  19.571  21.890  18.581
49491W        W50355  21.341  24.669  18.378
49492W        W50356  19.139  22.789  21.332
49493W        W50357  19.668  24.738  21.328
49494W        W50358  21.547  22.361  20.893
49495W        W50359  20.978  25.691  18.769
49496W        W50360  21.028  24.077  20.439
49497W        W50361  19.335  22.378  21.074
49498W        W50362  19.897  23.457  21.602
49499W        W50363  19.251  24.622  19.173
49500W        W50364  20.963  23.992  19.237
49501W        W50365  18.818  22.523  21.043
49502W        W50366  20.070  24.832  19.564
49503W        W50367  21.521  23.286  19.941
49504W        W50368  19.934  21.965  21.260
49505W        W50369  21.015  24.606  20.400
49506W        W50370  21.334  25.054  20.298
49507W        W50371  20.204  24.846  18.662
49508W        W50372  18.384  24.745  21.551
49509W        W50373  19.184  22.766  20.762
49510W        W50374  19.077  22.140  19.701
49511W        W50375  20.640  22.797  20.374
49512W        W50376  19.675  24.083  18.577
49513W        W50377  21.534  24.072  20.378
49514W        W50378  18.895  24.976  21.403
49515W        W50379  21.244  25.613  19.224
49516W        W50380  19.530  22.522  19.623
49517W        W50381  19.273  24.089  20.214
49518W        W50382  19.643  25.707  20.561
49519W        W50383  21.526  25.550  21.535
49520W        W50384  20.689  23.751  20.619
49521W        W50385  18.442  22.958  18.030
49522W        W50386  21.632  25.240  19.363
49523W        W50387  21.305  22.454  18.687
49524W        W50388  19.437  21.915  20.891
49525W        W50389  21.371  24.771  19.882
49526W        W50390  21.282  23.206  19.492
49527W        W50391  19.642  23.037  19.747
49528W        W50392  19.797  23.340  21.113
49529W        W50393  20.856  24.459  21.047
49530W        W50394  19.587  22.840  21.091
49531W        W50395  19.425  25.418  19.777
49532W        W50396  18.946  25.471  21.593
49533W        W50397  19.016  25.111  18.230
49534W        W50398  21.360  24.231  19.521
49535W        W50399  19.049  23.210  21.033
49536W        W50400  21.788  22.966  18.493
49537W        W50401  19.670  24.334  19.040
49538W        W50402  20.710  23.573  21.394
49539W        W50403  20.496  23.163  20.759
49540W        W50404  18.970  23.649  20.720
49541W        W50405  21.287  25.362  20.707
49542W        W50406  21.062  22.196  21.619
49543W        W50407  18.525  22.200  21.313
49544W        W50408  19.025  23.181  20.480
49545W        W50409  19.596  22.953  18.241
49546W        W50410  18.423  25.015  21.115
49547W        W50411  19.891  23.664  20.275
49548W        W50412  19.592  22.355  18.355
49549W        W50413  19.266  23.920  19.735
49550W        W50414  18.520  25.495  20.809
49551W        W50415  21.239  23.645  18.912
49552W        W50416  21.488  22.361  21.406
49553W        W50417  20.960  24.538  19.625
49554W        W50418  18.470  23.458  21.574
49555W        W50419  21.588  22.073  18.851
49556W        W50420  21.066  24.471  19.097
49557W        W50421  20.095  23.493  19.026
49558W        W50422  21.039  22.342  18.259
49559W        W50423  20.995  22.966  20.784
49560W        W50424  18.385  23.428  19.933
49561W        W50425  19.142  24.573  19.676
49562W        W50426  20.831  22.986  19.485
49563W        W50427  19.764  22.630  20.129
49564W        W50428  21.812  24.424  20.833
49565W        W50429  21.761  22.428  20.413
49566W        W50430  18.425  25.438  20.049
49567W        W50431  18.741  24.595  19.302
49568W        W50432  18.650  22.162  21.812
49569W        W50433  19.817  24.908  21.789
49570W        W50434  21.572  23.859  19.869
49571W        W50435  20.976  24.086  18.732
49572W        W50436  20.408  25.541  20.710
49573W        W50437  21.091  24.062  21.983
49574W        W50438  19.878  21.893  19.016
49575W        W50439  20.469  22.977  19.872
49576W        W50440  18.496  24.569  20.338
49577W        W50441  19.567  22.290  18.923
49578W        W50442  19.523  23.793  21.541
49579W        W50443  20.393  22.771  19.368
49580W        W50444  20.599  24.298  20.635
49581W        W50445  18.882  25.150  20.913
49582W        W50446  19.377  25.125  21.647
49583W        W50447  19.143  22.388  18.630
49584W        W50448  20.707  22.806  18.957
49585W        W50449  20.664  24.908  21.202
49586W        W50450  19.619  23.555  19.845
49587W        W50451  19.199  25.499  20.708
49588W        W50452  21.774  25.376  18.355
49589W        W50453  18.632  23.976  21.457
49590W        W50454  20.661  24.253  20.116
49591W        W50455  19.207  24.118  19.221
49592W        W50456  19.579  25.186  20.782
49593W        W50457  19.907  22.228  19.827
49594W        W50458  18.290  24.470  19.077
49595W        W50459  20.052  23.095  18.440
49596W        W50460  18.841  24.169  19.599
49597W        W50461  19.816  22.303  20.874
49598W        W50462  21.506  22.116  18.324
49599W        W50463  21.440  23.953  21.639
49600W        W50464  20.266  25.297  21.692
49601W        W50465  21.800  24.216  21.343
49602W        W50466  21.409  25.011  21.699
49603W        W50467  19.177  25.698  20.240
49604W        W50468  21.993  24.042  19.620
49605W        W50469  20.485  23.468  19.689
49606W        W50470  20.095  21.890  19.504
49607W        W50471  19.354  25.009  19.479
49608W        W50472  19.741  22.797  20.611
49609W        W50473  19.445  22.220  20.042
49610W        W50474  18.425  25.200  18.660
49611W        W50475  20.096  24.271  19.583
49612W        W50476  19.284  25.302  21.191
49613W        W50477  18.599  24.061  19.160
49614W        W50478  18.425  22.467  20.018
49615W        W50479  20.131  24.366  20.098
49616W        W50480  18.274  22.150  19.084
49617W        W50481  20.908  23.434  20.953
49618W        W50482  20.864  22.829  18.414
49619W        W50483  21.520  24.576  20.344
49620W        W50484  20.117  24.892  20.105
49621W        W50485  19.456  25.298  19.070
49622W        W50486  20.498  21.945  18.211
49623W        W50487  18.813  25.373  20.409
49624W        W50488  20.351  22.933  21.631
49625W        W50489  18.682  22.628  21.534
49626W        W50490  18.126  23.225  19.425
49627W        W50491  19.719  23.195  18.838
49628W        W50492  20.789  23.167  21.743
49629W        W50493  19.385  23.601  20.379
49630W        W50494  20.726  21.950  19.713
49631W        W50495  19.994  25.381  19.949
49632W        W50496  21.115  24.873  20.877
49633W        W50497  20.883  24.913  19.992
49634W        W50498  20.602  24.139  19.608
49635W        W50499  20.031  22.235  18.609
49636W        W50500  21.917  22.039  19.532
49637W        W50501  19.332  23.429  18.104
49638W        W50502  21.630  22.848  19.461
49639W        W50503  20.125  24.306  18.682
49640W        W50504  21.293  24.282  21.267
49641W        W50505  20.993  25.097  18.434
49642W        W50506  19.530  22.534  21.554
49643W        W50507  19.470  23.229  20.734
49644W        W50508  21.539  24.739  21.224
49645W        W50509  20.557  22.534  21.380
49646W        W50510  18.130  23.202  21.231
49647W        W50511  20.263  23.639  20.858
49648W        W50512  18.629  24.596  19.804
49649W        W50513  18.614  23.685  20.339
49650W        W50514  20.997  23.986  20.950
49651W        W50515  20.793  25.329  21.473
49652W        W50516  20.700  23.017  21.232
49653W        W50517  21.149  25.180  19.607
49654W        W50518  19.990  24.951  20.952
49655W        W50519  19.526  25.305  20.264
49656W        W50520  21.297  24.398  20.769
49657W        W50521  20.121  24.465  21.835
49658W        W50522  18.983  24.534  20.172
49659W        W50523  21.035  23.885  19.740
49660W        W50524  20.877  25.110  20.486
49661W        W50525  19.160  24.995  20.494
49662W        W50526  19.870  22.973  21.483
49663W        W50527  20.164  25.108  19.112
49664W        W50528  19.635  24.315  21.633
49665W        W50529  19.714  24.854  19.120
49666W        W50530  19.008  23.004  18.013
49667W        W50531  18.329  25.539  25.327
49668W        W50532  18.798  24.494  24.837
49669W        W50533  21.369  24.187  22.653
49670W        W50534  21.716  25.328  24.704
49671W        W50535  19.293  25.422  22.058
49672W        W50536  19.657  23.385  23.050
49673W        W50537  18.881  23.617  23.746
49674W        W50538  20.068  24.096  22.801
49675W        W50539  19.817  25.175  25.106
49676W        W50540  18.283  22.662  24.960
49677W        W50541  19.011  21.899  24.800
49678W        W50542  20.763  22.454  23.627
49679W        W50543  20.475  23.024  22.131
49680W        W50544  20.902  22.835  25.292
49681W        W50545  18.429  22.366  24.548
49682W        W50546  18.522  24.982  25.310
49683W        W50547  19.716  24.620  22.212
49684W        W50548  18.163  23.029  23.984
49685W        W50549  19.503  23.213  25.159
49686W        W50550  21.598  22.784  23.727
49687W        W50551  21.475  23.964  24.470
49688W        W50552  19.995  23.477  23.621
49689W        W50553  20.482  24.743  23.939
49690W        W50554  18.929  24.044  24.061
49691W        W50555  18.295  23.514  23.828
49692W        W50556  19.488  23.644  24.886
49693W        W50557  21.573  23.387  25.130
49694W        W50558  19.204  24.889  23.590
49695W        W50559  20.356  24.554  24.739
49696W        W50560  19.628  23.273  23.942
49697W        W50561  19.814  23.977  23.679
49698W        W50562  20.610  24.859  25.461
49699W        W50563  19.954  23.992  25.506
49700W        W50564  19.967  23.817  24.991
49701W        W50565  18.063  22.993  25.323
49702W        W50566  21.038  24.615  25.245
49703W        W50567  18.679  22.099  23.057
49704W        W50568  19.387  24.633  24.128
49705W        W50569  21.596  24.433  23.564
49706W        W50570  21.019  22.824  23.934
49707W        W50571  21.365  22.559  21.895
49708W        W50572  21.837  23.437  24.400
49709W        W50573  20.019  25.170  24.177
49710W        W50574  21.564  24.710  22.561
49711W        W50575  18.683  25.497  22.605
49712W        W50576  19.072  25.476  22.986
49713W        W50577  18.917  22.236  24.403
49714W        W50578  21.498  23.141  24.664
49715W        W50579  20.897  23.607  23.228
49716W        W50580  20.857  23.366  22.227
49717W        W50581  20.167  24.546  24.271
49718W        W50582  19.997  22.737  23.374
49719W        W50583  20.514  24.953  24.430
49720W        W50584  21.373  23.705  23.020
49721W        W50585  20.448  22.258  22.816
49722W        W50586  18.908  25.055  22.736
49723W        W50587  18.319  22.498  23.106
49724W        W50588  20.911  23.213  23.598
49725W        W50589  18.700  24.877  23.731
49726W        W50590  19.728  25.154  22.259
49727W        W50591  21.278  23.123  21.884
49728W        W50592  18.553  24.918  24.232
49729W        W50593  19.258  24.693  24.680
49730W        W50594  19.548  24.080  23.247
49731W        W50595  19.320  22.461  24.147
49732W        W50596  21.746  22.063  23.868
49733W        W50597  19.137  24.107  21.678
49734W        W50598  18.594  22.651  22.038
49735W        W50599  18.824  24.863  23.219
49736W        W50600  19.604  24.563  23.115
49737W        W50601  21.245  25.237  24.945
49738W        W50602  20.224  23.107  22.585
49739W        W50603  21.412  25.330  23.624
49740W        W50604  21.103  23.259  24.971
49741W        W50605  21.856  24.843  23.317
49742W        W50606  20.497  24.055  24.790
49743W        W50607  18.155  23.621  22.956
49744W        W50608  19.288  24.220  24.434
49745W        W50609  20.525  23.369  22.916
49746W        W50610  20.449  23.850  23.072
49747W        W50611  18.688  23.156  24.521
49748W        W50612  18.773  23.157  25.045
49749W        W50613  18.617  22.088  23.573
49750W        W50614  20.264  22.546  23.785
49751W        W50615  20.008  22.464  25.056
49752W        W50616  20.370  22.630  22.452
49753W        W50617  21.703  25.167  25.201
49754W        W50618  20.443  22.118  25.053
49755W        W50619  21.554  24.556  25.364
49756W        W50620  21.024  22.670  24.825
49757W        W50621  20.818  22.531  23.076
49758W        W50622  21.246  23.667  25.432
49759W        W50623  18.921  25.304  23.472
49760W        W50624  19.871  22.785  22.349
49761W        W50625  19.133  22.293  25.126
49762W        W50626  21.195  22.891  22.831
49763W        W50627  21.574  23.256  22.825
49764W        W50628  19.383  25.395  25.382
49765W        W50629  19.107  22.031  22.521
49766W        W50630  21.587  22.366  23.424
49767W        W50631  21.712  24.806  22.067
49768W        W50632  18.502  23.981  23.715
49769W        W50633  20.577  22.523  21.908
49770W        W50634  21.694  24.913  23.801
49771W        W50635  21.680  22.047  24.524
49772W        W50636  20.315  23.429  25.117
49773W        W50637  20.095  24.565  22.572
49774W        W50638  20.801  23.854  25.599
49775W        W50639  20.388  22.052  23.743
49776W        W50640  18.666  23.173  23.992
49777W        W50641  18.764  24.073  24.538
49778W        W50642  20.534  25.225  23.354
49779W        W50643  21.456  22.875  24.224
49780W        W50644  20.312  25.294  24.864
49781W        W50645  21.574  24.078  22.165
49782W        W50646  19.959  23.773  23.217
49783W        W50647  22.088  21.966  24.888
49784W        W50648  20.051  24.166  24.590
49785W        W50649  20.065  23.019  23.817
49786W        W50650  21.029  23.397  22.773
49787W        W50651  21.303  23.172  22.392
49788W        W50652  21.293  24.979  22.910
49789W        W50653  21.072  24.454  23.673
49790W        W50654  20.644  23.732  22.577
49791W        W50655  20.321  23.910  23.600
49792W        W50656  21.299  23.642  23.551
49793W        W50657  18.629  22.704  24.215
49794W        W50658  21.302  23.758  24.927
49795W        W50659  21.709  25.337  24.091
49796W        W50660  19.694  24.917  23.467
49797W        W50661  20.806  25.377  24.703
49798W        W50662  20.597  22.734  24.506
49799W        W50663  19.860  25.435  24.625
49800W        W50664  21.371  22.430  22.944
49801W        W50665  21.257  23.697  24.060
49802W        W50666  18.218  22.903  24.490
49803W        W50667  21.147  22.741  23.429
49804W        W50668  21.417  22.875  25.100
49805W        W50669  20.528  24.552  23.440
49806W        W50670  19.810  25.227  23.069
49807W        W50671  18.676  22.227  22.320
49808W        W50672  19.985  22.178  24.054
49809W        W50673  18.791  25.558  22.089
49810W        W50674  19.616  23.830  22.800
49811W        W50675  20.057  24.311  25.091
49812W        W50676  19.961  22.406  22.980
49813W        W50677  21.114  22.207  23.327
49814W        W50678  20.873  25.473  23.678
49815W        W50679  20.430  25.260  23.885
49816W        W50680  19.752  24.230  24.110
49817W        W50681  21.553  24.907  24.403
49818W        W50682  19.175  22.302  22.961
49819W        W50683  19.845  24.749  23.943
49820W        W50684  19.097  22.665  21.854
49821W        W50685  20.045  23.202  24.307
49822W        W50686  20.619  22.399  24.123
49823W        W50687  18.366  23.978  24.230
49824W        W50688  19.892  23.850  22.361
49825W        W50689  19.138  22.149  22.003
49826W        W50690  20.117  23.207  23.186
49827W        W50691  20.747  22.246  24.646
49828W        W50692  19.598  24.188  24.870
49829W        W50693  20.403  23.924  25.275
49830W        W50694  20.894  24.023  25.122
49831W        W50695  20.133  22.103  25.484
49832W        W50696  19.287  22.885  23.853
49833W        W50697  18.788  22.533  23.319
49834W        W50698  18.575  25.305  23.078
49835W        W50699  20.192  24.819  25.145
49836W        W50700  19.219  24.442  22.327
49837W        W50701  20.808  23.736  23.759
49838W        W50702  20.887  23.334  24.084
49839W        W50703  20.254  24.028  24.129
49840W        W50704  20.630  24.314  21.946
49841W        W50705  20.370  22.404  23.307
49842W        W50706  21.766  22.705  22.736
49843W        W50707  18.539  25.352  24.913
49844W        W50708  18.902  24.552  24.327
49845W        W50709  18.187  25.341  22.694
49846W        W50710  20.119  22.684  24.247
49847W        W50711  19.265  24.956  22.348
49848W        W50712  21.561  25.239  22.557
49849W        W50713  20.280  23.513  22.275
49850W        W50714  19.842  22.902  22.874
49851W        W50715  19.993  22.616  21.844
49852W        W50716  20.553  24.416  25.190
49853W        W50717  20.881  22.514  22.565
49854W        W50718  18.295  21.916  22.163
49855W        W50719  19.715  24.539  24.507
49856W        W50720  19.544  24.437  23.644
49857W        W50721  19.333  24.662  21.861
49858W        W50722  18.415  24.870  22.856
49859W        W50723  19.084  23.561  25.192
49860W        W50724  19.644  22.152  25.316
49861W        W50725  20.237  22.329  24.612
49862W        W50726  19.604  22.058  23.166
49863W        W50727  20.523  22.165  22.296
49864W        W50728  18.530  22.188  24.069
49865W        W50729  18.412  23.051  23.534
49866W        W50730  21.260  22.362  23.826
49867W        W50731  18.725  22.508  22.755
49868W        W50732  21.094  22.501  24.337
49869W        W50733  21.490  23.575  22.062
49870W        W50734  18.901  22.480  23.830
49871W        W50735  20.158  22.882  24.726
49872W        W50736  18.152  22.434  22.247
49873W        W50737  19.107  24.007  24.907
49874W        W50738  20.385  23.468  23.975
49875W        W50739  20.154  25.445  22.235
49876W        W50740  18.201  23.728  21.951
49877W        W50741  19.238  24.446  25.139
49878W        W50742  18.753  23.610  24.781
49879W        W50743  19.671  23.868  24.476
49880W        W50744  21.222  22.041  24.808
49881W        W50745  21.839  23.775  24.819
49882W        W50746  21.663  23.756  22.597
49883W        W50747  20.546  24.322  22.861
49884W        W50748  21.148  25.447  21.854
49885W        W50749  20.370  23.551  25.636
49886W        W50750  18.761  24.518  25.360
49887W        W50751  21.963  22.297  25.276
49888W        W50752  21.358  23.228  23.867
49889W        W50753  19.855  25.413  25.575
49890W        W50754  19.571  21.979  22.265
49891W        W50755  21.264  24.498  22.197
49892W        W50756  19.166  22.832  25.038
49893W        W50757  19.702  24.688  24.989
49894W        W50758  21.516  22.565  24.656
49895W        W50759  21.134  25.536  22.362
49896W        W50760  21.076  24.164  24.121
49897W        W50761  19.275  22.497  24.666
49898W        W50762  19.895  23.476  25.408
49899W        W50763  19.192  24.637  22.803
49900W        W50764  20.957  24.001  22.899
49901W        W50765  18.778  22.686  24.730
49902W        W50766  20.075  24.771  23.071
49903W        W50767  21.699  23.277  23.490
49904W        W50768  19.981  21.941  24.996
49905W        W50769  20.932  24.667  24.146
49906W        W50770  21.247  25.052  24.011
49907W        W50771  20.187  24.912  22.138
49908W        W50772  18.325  24.538  25.079
49909W        W50773  19.105  22.883  24.364
49910W        W50774  19.120  22.155  23.456
49911W        W50775  20.528  22.947  24.030
49912W        W50776  19.535  24.113  22.089
49913W        W50777  21.587  24.087  23.962
49914W        W50778  18.968  24.913  25.078
49915W        W50779  21.287  25.566  22.876
49916W        W50780  19.504  22.521  23.398
49917W        W50781  19.193  24.023  23.609
49918W        W50782  19.670  25.560  24.142
49919W        W50783  21.475  25.631  25.182
49920W        W50784  20.685  23.774  24.286
49921W        W50785  18.329  22.966  21.670
49922W        W50786  21.628  25.279  23.158
49923W        W50787  21.366  22.655  22.402
49924W        W50788  19.513  22.069  24.825
49925W        W50789  21.331  24.856  23.430
49926W        W50790  21.263  23.238  23.230
49927W        W50791  19.646  23.079  23.474
49928W        W50792  19.904  23.331  24.815
49929W        W50793  20.862  24.468  24.790
49930W        W50794  19.636  22.870  24.787
49931W        W50795  19.444  25.368  23.464
49932W        W50796  18.870  25.379  25.298
49933W        W50797  18.951  25.042  21.934
49934W        W50798  21.503  24.533  23.049
49935W        W50799  19.167  23.258  24.733
49936W        W50800  21.721  22.890  22.054
49937W        W50801  19.621  24.327  22.644
49938W        W50802  20.728  23.601  24.839
49939W        W50803  20.539  23.273  24.454
49940W        W50804  19.169  23.721  24.480
49941W        W50805  21.286  25.356  24.433
49942W        W50806  20.912  22.294  25.146
49943W        W50807  18.629  22.213  24.991
49944W        W50808  19.146  23.340  24.126
49945W        W50809  19.540  22.955  21.878
49946W        W50810  18.427  24.896  24.738
49947W        W50811  19.914  23.661  24.091
49948W        W50812  19.541  22.472  22.082
49949W        W50813  19.212  23.695  23.145
49950W        W50814  18.579  25.477  24.428
49951W        W50815  21.158  23.761  22.421
49952W        W50816  21.440  22.368  25.156
49953W        W50817  20.986  24.533  23.171
49954W        W50818  18.467  23.558  25.222
49955W        W50819  21.421  22.160  22.503
49956W        W50820  21.054  24.590  22.668
49957W        W50821  20.091  23.580  22.766
49958W        W50822  21.023  22.266  22.136
49959W        W50823  21.017  23.022  24.464
49960W        W50824  18.503  23.573  23.355
49961W        W50825  19.136  24.446  23.300
49962W        W50826  20.812  23.034  23.131
49963W        W50827  19.747  22.612  23.852
49964W        W50828  21.778  24.410  24.443
49965W        W50829  21.773  22.477  24.173
49966W        W50830  18.384  25.245  23.555
49967W        W50831  18.726  24.436  22.952
49968W        W50832  18.731  22.251  25.508
49969W        W50833  19.882  24.900  25.558
49970W        W50834  21.735  23.911  23.498
49971W        W50835  20.854  24.185  22.420
49972W        W50836  20.387  25.475  24.384
49973W        W50837  21.220  24.176  25.486
49974W        W50838  19.954  21.991  22.662
49975W        W50839  20.479  22.909  23.493
49976W        W50840  18.534  24.431  23.989
49977W        W50841  19.576  22.357  22.613
49978W        W50842  19.484  23.939  25.303
49979W        W50843  20.369  22.792  22.967
49980W        W50844  20.624  24.312  24.362
49981W        W50845  18.899  25.078  24.594
49982W        W50846  19.407  24.886  25.348
49983W        W50847  19.109  22.522  22.375
49984W        W50848  20.735  23.005  22.598
49985W        W50849  20.667  24.914  24.942
49986W        W50850  19.503  23.593  23.546
49987W        W50851  19.251  25.419  24.403
49988W        W50852  21.656  25.356  22.025
49989W        W50853  18.564  24.060  25.030
49990W        W50854  20.638  24.243  23.857
49991W        W50855  19.175  24.137  22.880
49992W        W50856  19.574  25.027  24.414
49993W        W50857  19.933  22.243  23.525
49994W        W50858  18.259  24.401  22.650
49995W        W50859  20.002  23.148  21.996
49996W        W50860  18.802  23.999  23.261
49997W        W50861  19.741  22.398  24.472
49998W        W50862  21.559  22.103  21.988
49999W        W50863  21.658  23.955  25.279
50000W        W50864  20.299  25.284  25.374
50001W        W50865  21.842  24.343  24.948
50002W        W50866  21.273  25.033  25.443
50003W        W50867  19.175  25.527  23.898
50004W        W50868  21.743  24.087  23.028
50005W        W50869  20.477  23.441  23.451
50006W        W50870  20.135  21.942  23.155
50007W        W50871  19.321  25.030  23.096
50008W        W50872  19.624  22.876  24.275
50009W        W50873  19.517  22.136  23.806
50010W        W50874  18.430  25.180  22.263
50011W        W50875  20.044  24.284  23.281
50012W        W50876  19.362  25.167  24.872
50013W        W50877  18.504  23.971  22.825
50014W        W50878  18.364  22.542  23.672
50015W        W50879  20.142  24.382  23.768
50016W        W50880  18.308  22.186  22.684
50017W        W50881  21.126  23.518  24.513
50018W        W50882  20.950  22.818  22.136
50019W        W50883  21.425  24.561  24.038
50020W        W50884  20.182  24.917  23.574
50021W        W50885  19.456  25.337  22.668
50022W        W50886  20.667  21.958  21.840
50023W        W50887  18.700  25.362  23.939
50024W        W50888  20.436  23.028  25.490
50025W        W50889  18.715  22.682  25.243
50026W        W50890  18.307  23.125  23.025
50027W        W50891  19.778  23.318  22.454
50028W        W50892  20.787  23.393  25.350
50029W        W50893  19.413  23.797  24.026
50030W        W50894  20.650  21.991  23.259
50031W        W50895  19.935  25.383  23.666
50032W        W50896  21.043  24.923  24.576
50033W        W50897  20.867  24.948  23.664
50034W        W50898  20.774  24.098  23.381
50035W        W50899  20.006  22.289  22.243
50036W        W50900  21.848  21.947  23.312
50037W        W50901  19.623  23.559  22.015
50038W        W50902  21.587  22.846  23.201
50039W        W50903  20.341  24.105  22.347
50040W        W50904  21.329  24.265  24.975
50041W        W50905  21.257  25.032  22.200
50042W        W50906  19.578  22.656  25.263
50043W        W50907  19.565  23.371  24.435
50044W        W50908  21.472  24.769  24.900
50045W        W50909  20.511  22.609  25.003
50046W        W50910  18.291  23.195  24.893
50047W        W50911  20.210  23.670  24.535
50048W        W50912  18.649  24.426  23.482
50049W        W50913  18.727  23.616  24.252
50050W        W50914  20.989  24.015  24.613
50051W        W50915  20.810  25.312  25.224
50052W        W50916  20.634  23.083  24.915
50053W        W50917  21.058  25.267  23.253
50054W        W50918  20.024  24.931  24.649
50055W        W50919  19.522  25.134  23.914
50056W        W50920  21.274  24.458  24.505
50057W        W50921  20.200  24.477  25.561
50058W        W50922  19.027  24.475  23.816
50059W        W50923  21.283  24.119  23.305
50060W        W50924  20.837  25.292  24.186
50061W        W50925  19.054  25.021  24.096
50062W        W50926  19.989  22.996  25.205
50063W        W50927  20.098  25.101  22.637
50064W        W50928  19.676  24.425  25.442
50065W        W50929  19.654  24.854  22.695
50066W        W50930  18.869  23.121  21.601
50067W        W50931  18.411  25.607  28.882
50068W        W50932  18.713  24.406  28.536
50069W        W50933  21.492  24.104  26.299
50070W        W50934  21.631  25.175  28.264
50071W        W50935  19.403  25.088  25.815
50072W        W50936  19.507  23.302  26.605
50073W        W50937  18.903  23.113  26.746
50074W        W50938  19.986  23.971  26.384
50075W        W50939  19.727  25.230  28.283
50076W        W50940  18.543  22.758  28.482
50077W        W50941  19.036  22.047  28.204
50078W        W50942  20.874  22.408  27.314
50079W        W50943  20.562  23.217  26.017
50080W        W50944  21.037  22.595  28.783
50081W        W50945  18.563  22.353  28.050
50082W        W50946  18.550  25.105  28.983
50083W        W50947  19.946  24.253  25.963
50084W        W50948  18.539  23.162  27.511
50085W        W50949  19.413  23.312  28.786
50086W        W50950  21.644  22.933  27.362
50087W        W50951  21.455  23.971  28.002
50088W        W50952  19.939  23.442  27.290
50089W        W50953  20.474  24.771  27.639
50090W        W50954  18.807  24.130  27.740
50091W        W50955  18.232  23.598  27.380
50092W        W50956  19.299  23.582  28.363
50093W        W50957  21.655  23.335  28.773
50094W        W50958  19.087  24.872  27.157
50095W        W50959  20.362  24.561  28.258
50096W        W50960  19.599  23.093  27.463
50097W        W50961  19.728  23.971  27.238
50098W        W50962  20.470  24.967   0.192
50099W        W50963  19.848  24.026   0.019
50100W        W50964  19.906  23.856  28.518
50101W        W50965  18.280  22.940  28.905
50102W        W50966  21.023  24.681  28.863
50103W        W50967  18.609  22.194  26.690
50104W        W50968  19.184  24.522  27.746
50105W        W50969  21.805  24.372  27.140
50106W        W50970  21.066  22.759  27.637
50107W        W50971  21.531  22.726  25.593
50108W        W50972  21.856  23.387  27.896
50109W        W50973  19.759  25.259  27.746
50110W        W50974  21.685  24.616  26.295
50111W        W50975  18.645  25.629  26.083
50112W        W50976  19.035  25.370  26.614
50113W        W50977  19.076  22.353  27.785
50114W        W50978  21.671  23.129  28.298
50115W        W50979  20.804  23.655  26.882
50116W        W50980  20.991  23.446  25.843
50117W        W50981  20.062  24.502  27.751
50118W        W50982  19.860  22.709  27.035
50119W        W50983  20.580  24.996  28.084
50120W        W50984  21.265  23.611  26.681
50121W        W50985  20.263  22.517  26.402
50122W        W50986  18.870  25.159  26.166
50123W        W50987  18.320  22.619  26.674
50124W        W50988  20.866  23.338  27.312
50125W        W50989  18.574  24.816  27.155
50126W        W50990  19.849  25.174  26.025
50127W        W50991  21.251  23.161  25.485
50128W        W50992  18.390  24.938  27.885
50129W        W50993  19.147  24.584  28.293
50130W        W50994  19.408  24.023  26.828
50131W        W50995  19.608  22.260  27.783
50132W        W50996  21.795  22.055  27.379
50133W        W50997  18.991  24.055  25.409
50134W        W50998  18.638  22.662  25.805
50135W        W50999  18.822  24.874  26.688
50136W        W51000  19.648  24.501  26.805
50137W        W51001  21.208  25.071  28.587
50138W        W51002  20.178  23.013  26.339
50139W        W51003  21.495  25.450  27.124
50140W        W51004  21.221  23.258  28.500
50141W        W51005  21.921  24.683  26.746
50142W        W51006  20.435  24.040  28.343
50143W        W51007  18.061  23.749  26.490
50144W        W51008  19.277  24.131  28.052
50145W        W51009  20.540  23.317  26.526
50146W        W51010  20.338  23.751  26.681
50147W        W51011  18.863  23.231  27.914
50148W        W51012  18.824  23.061  28.899
50149W        W51013  18.551  21.902  27.133
50150W        W51014  20.497  22.537  27.636
50151W        W51015  20.058  22.496  28.679
50152W        W51016  20.360  22.748  25.934
50153W        W51017  21.701  24.926  28.771
50154W        W51018  20.563  22.044  28.672
50155W        W51019  21.499  24.444  28.872
50156W        W51020  21.212  22.741  28.293
50157W        W51021  20.814  22.569  26.814
50158W        W51022  21.191  23.663  28.983
50159W        W51023  18.778  25.280  27.032
50160W        W51024  19.835  22.771  26.038
50161W        W51025  19.190  22.175  28.673
50162W        W51026  21.216  22.804  26.546
50163W        W51027  21.537  23.232  26.459
50164W        W51028  19.339  25.486   0.032
50165W        W51029  19.245  21.930  26.119
50166W        W51030  21.681  22.479  27.114
50167W        W51031  21.721  24.917  25.725
50168W        W51032  18.466  24.068  27.303
50169W        W51033  20.553  22.503  25.510
50170W        W51034  21.822  24.789  27.503
50171W        W51035  21.809  22.053  27.893
50172W        W51036  20.306  23.040  28.628
50173W        W51037  20.072  24.474  26.452
50174W        W51038  20.672  23.739   0.165
50175W        W51039  20.536  22.028  27.499
50176W        W51040  18.937  22.944  27.235
50177W        W51041  18.564  24.080  28.189
50178W        W51042  20.339  25.218  27.103
50179W        W51043  21.524  22.867  27.881
50180W        W51044  20.250  25.331  28.291
50181W        W51045  21.566  23.926  25.798
50182W        W51046  19.837  23.701  26.819
50183W        W51047  21.822  22.038  28.402
50184W        W51048  19.994  24.153  28.105
50185W        W51049  20.189  22.980  27.333
50186W        W51050  21.025  23.230  26.321
50187W        W51051  21.396  23.120  25.975
50188W        W51052  21.358  24.894  26.575
50189W        W51053  20.824  24.449  27.398
50190W        W51054  20.845  23.707  26.330
50191W        W51055  20.254  23.816  27.180
50192W        W51056  21.250  23.695  27.334
50193W        W51057  18.683  22.672  27.617
50194W        W51058  21.276  23.773  28.472
50195W        W51059  21.744  25.266  27.686
50196W        W51060  19.600  24.912  27.137
50197W        W51061  20.770  25.315  28.445
50198W        W51062  20.746  22.678  28.064
50199W        W51063  19.884  25.674  28.063
50200W        W51064  21.565  22.405  26.619
50201W        W51065  21.367  23.478  28.050
50202W        W51066  18.421  22.917  27.982
50203W        W51067  21.211  22.749  27.110
50204W        W51068  21.510  22.838  28.685
50205W        W51069  20.408  24.641  27.139
50206W        W51070  19.723  25.258  26.727
50207W        W51071  19.041  22.373  25.986
50208W        W51072  20.013  21.987  27.545
50209W        W51073  19.053  25.455  25.781
50210W        W51074  19.516  23.766  26.357
50211W        W51075  20.036  24.350  28.593
50212W        W51076  19.724  22.824  26.542
50213W        W51077  21.237  22.221  26.977
50214W        W51078  20.993  25.503  27.301
50215W        W51079  20.276  25.258  27.726
50216W        W51080  19.645  24.207  27.689
50217W        W51081  21.483  24.853  27.883
50218W        W51082  19.096  22.253  26.504
50219W        W51083  19.623  24.754  27.621
50220W        W51084  19.129  22.606  25.534
50221W        W51085  19.921  23.328  27.813
50222W        W51086  20.926  22.253  27.806
50223W        W51087  18.309  23.929  27.787
50224W        W51088  19.877  23.698  25.924
50225W        W51089  19.211  22.088  25.593
50226W        W51090  19.963  23.186  26.839
50227W        W51091  20.938  22.267  28.336
50228W        W51092  19.537  24.231  28.487
50229W        W51093  20.330  23.991  28.867
50230W        W51094  20.806  23.878  28.662
50231W        W51095  20.186  22.125   0.035
50232W        W51096  19.481  22.590  27.394
50233W        W51097  18.859  22.609  26.834
50234W        W51098  18.513  25.258  26.549
50235W        W51099  20.063  24.889  28.567
50236W        W51100  19.092  24.280  26.125
50237W        W51101  20.736  23.850  27.360
50238W        W51102  20.926  23.580  27.773
50239W        W51103  20.026  23.851  27.655
50240W        W51104  20.769  24.375  25.656
50241W        W51105  20.351  22.458  27.139
50242W        W51106  21.719  22.767  26.301
50243W        W51107  18.509  25.277  28.492
50244W        W51108  18.712  24.548  28.016
50245W        W51109  18.190  25.422  26.170
50246W        W51110  20.160  22.876  27.835
50247W        W51111  19.617  24.637  25.924
50248W        W51112  21.620  25.165  26.209
50249W        W51113  20.357  23.665  26.152
50250W        W51114  19.214  22.767  26.489
50251W        W51115  20.023  22.622  25.561
50252W        W51116  20.643  24.375  28.685
50253W        W51117  21.087  22.314  26.436
50254W        W51118  18.359  22.092  25.842
50255W        W51119  19.639  24.538  28.080
50256W        W51120  19.404  24.432  27.263
50257W        W51121  19.199  24.503  25.656
50258W        W51122  18.369  24.923  26.175
50259W        W51123  18.951  23.564  28.779
50260W        W51124  19.684  22.081  28.878
50261W        W51125  20.280  22.481  28.152
50262W        W51126  19.479  21.974  26.765
50263W        W51127  20.777  22.447  26.009
50264W        W51128  18.615  22.149  27.581
50265W        W51129  18.462  22.941  27.047
50266W        W51130  21.362  22.339  27.500
50267W        W51131  18.697  22.550  26.324
50268W        W51132  21.396  22.350  28.025
50269W        W51133  21.670  23.442  25.647
50270W        W51134  19.002  22.438  27.296
50271W        W51135  19.954  22.860  28.300
50272W        W51136  18.164  22.920  25.841
50273W        W51137  19.039  24.018  28.496
50274W        W51138  20.390  23.478  27.565
50275W        W51139  20.230  25.519  25.966
50276W        W51140  18.284  24.285  25.532
50277W        W51141  19.170  24.442  28.802
50278W        W51142  18.776  23.624  28.260
50279W        W51143  19.660  23.769  28.052
50280W        W51144  21.312  21.882  28.330
50281W        W51145  21.767  23.666  28.330
50282W        W51146  21.898  23.458  26.106
50283W        W51147  20.502  24.126  26.361
50284W        W51148  21.141  25.524  25.553
50285W        W51149  20.370  23.298   0.074
50286W        W51150  18.750  24.232   0.024
50287W        W51151  21.884  22.410  28.771
50288W        W51152  21.302  23.244  27.591
50289W        W51153  19.731  25.248  28.801
50290W        W51154  19.684  21.908  25.776
50291W        W51155  21.454  24.433  25.868
50292W        W51156  19.045  22.681  28.613
50293W        W51157  19.568  24.786  28.512
50294W        W51158  21.759  22.605  28.287
50295W        W51159  21.219  25.465  26.054
50296W        W51160  21.083  24.082  27.651
50297W        W51161  19.317  22.474  28.217
50298W        W51162  19.922  23.483  28.853
50299W        W51163  19.218  24.774  26.231
50300W        W51164  21.042  24.086  26.625
50301W        W51165  18.899  22.746  28.109
50302W        W51166  20.026  24.850  26.858
50303W        W51167  21.819  23.394  26.915
50304W        W51168  20.063  21.989  28.540
50305W        W51169  20.973  24.802  27.754
50306W        W51170  21.290  25.080  27.446
50307W        W51171  20.122  24.744  26.010
50308W        W51172  18.407  24.608  28.896
50309W        W51173  19.169  22.869  27.690
50310W        W51174  19.014  22.059  26.973
50311W        W51175  20.629  23.047  27.694
50312W        W51176  19.490  24.076  25.813
50313W        W51177  21.591  24.068  27.497
50314W        W51178  18.869  24.873  28.665
50315W        W51179  21.373  25.492  26.563
50316W        W51180  19.373  22.466  26.894
50317W        W51181  18.921  23.953  27.082
50318W        W51182  19.374  25.512  28.002
50319W        W51183  21.473  25.456  28.773
50320W        W51184  20.522  23.908  27.836
50321W        W51185  18.534  23.093  25.501
50322W        W51186  21.756  25.185  26.721
50323W        W51187  21.275  22.626  26.054
50324W        W51188  19.550  21.930  28.402
50325W        W51189  21.558  24.855  27.067
50326W        W51190  21.338  23.260  27.064
50327W        W51191  19.398  22.972  26.988
50328W        W51192  19.796  23.356  28.357
50329W        W51193  20.917  24.700  28.325
50330W        W51194  19.448  22.959  28.376
50331W        W51195  19.331  25.387  27.041
50332W        W51196  18.906  25.431  28.771
50333W        W51197  18.948  24.963  25.612
50334W        W51198  21.453  24.406  26.749
50335W        W51199  18.982  23.169  28.418
50336W        W51200  21.883  22.999  25.879
50337W        W51201  19.572  24.306  26.334
50338W        W51202  20.365  23.557  28.583
50339W        W51203  20.416  23.195  28.147
50340W        W51204  19.125  23.683  27.881
50341W        W51205  21.284  25.499  27.758
50342W        W51206  21.068  22.055  28.795
50343W        W51207  18.694  22.269  28.540
50344W        W51208  19.123  23.354  27.473
50345W        W51209  19.642  23.019  25.616
50346W        W51210  18.403  24.779  28.382
50347W        W51211  19.556  23.618  27.584
50348W        W51212  19.568  22.434  25.741
50349W        W51213  19.092  23.602  26.740
50350W        W51214  18.471  25.448  28.007
50351W        W51215  21.362  23.616  26.158
50352W        W51216  21.419  22.336  28.557
50353W        W51217  21.081  24.665  27.010
50354W        W51218  18.459  23.427  28.932
50355W        W51219  21.634  22.260  26.124
50356W        W51220  21.160  24.493  26.300
50357W        W51221  19.962  23.459  26.390
50358W        W51222  21.104  22.431  25.594
50359W        W51223  21.018  23.118  28.014
50360W        W51224  18.696  23.443  27.096
50361W        W51225  19.124  24.469  26.824
50362W        W51226  20.897  23.110  26.825
50363W        W51227  19.983  22.516  27.518
50364W        W51228  21.757  24.415  27.983
50365W        W51229  21.843  22.519  27.653
50366W        W51230  18.268  25.232  27.008
50367W        W51231  18.647  24.491  26.385
50368W        W51232  18.835  22.076   0.031
50369W        W51233  19.955  24.891   0.102
50370W        W51234  21.628  23.892  26.993
50371W        W51235  21.079  24.045  25.990
50372W        W51236  20.418  25.700  27.934
50373W        W51237  21.036  24.172   0.018
50374W        W51238  19.731  21.903  26.308
50375W        W51239  20.684  22.866  27.224
50376W        W51240  18.437  24.514  27.560
50377W        W51241  19.523  22.396  26.252
50378W        W51242  19.408  23.841  28.814
50379W        W51243  20.377  22.871  26.802
50380W        W51244  20.700  24.388  27.910
50381W        W51245  18.831  25.022  28.166
50382W        W51246  19.328  24.935  28.941
50383W        W51247  19.314  22.822  25.977
50384W        W51248  20.696  22.833  26.364
50385W        W51249  20.567  24.887  28.668
50386W        W51250  19.454  23.498  27.095
50387W        W51251  18.926  25.354  27.792
50388W        W51252  21.641  25.438  25.667
50389W        W51253  18.558  23.893  28.670
50390W        W51254  20.366  24.228  27.455
50391W        W51255  18.921  24.069  26.575
50392W        W51256  19.339  24.980  27.996
50393W        W51257  19.750  22.216  27.158
50394W        W51258  18.248  24.382  26.057
50395W        W51259  20.068  23.200  25.853
50396W        W51260  18.485  23.844  26.809
50397W        W51261  19.800  22.362  28.258
50398W        W51262  21.595  22.186  25.617
50399W        W51263  21.655  23.848  28.816
50400W        W51264  20.260  25.287  28.848
50401W        W51265  21.633  24.187  28.432
50402W        W51266  21.329  25.031   0.092
50403W        W51267  18.981  25.605  27.363
50404W        W51268  21.890  24.185  26.608
50405W        W51269  20.422  23.340  27.041
50406W        W51270  19.845  22.328  26.658
50407W        W51271  19.325  24.942  26.708
50408W        W51272  19.642  22.772  27.892
50409W        W51273  19.329  22.034  27.397
50410W        W51274  18.542  25.278  25.738
50411W        W51275  20.069  24.174  26.866
50412W        W51276  19.236  25.170  28.466
50413W        W51277  18.491  23.979  26.289
50414W        W51278  18.495  22.424  27.161
50415W        W51279  19.915  24.462  27.261
50416W        W51280  18.189  22.474  26.126
50417W        W51281  20.809  23.511  28.287
50418W        W51282  20.912  22.911  25.807
50419W        W51283  21.349  24.539  27.470
50420W        W51284  20.046  24.930  27.411
50421W        W51285  19.420  25.266  26.300
50422W        W51286  20.677  21.998  25.506
50423W        W51287  18.510  25.279  27.480
50424W        W51288  20.695  22.922  28.965
50425W        W51289  18.669  22.570  28.962
50426W        W51290  18.354  23.181  26.600
50427W        W51291  19.602  23.256  26.084
50428W        W51292  20.802  23.387  28.800
50429W        W51293  19.228  23.999  27.482
50430W        W51294  20.703  22.068  26.983
50431W        W51295  19.835  25.362  27.225
50432W        W51296  21.118  25.145  28.098
50433W        W51297  20.786  25.005  27.302
50434W        W51298  20.607  24.156  26.960
50435W        W51299  20.002  22.283  25.986
50436W        W51300  21.823  22.018  26.859
50437W        W51301  19.434  23.518  25.622
50438W        W51302  21.629  22.901  26.828
50439W        W51303  20.382  24.049  25.810
50440W        W51304  21.135  24.278  28.521
50441W        W51305  21.252  24.907  25.966
50442W        W51306  19.540  22.549  28.680
50443W        W51307  19.415  23.260  27.950
50444W        W51308  21.456  24.677  28.379
50445W        W51309  20.559  22.559  28.587
50446W        W51310  18.467  23.253  28.423
50447W        W51311  20.172  23.653  28.115
50448W        W51312  18.618  24.365  26.892
50449W        W51313  18.714  23.660  27.568
50450W        W51314  20.937  23.988  28.143
50451W        W51315  20.867  25.216  28.952
50452W        W51316  20.791  22.997  28.464
50453W        W51317  21.116  25.179  26.925
50454W        W51318  20.039  24.914  28.034
50455W        W51319  19.311  25.171  27.509
50456W        W51320  21.220  24.422  28.005
50457W        W51321  20.265  24.498   0.024
50458W        W51322  18.891  24.419  27.323
50459W        W51323  21.176  24.159  27.132
50460W        W51324  20.790  25.311  27.734
50461W        W51325  18.834  24.877  27.616
50462W        W51326  19.813  22.976  28.776
50463W        W51327  20.149  25.166  26.447
50464W        W51328  19.661  24.506  28.924
50465W        W51329  19.721  24.839  26.397
50466W        W51330  19.098  23.113  25.475
50467W        W51331  18.483   0.091   3.238
50468W        W51332  18.732  27.967   3.019
50469W        W51333  21.396  27.711   0.768
50470W        W51334  21.702  28.778   2.724
50471W        W51335  19.627  28.693   0.345
50472W        W51336  19.449  26.986   1.152
50473W        W51337  19.012  26.920   1.490
50474W        W51338  20.097  27.605   0.864
50475W        W51339  19.788  28.740   3.079
50476W        W51340  18.337  26.325   2.960
50477W        W51341  18.948  25.485   2.874
50478W        W51342  20.722  25.905   1.705
50479W        W51343  20.440  26.732   0.494
50480W        W51344  20.961  26.351   3.267
50481W        W51345  18.370  26.018   2.560
50482W        W51346  18.588  28.663   3.524
50483W        W51347  20.005  27.978   0.524
50484W        W51348  18.400  26.753   2.052
50485W        W51349  19.363  26.757   3.266
50486W        W51350  21.629  26.368   1.742
50487W        W51351  21.465  27.536   2.397
50488W        W51352  19.959  27.047   1.587
50489W        W51353  20.556  28.300   2.016
50490W        W51354  18.920  27.668   2.278
50491W        W51355  18.185  27.283   2.032
50492W        W51356  19.392  27.216   3.005
50493W        W51357  21.334  27.171   3.192
50494W        W51358  19.094  28.380   1.712
50495W        W51359  20.353  28.098   2.819
50496W        W51360  19.774  26.719   1.951
50497W        W51361  19.737  27.514   1.720
50498W        W51362  20.594  28.260   3.476
50499W        W51363  20.012  27.540   3.480
50500W        W51364  19.911  27.326   3.019
50501W        W51365  18.217  26.593   3.415
50502W        W51366  21.068  28.308   3.290
50503W        W51367  18.654  25.866   1.181
50504W        W51368  19.167  28.154   2.298
50505W        W51369  21.763  27.938   1.637
50506W        W51370  21.186  26.074   1.838
50507W        W51371  21.528  26.344  28.967
50508W        W51372  21.770  27.066   2.420
50509W        W51373  19.810  28.739   2.242
50510W        W51374  21.549  28.196   0.786
50511W        W51375  18.746  28.984   0.664
50512W        W51376  19.116  28.859   1.059
50513W        W51377  18.852  25.830   2.490
50514W        W51378  21.496  26.646   2.612
50515W        W51379  20.913  27.128   1.273
50516W        W51380  20.895  26.905   0.304
50517W        W51381  20.161  28.095   2.338
50518W        W51382  20.124  26.567   1.610
50519W        W51383  20.476  28.503   2.507
50520W        W51384  21.377  27.280   1.050
50521W        W51385  20.326  25.935   1.062
50522W        W51386  18.933  28.503   0.729
50523W        W51387  18.328  26.261   1.256
50524W        W51388  21.161  26.600   1.717
50525W        W51389  18.573  28.379   1.642
50526W        W51390  19.963  28.489   0.686
50527W        W51391  21.299  26.813  28.975
50528W        W51392  18.369  28.579   2.409
50529W        W51393  19.187  28.105   2.829
50530W        W51394  19.298  27.434   1.383
50531W        W51395  19.319  26.021   2.306
50532W        W51396  21.808  25.498   1.810
50533W        W51397  18.934  27.411   0.139
50534W        W51398  18.691  26.614   0.490
50535W        W51399  18.878  28.332   1.224
50536W        W51400  19.632  27.920   1.431
50537W        W51401  21.260  28.669   2.953
50538W        W51402  20.210  26.347   0.777
50539W        W51403  21.367  28.878   1.494
50540W        W51404  21.123  26.769   2.972
50541W        W51405  21.882  28.193   1.199
50542W        W51406  20.523  27.604   2.749
50543W        W51407  18.199  27.227   1.163
50544W        W51408  19.352  27.719   2.532
50545W        W51409  20.535  26.873   0.984
50546W        W51410  20.296  27.261   1.220
50547W        W51411  18.659  26.762   2.511
50548W        W51412  18.713  26.681   3.086
50549W        W51413  18.596  25.653   1.631
50550W        W51414  20.346  25.956   2.057
50551W        W51415  20.051  26.142   3.231
50552W        W51416  20.603  25.959   0.568
50553W        W51417  21.687  28.576   3.294
50554W        W51418  20.486  25.588   3.056
50555W        W51419  21.499  28.115   3.501
50556W        W51420  21.165  26.268   2.778
50557W        W51421  20.808  26.076   1.207
50558W        W51422  20.990  27.265   3.571
50559W        W51423  18.850  28.779   1.484
50560W        W51424  19.636  26.547   0.897
50561W        W51425  19.085  25.802   3.265
50562W        W51426  21.264  26.414   0.895
50563W        W51427  21.536  26.833   0.724
50564W        W51428  19.479  28.944   3.445
50565W        W51429  19.264  25.556   0.640
50566W        W51430  21.601  25.861   1.513
50567W        W51431  21.744  28.323   0.295
50568W        W51432  18.466  27.606   1.756
50569W        W51433  20.627  25.979   0.027
50570W        W51434  21.766  28.402   1.911
50571W        W51435  21.692  25.722   2.478
50572W        W51436  20.245  26.859   2.945
50573W        W51437  20.266  28.114   0.976
50574W        W51438  20.476  27.406   3.670
50575W        W51439  20.300  25.583   1.693
50576W        W51440  18.858  26.574   1.859
50577W        W51441  18.566  27.611   2.688
50578W        W51442  20.415  28.650   1.587
50579W        W51443  21.734  26.344   2.275
50580W        W51444  20.307  28.817   2.907
50581W        W51445  21.492  27.641   0.269
50582W        W51446  19.795  27.359   1.214
50583W        W51447  21.773  25.720   3.023
50584W        W51448  20.034  27.686   2.673
50585W        W51449  20.234  26.452   2.095
50586W        W51450  21.019  26.864   0.822
50587W        W51451  21.238  26.538   0.399
50588W        W51452  21.183  28.428   1.060
50589W        W51453  21.230  27.983   1.711
50590W        W51454  20.649  27.263   0.592
50591W        W51455  20.283  27.414   1.741
50592W        W51456  21.314  27.098   1.667
50593W        W51457  18.623  26.314   2.237
50594W        W51458  21.331  27.141   2.684
50595W        W51459  21.703  28.813   2.201
50596W        W51460  19.603  28.374   1.723
50597W        W51461  20.811  28.868   2.734
50598W        W51462  20.424  26.252   2.529
50599W        W51463  19.902   0.056   2.662
50600W        W51464  21.548  25.991   1.012
50601W        W51465  21.173  27.177   2.167
50602W        W51466  18.196  26.519   2.469
50603W        W51467  21.274  26.242   1.369
50604W        W51468  21.511  26.483   3.127
50605W        W51469  20.474  28.126   1.516
50606W        W51470  19.747  28.705   1.216
50607W        W51471  18.805  26.079   0.526
50608W        W51472  19.898  25.682   2.019
50609W        W51473  18.961  28.673   0.245
50610W        W51474  19.215  27.388   0.647
50611W        W51475  19.964  27.922   3.121
50612W        W51476  19.919  26.244   1.214
50613W        W51477  21.112  25.713   1.434
50614W        W51478  20.811  28.962   1.750
50615W        W51479  20.342  28.792   2.083
50616W        W51480  19.776  27.724   2.225
50617W        W51481  21.461  28.408   2.438
50618W        W51482  19.117  25.963   0.974
50619W        W51483  19.673  28.228   2.201
50620W        W51484  19.071  26.392   0.145
50621W        W51485  19.982  26.793   2.409
50622W        W51486  20.791  25.682   2.184
50623W        W51487  18.388  27.720   2.233
50624W        W51488  19.925  27.066   0.211
50625W        W51489  19.274  25.948   0.307
50626W        W51490  20.031  26.792   1.130
50627W        W51491  20.801  25.911   2.651
50628W        W51492  19.512  27.724   3.032
50629W        W51493  20.402  27.313   3.152
50630W        W51494  20.902  27.456   3.097
50631W        W51495  20.031  25.833   3.652
50632W        W51496  19.356  26.393   1.872
50633W        W51497  18.883  26.264   1.438
50634W        W51498  18.517  28.632   1.015
50635W        W51499  20.147  28.398   3.213
50636W        W51500  18.859  27.751   0.539
50637W        W51501  20.818  27.297   1.779
50638W        W51502  20.796  26.813   2.002
50639W        W51503  20.286  27.597   2.233
50640W        W51504  20.762  28.037   0.230
50641W        W51505  20.264  26.077   1.562
50642W        W51506  21.968  26.516   0.740
50643W        W51507  18.579  28.815   2.833
50644W        W51508  18.679  28.087   2.476
50645W        W51509  18.142  28.884   0.766
50646W        W51510  19.951  26.069   2.364
50647W        W51511  19.546  28.191   0.469
50648W        W51512  21.359  28.638   0.597
50649W        W51513  20.147  27.106   0.710
50650W        W51514  19.177  26.548   1.128
50651W        W51515  20.248  26.260   0.264
50652W        W51516  20.452  27.811   3.248
50653W        W51517  21.126  25.941   0.698
50654W        W51518  18.388  25.758   0.366
50655W        W51519  19.705  28.054   2.681
50656W        W51520  19.377  27.887   1.907
50657W        W51521  19.325  27.734   0.254
50658W        W51522  18.073  28.358   0.787
50659W        W51523  18.961  27.122   3.274
50660W        W51524  19.544  25.746   3.494
50661W        W51525  20.197  25.846   2.743
50662W        W51526  19.527  25.639   1.140
50663W        W51527  20.409  25.497   0.776
50664W        W51528  18.538  25.818   2.108
50665W        W51529  18.510  26.681   1.495
50666W        W51530  21.281  25.567   1.914
50667W        W51531  18.728  26.359   0.946
50668W        W51532  21.229  25.936   2.337
50669W        W51533  21.621  27.140   0.199
50670W        W51534  18.958  26.060   1.923
50671W        W51535  20.004  26.421   2.782
50672W        W51536  18.334  26.274   0.314
50673W        W51537  19.030  27.568   2.935
50674W        W51538  20.293  26.951   1.988
50675W        W51539  20.121  28.883   0.381
50676W        W51540  18.444  27.514   0.309
50677W        W51541  19.136  28.010   3.342
50678W        W51542  18.689  27.145   2.843
50679W        W51543  19.672  27.327   2.569
50680W        W51544  21.279  25.741   2.814
50681W        W51545  21.805  27.438   2.780
50682W        W51546  21.740  27.336   0.662
50683W        W51547  20.520  27.791   0.615
50684W        W51548  21.176  29.000   0.272
50685W        W51549  20.223  26.966   3.478
50686W        W51550  18.708  27.844   3.612
50687W        W51551  21.854  26.141   3.369
50688W        W51552  21.518  26.797   2.052
50689W        W51553  19.979  28.870   3.576
50690W        W51554  19.698  25.667   0.363
50691W        W51555  21.268  28.114   0.341
50692W        W51556  19.071  26.329   3.173
50693W        W51557  19.569  28.273   3.135
50694W        W51558  21.783  26.184   2.776
50695W        W51559  20.891  28.910   0.711
50696W        W51560  21.052  27.688   2.107
50697W        W51561  19.210  25.981   2.809
50698W        W51562  19.706  27.116   3.440
50699W        W51563  19.198  28.089   0.847
50700W        W51564  20.928  27.560   0.958
50701W        W51565  18.806  26.305   2.725
50702W        W51566  20.003  28.296   1.403
50703W        W51567  21.774  26.829   1.558
50704W        W51568  19.961  25.641   3.174
50705W        W51569  21.054  28.219   2.127
50706W        W51570  21.296  28.637   1.947
50707W        W51571  20.414  28.310   0.492
50708W        W51572  18.424  28.196   3.361
50709W        W51573  19.101  26.523   2.333
50710W        W51574  19.069  25.780   1.486
50711W        W51575  20.778  26.211   2.159
50712W        W51576  19.720  27.525   0.515
50713W        W51577  21.488  27.547   1.880
50714W        W51578  18.853  28.449   3.143
50715W        W51579  21.297   0.014   1.005
50716W        W51580  19.430  26.135   1.382
50717W        W51581  18.982  27.493   1.786
50718W        W51582  19.358  28.976   2.516
50719W        W51583  21.461   0.032   3.336
50720W        W51584  20.654  27.239   2.273
50721W        W51585  18.754  27.150   0.554
50722W        W51586  21.655  28.636   1.039
50723W        W51587  21.578  26.187   0.524
50724W        W51588  19.469  25.570   2.987
50725W        W51589  21.472  28.375   1.487
50726W        W51590  21.357  26.806   1.239
50727W        W51591  19.626  26.614   1.458
50728W        W51592  19.720  26.874   2.834
50729W        W51593  20.874  27.962   2.936
50730W        W51594  19.465  26.434   2.850
50731W        W51595  19.375  28.824   1.579
50732W        W51596  18.973  28.955   3.345
50733W        W51597  19.050  28.177   0.322
50734W        W51598  21.438  27.923   1.228
50735W        W51599  19.118  26.807   2.793
50736W        W51600  21.749  26.654   0.288
50737W        W51601  19.496  27.685   0.963
50738W        W51602  20.704  27.094   2.781
50739W        W51603  20.485  26.768   2.436
50740W        W51604  19.111  27.250   2.534
50741W        W51605  21.250  28.903   2.443
50742W        W51606  20.915  25.822   3.181
50743W        W51607  18.626  25.877   3.016
50744W        W51608  19.043  27.010   2.057
50745W        W51609  19.481  26.692   0.241
50746W        W51610  18.426  28.329   2.852
50747W        W51611  19.882  27.219   2.112
50748W        W51612  19.723  26.210   0.310
50749W        W51613  18.974  27.152   1.029
50750W        W51614  18.348   0.093   2.460
50751W        W51615  21.246  27.228   0.552
50752W        W51616  21.376  26.004   3.260
50753W        W51617  20.933  28.017   1.278
50754W        W51618  18.439  27.047   3.332
50755W        W51619  21.608  25.676   0.592
50756W        W51620  20.956  28.073   0.749
50757W        W51621  19.638  27.038   0.670
50758W        W51622  21.157  26.043   0.176
50759W        W51623  21.229  26.427   2.216
50760W        W51624  18.618  27.111   1.774
50761W        W51625  19.118  27.926   1.464
50762W        W51626  20.895  26.600   1.270
50763W        W51627  19.837  26.195   1.861
50764W        W51628  21.783  27.934   2.592
50765W        W51629  21.652  25.926   2.017
50766W        W51630  18.346  28.823   1.465
50767W        W51631  18.603  28.080   0.877
50768W        W51632  18.660  25.812   3.565
50769W        W51633  19.749  28.419   3.602
50770W        W51634  21.699  27.384   1.448
50771W        W51635  21.004  27.653   0.451
50772W        W51636  20.388   0.093   2.482
50773W        W51637  20.898  27.792   3.492
50774W        W51638  19.813  25.394   0.782
50775W        W51639  20.638  26.418   1.701
50776W        W51640  18.367  28.203   2.068
50777W        W51641  19.615  26.007   0.784
50778W        W51642  19.264  27.510   3.429
50779W        W51643  20.420  26.432   1.226
50780W        W51644  20.687  27.968   2.413
50781W        W51645  18.944  28.509   2.631
50782W        W51646  19.240  28.497   3.495
50783W        W51647  19.240  26.344   0.633
50784W        W51648  20.742  26.411   0.806
50785W        W51649  20.661  28.466   3.018
50786W        W51650  19.457  27.062   1.723
50787W        W51651  18.833  28.944   2.394
50788W        W51652  21.707  28.832   0.254
50789W        W51653  18.607  27.517   3.228
50790W        W51654  20.611  27.799   1.888
50791W        W51655  18.973  27.678   1.043
50792W        W51656  19.470  28.490   2.594
50793W        W51657  19.831  25.801   1.518
50794W        W51658  18.249  27.929   0.538
50795W        W51659  19.933  26.648   0.490
50796W        W51660  18.667  27.388   1.348
50797W        W51661  19.722  25.994   2.854
50798W        W51662  21.667  25.851   0.096
50799W        W51663  21.371  27.631   3.405
50800W        W51664  20.450  28.769   3.404
50801W        W51665  21.797  27.836   3.118
50802W        W51666  21.311  28.592   3.645
50803W        W51667  18.993  28.998   1.917
50804W        W51668  21.863  27.670   1.051
50805W        W51669  20.516  26.899   1.522
50806W        W51670  20.095  25.489   1.213
50807W        W51671  19.376  28.356   1.270
50808W        W51672  19.615  26.436   2.354
50809W        W51673  19.433  25.835   1.841
50810W        W51674  18.470  28.566   0.497
50811W        W51675  20.123  27.755   1.355
50812W        W51676  19.272  28.712   3.003
50813W        W51677  18.540  27.492   0.853
50814W        W51678  18.476  26.195   1.751
50815W        W51679  20.082  27.900   1.843
50816W        W51680  18.350  26.011   0.797
50817W        W51681  20.998  26.796   2.478
50818W        W51682  20.760  26.390   0.293
50819W        W51683  21.543  27.990   2.131
50820W        W51684  20.071  28.399   1.917
50821W        W51685  19.449  28.564   0.807
50822W        W51686  20.579  25.509   0.262
50823W        W51687  18.486  28.848   1.966
50824W        W51688  20.404  26.518   3.310
50825W        W51689  18.637  26.301   3.435
50826W        W51690  18.540  26.860   0.989
50827W        W51691  19.165  26.843   0.668
50828W        W51692  20.724  26.923   3.276
50829W        W51693  19.383  27.403   2.115
50830W        W51694  20.622  25.566   1.285
50831W        W51695  19.892  28.830   1.713
50832W        W51696  20.973  28.390   2.617
50833W        W51697  20.923  28.424   1.646
50834W        W51698  20.636  27.608   1.398
50835W        W51699  20.092  25.870   0.599
50836W        W51700  21.853  25.585   1.104
50837W        W51701  19.417  27.204   0.221
50838W        W51702  21.723  26.459   1.190
50839W        W51703  20.205  27.481   0.344
50840W        W51704  21.353  27.638   2.903
50841W        W51705  20.896  28.518   0.357
50842W        W51706  19.545  26.240   3.335
50843W        W51707  19.468  26.921   2.339
50844W        W51708  21.427  28.170   2.946
50845W        W51709  20.524  26.111   3.033
50846W        W51710  18.266  26.812   2.897
50847W        W51711  20.214  27.214   2.576
50848W        W51712  18.609  27.914   1.378
50849W        W51713  18.640  27.242   2.289
50850W        W51714  20.980  27.496   2.576
50851W        W51715  20.956  28.849   3.324
50852W        W51716  20.679  26.565   2.864
50853W        W51717  20.889  28.787   1.262
50854W        W51718  19.988  28.480   2.674
50855W        W51719  19.317  28.634   2.108
50856W        W51720  21.214  27.955   2.531
50857W        W51721  20.123  28.036   3.590
50858W        W51722  18.810  27.988   1.897
50859W        W51723  21.162  27.546   1.451
50860W        W51724  20.846  28.691   2.200
50861W        W51725  18.806  28.483   2.125
50862W        W51726  19.881  26.633   3.264
50863W        W51727  20.256  28.663   1.088
50864W        W51728  19.614  27.917   3.537
50865W        W51729  19.739  28.135   0.968
50866W        W51730  18.990  26.903   0.184
50867W        W51731  18.276   0.147   6.976
50868W        W51732  18.678  28.014   6.642
50869W        W51733  21.480  27.715   4.420
50870W        W51734  21.538  28.903   6.346
50871W        W51735  19.373  28.787   3.918
50872W        W51736  19.593  27.012   4.663
50873W        W51737  19.040  26.964   5.049
50874W        W51738  19.774  27.367   4.315
50875W        W51739  19.783  28.747   6.786
50876W        W51740  18.472  26.400   6.613
50877W        W51741  18.847  25.642   6.440
50878W        W51742  21.059  25.987   5.439
50879W        W51743  20.343  26.761   3.958
50880W        W51744  21.047  26.380   7.069
50881W        W51745  18.528  26.015   6.272
50882W        W51746  18.442  28.708   7.186
50883W        W51747  19.898  28.141   4.038
50884W        W51748  18.379  26.758   5.697
50885W        W51749  19.424  26.875   6.835
50886W        W51750  21.595  26.645   5.387
50887W        W51751  21.483  27.623   6.375
50888W        W51752  19.938  26.887   5.173
50889W        W51753  20.546  28.248   5.658
50890W        W51754  18.871  27.708   5.937
50891W        W51755  18.265  27.212   5.520
50892W        W51756  19.379  27.275   6.489
50893W        W51757  21.581  27.031   6.864
50894W        W51758  19.146  28.404   5.369
50895W        W51759  20.055  28.223   6.319
50896W        W51760  19.635  26.672   5.582
50897W        W51761  19.808  27.605   5.325
50898W        W51762  20.570  28.393   7.157
50899W        W51763  19.967  27.539   7.154
50900W        W51764  19.860  27.393   6.658
50901W        W51765  18.195  26.665   7.113
50902W        W51766  21.041  28.185   6.886
50903W        W51767  18.648  25.873   4.569
50904W        W51768  19.247  28.089   5.814
50905W        W51769  21.858  28.009   5.284
50906W        W51770  21.158  26.473   5.678
50907W        W51771  21.506  26.411   3.651
50908W        W51772  21.936  27.082   6.083
50909W        W51773  19.889  28.849   5.815
50910W        W51774  21.422  28.185   4.161
50911W        W51775  18.699  28.991   4.330
50912W        W51776  19.061  28.829   4.711
50913W        W51777  18.954  25.921   5.980
50914W        W51778  21.497  27.018   6.353
50915W        W51779  20.787  27.162   4.926
50916W        W51780  20.821  27.019   4.007
50917W        W51781  20.213  27.978   5.917
50918W        W51782  19.890  26.368   5.187
50919W        W51783  20.579  28.236   6.249
50920W        W51784  21.295  27.315   4.708
50921W        W51785  20.007  26.094   4.719
50922W        W51786  18.995  28.583   4.232
50923W        W51787  18.636  26.746   4.811
50924W        W51788  20.977  26.838   5.347
50925W        W51789  18.580  28.352   5.316
50926W        W51790  19.844  28.656   4.066
50927W        W51791  21.185  26.778   3.487
50928W        W51792  18.341  28.482   5.963
50929W        W51793  19.084  28.075   6.329
50930W        W51794  19.395  27.496   4.669
50931W        W51795  19.656  25.924   6.083
50932W        W51796  21.851  25.725   5.462
50933W        W51797  18.853  27.365   3.744
50934W        W51798  18.670  26.444   3.941
50935W        W51799  18.867  28.342   4.872
50936W        W51800  19.666  27.890   4.885
50937W        W51801  21.049  28.924   6.544
50938W        W51802  20.229  26.443   4.404
50939W        W51803  21.462  28.973   5.182
50940W        W51804  21.138  26.788   6.755
50941W        W51805  21.945  28.312   4.884
50942W        W51806  20.414  27.734   6.337
50943W        W51807  18.204  27.041   4.681
50944W        W51808  19.356  27.678   6.138
50945W        W51809  20.574  26.817   4.427
50946W        W51810  20.374  27.430   4.693
50947W        W51811  18.897  26.775   5.896
50948W        W51812  18.649  26.814   6.855
50949W        W51813  18.663  25.664   5.049
50950W        W51814  20.728  26.143   5.800
50951W        W51815  20.152  26.163   6.867
50952W        W51816  20.533  26.247   4.047
50953W        W51817  21.439  28.566   6.713
50954W        W51818  20.522  25.770   6.793
50955W        W51819  21.789  27.971   7.181
50956W        W51820  21.118  26.260   6.551
50957W        W51821  21.068  26.003   4.852
50958W        W51822  21.229  27.344   7.173
50959W        W51823  18.844  28.766   5.176
50960W        W51824  19.738  26.471   4.215
50961W        W51825  19.170  25.878   6.880
50962W        W51826  21.229  26.452   4.626
50963W        W51827  21.567  26.840   4.462
50964W        W51828  19.324  28.942   7.009
50965W        W51829  19.196  25.723   4.226
50966W        W51830  21.633  26.148   5.244
50967W        W51831  21.771  28.395   3.844
50968W        W51832  18.628  27.551   5.517
50969W        W51833  20.591  26.083   3.551
50970W        W51834  21.789  28.435   5.578
50971W        W51835  21.782  25.776   6.068
50972W        W51836  20.217  27.014   6.696
50973W        W51837  20.006  27.795   4.499
50974W        W51838  20.651  27.522   7.338
50975W        W51839  20.583  25.710   5.541
50976W        W51840  19.117  26.638   5.455
50977W        W51841  18.455  27.632   6.305
50978W        W51842  20.542  28.679   5.125
50979W        W51843  21.528  26.848   5.844
50980W        W51844  20.216  28.800   6.448
50981W        W51845  21.357  27.735   3.906
50982W        W51846  19.886  27.391   4.841
50983W        W51847  21.880  25.810   6.632
50984W        W51848  19.882  27.717   6.247
50985W        W51849  20.167  26.591   5.551
50986W        W51850  21.062  26.919   4.484
50987W        W51851  21.303  26.826   3.982
50988W        W51852  21.109  28.460   4.487
50989W        W51853  20.913  27.943   5.408
50990W        W51854  20.838  27.385   4.463
50991W        W51855  20.253  27.323   5.210
50992W        W51856  21.133  27.471   5.167
50993W        W51857  18.559  26.289   5.825
50994W        W51858  21.175  27.302   6.651
50995W        W51859  21.715  28.860   5.861
50996W        W51860  19.686  28.445   5.321
50997W        W51861  20.691  28.759   6.192
50998W        W51862  20.771  26.455   6.210
50999W        W51863  19.893   0.146   6.221
51000W        W51864  21.583  26.076   4.719
51001W        W51865  21.506  27.347   5.939
51002W        W51866  18.476  26.719   6.201
51003W        W51867  21.201  26.406   5.147
51004W        W51868  21.571  26.552   6.652
51005W        W51869  20.504  28.159   5.160
51006W        W51870  19.755  28.719   4.843
51007W        W51871  18.758  25.959   4.066
51008W        W51872  20.093  25.765   5.774
51009W        W51873  18.885  28.935   3.858
51010W        W51874  19.510  26.931   4.153
51011W        W51875  20.030  27.879   6.709
51012W        W51876  19.856  26.588   4.722
51013W        W51877  21.393  25.714   5.148
51014W        W51878  20.931  28.989   5.337
51015W        W51879  20.263  28.548   5.985
51016W        W51880  19.708  27.845   5.782
51017W        W51881  21.485  28.437   6.063
51018W        W51882  19.126  26.043   4.618
51019W        W51883  19.806  28.348   5.818
51020W        W51884  19.085  26.138   3.662
51021W        W51885  19.970  26.861   5.962
51022W        W51886  20.941  25.670   5.909
51023W        W51887  18.231  27.586   5.854
51024W        W51888  20.010  27.188   3.881
51025W        W51889  19.096  25.612   3.741
51026W        W51890  20.240  26.954   4.781
51027W        W51891  20.780  25.913   6.333
51028W        W51892  19.490  27.785   6.624
51029W        W51893  20.369  27.514   6.843
51030W        W51894  20.865  27.645   6.883
51031W        W51895  20.179  25.798   7.224
51032W        W51896  19.424  26.253   5.367
51033W        W51897  19.036  26.412   4.980
51034W        W51898  18.540  28.817   4.787
51035W        W51899  20.177  28.374   6.773
51036W        W51900  19.234  27.374   4.172
51037W        W51901  20.728  27.296   5.441
51038W        W51902  21.033  27.064   5.805
51039W        W51903  20.087  27.501   5.797
51040W        W51904  20.548  27.924   3.851
51041W        W51905  20.264  26.096   5.405
51042W        W51906  21.889  26.424   4.433
51043W        W51907  18.479  28.866   6.578
51044W        W51908  18.612  28.090   6.142
51045W        W51909  18.195  28.912   4.403
51046W        W51910  20.272  26.309   5.966
51047W        W51911  19.397  28.281   3.990
51048W        W51912  21.418  28.700   4.153
51049W        W51913  20.402  27.266   4.195
51050W        W51914  19.344  26.559   4.547
51051W        W51915  20.140  26.333   3.715
51052W        W51916  20.554  28.035   6.742
51053W        W51917  21.085  26.029   4.320
51054W        W51918  18.337  25.582   3.888
51055W        W51919  19.572  28.132   6.214
51056W        W51920  19.452  27.987   5.342
51057W        W51921  19.180  27.815   3.849
51058W        W51922  18.547  28.419   4.464
51059W        W51923  18.997  27.190   6.832
51060W        W51924  19.664  25.840   7.060
51061W        W51925  20.245  25.967   6.375
51062W        W51926  19.549  25.716   4.825
51063W        W51927  20.702  26.291   4.564
51064W        W51928  18.498  25.758   5.797
51065W        W51929  18.642  26.534   5.306
51066W        W51930  21.412  25.715   5.708
51067W        W51931  18.839  26.436   4.449
51068W        W51932  21.199  26.084   6.037
51069W        W51933  21.489  27.229   3.709
51070W        W51934  18.950  26.160   5.521
51071W        W51935  20.225  26.516   6.441
51072W        W51936  18.302  26.094   3.841
51073W        W51937  18.944  27.567   6.437
51074W        W51938  20.318  27.068   5.661
51075W        W51939  20.264  28.992   4.045
51076W        W51940  18.336  27.430   3.673
51077W        W51941  19.172  28.174   6.829
51078W        W51942  18.591  27.159   6.468
51079W        W51943  19.662  27.283   6.047
51080W        W51944  21.282  25.744   6.449
51081W        W51945  21.884  27.367   6.530
51082W        W51946  21.766  27.414   4.102
51083W        W51947  20.507  27.765   4.333
51084W        W51948  21.170   0.063   3.800
51085W        W51949  20.328  27.142   7.216
51086W        W51950  18.747  28.029   7.154
51087W        W51951  21.957  26.124   7.035
51088W        W51952  21.395  27.135   5.434
51089W        W51953  19.790  28.908   7.267
51090W        W51954  19.688  25.662   4.019
51091W        W51955  21.043  28.169   3.802
51092W        W51956  18.986  26.385   6.752
51093W        W51957  19.671  28.269   6.689
51094W        W51958  21.606  26.151   6.348
51095W        W51959  20.789   0.052   4.183
51096W        W51960  21.124  27.564   5.672
51097W        W51961  19.242  26.029   6.392
51098W        W51962  19.853  27.047   7.059
51099W        W51963  19.202  28.167   4.472
51100W        W51964  21.075  27.765   4.745
51101W        W51965  18.897  26.385   6.235
51102W        W51966  20.027  28.296   4.959
51103W        W51967  21.794  27.027   5.086
51104W        W51968  20.023  25.655   6.747
51105W        W51969  20.973  28.400   5.901
51106W        W51970  21.310  28.710   5.602
51107W        W51971  20.260  28.490   3.804
51108W        W51972  18.326  28.248   6.981
51109W        W51973  19.319  26.319   5.895
51110W        W51974  19.145  25.895   5.114
51111W        W51975  20.662  26.672   5.731
51112W        W51976  19.604  27.488   3.828
51113W        W51977  21.619  27.760   5.655
51114W        W51978  18.767  28.494   6.839
51115W        W51979  21.195   0.008   4.523
51116W        W51980  19.525  26.214   4.875
51117W        W51981  19.026  27.456   5.214
51118W        W51982  19.404   0.029   6.091
51119W        W51983  21.474   0.052   6.860
51120W        W51984  20.585  27.381   5.957
51121W        W51985  18.544  26.942   3.824
51122W        W51986  21.569  28.689   4.716
51123W        W51987  21.445  26.366   4.166
51124W        W51988  19.535  25.646   6.585
51125W        W51989  21.468  28.437   5.156
51126W        W51990  21.302  26.880   4.958
51127W        W51991  19.475  26.691   5.071
51128W        W51992  19.765  26.924   6.427
51129W        W51993  20.954  27.894   6.436
51130W        W51994  19.403  26.515   6.463
51131W        W51995  19.363  28.831   5.155
51132W        W51996  18.814  28.999   6.957
51133W        W51997  18.870  28.311   3.799
51134W        W51998  21.472  28.161   4.697
51135W        W51999  19.018  26.860   6.426
51136W        W52000  21.804  26.733   3.986
51137W        W52001  19.535  27.822   4.250
51138W        W52002  20.650  27.284   6.483
51139W        W52003  20.470  26.888   6.156
51140W        W52004  19.092  27.240   6.052
51141W        W52005  21.144  28.976   6.017
51142W        W52006  21.014  25.877   6.906
51143W        W52007  18.661  25.958   6.809
51144W        W52008  19.277  27.087   5.594
51145W        W52009  19.365  26.567   3.765
51146W        W52010  18.317  28.369   6.475
51147W        W52011  19.793  27.158   5.570
51148W        W52012  19.628  26.135   3.836
51149W        W52013  19.091  27.007   4.541
51150W        W52014  18.394  28.997   6.081
51151W        W52015  21.268  27.295   4.185
51152W        W52016  21.482  26.079   6.849
51153W        W52017  20.996  28.218   4.946
51154W        W52018  18.277  27.174   7.030
51155W        W52019  21.599  25.871   4.245
51156W        W52020  21.000  27.932   4.272
51157W        W52021  20.009  26.909   4.325
51158W        W52022  21.064  26.160   3.794
51159W        W52023  21.308  26.559   6.190
51160W        W52024  18.754  27.042   5.465
51161W        W52025  19.128  27.889   4.931
51162W        W52026  20.821  26.658   4.883
51163W        W52027  19.826  26.203   5.685
51164W        W52028  21.795  28.003   6.135
51165W        W52029  21.646  26.249   5.780
51166W        W52030  18.239  28.763   5.211
51167W        W52031  18.738  27.924   4.548
51168W        W52032  18.715  25.901   7.334
51169W        W52033  19.954  28.417   7.211
51170W        W52034  21.689  27.514   5.190
51171W        W52035  20.863  27.543   3.977
51172W        W52036  20.338   0.086   5.963
51173W        W52037  21.109  27.844   7.310
51174W        W52038  19.941  25.628   4.481
51175W        W52039  20.703  26.371   5.311
51176W        W52040  18.428  28.018   5.671
51177W        W52041  19.594  26.013   4.397
51178W        W52042  19.476  27.410   7.002
51179W        W52043  20.331  26.460   4.927
51180W        W52044  20.762  27.865   5.928
51181W        W52045  18.797  28.530   6.330
51182W        W52046  19.457  28.451   7.150
51183W        W52047  19.210  26.256   4.144
51184W        W52048  20.943  26.522   4.175
51185W        W52049  20.631  28.578   6.672
51186W        W52050  19.494  27.220   5.137
51187W        W52051  18.897  28.906   5.999
51188W        W52052  21.706  28.902   3.782
51189W        W52053  18.555  27.548   6.813
51190W        W52054  20.442  27.736   5.508
51191W        W52055  18.882  27.447   4.720
51192W        W52056  19.255  28.524   6.091
51193W        W52057  19.756  25.862   5.300
51194W        W52058  18.498  27.696   4.095
51195W        W52059  19.838  26.732   3.777
51196W        W52060  18.507  27.297   5.058
51197W        W52061  19.753  26.111   6.559
51198W        W52062  21.545  25.894   3.735
51199W        W52063  21.744  27.489   7.004
51200W        W52064  20.260  28.809   7.011
51201W        W52065  21.851  27.887   6.670
51202W        W52066  21.499  28.420   7.191
51203W        W52067  19.031   0.050   5.538
51204W        W52068  21.846  27.805   4.787
51205W        W52069  20.480  26.852   5.230
51206W        W52070  20.115  25.671   4.986
51207W        W52071  19.391  28.357   4.909
51208W        W52072  19.789  26.428   6.147
51209W        W52073  19.361  25.839   5.658
51210W        W52074  18.454  28.662   4.013
51211W        W52075  20.169  27.796   5.006
51212W        W52076  19.290  28.626   6.596
51213W        W52077  18.738  27.241   4.245
51214W        W52078  18.477  26.055   5.342
51215W        W52079  20.037  28.063   5.434
51216W        W52080  18.198  25.764   4.335
51217W        W52081  20.983  26.945   6.290
51218W        W52082  20.750  26.582   3.694
51219W        W52083  21.335  28.190   5.590
51220W        W52084  20.176  28.564   5.469
51221W        W52085  19.466  28.680   4.423
51222W        W52086  20.478  25.579   3.570
51223W        W52087  18.553  28.817   5.610
51224W        W52088  20.336  26.632   7.049
51225W        W52089  18.628  26.374   7.129
51226W        W52090  18.483  26.782   4.312
51227W        W52091  19.004  26.805   4.079
51228W        W52092  20.787  27.132   6.977
51229W        W52093  19.286  27.591   5.635
51230W        W52094  20.544  25.991   4.971
51231W        W52095  19.850  28.932   5.311
51232W        W52096  21.042  28.427   6.405
51233W        W52097  20.932  28.460   5.380
51234W        W52098  20.667  27.658   5.048
51235W        W52099  20.038  26.044   4.139
51236W        W52100  21.880  25.698   4.937
51237W        W52101  19.274  27.073   3.712
51238W        W52102  21.683  26.546   4.892
51239W        W52103  20.103  27.671   3.991
51240W        W52104  21.360  27.775   6.861
51241W        W52105  20.802  28.644   3.786
51242W        W52106  19.468  26.315   6.940
51243W        W52107  19.416  26.820   6.039
51244W        W52108  21.429  28.116   6.485
51245W        W52109  20.622  26.260   6.677
51246W        W52110  18.187  26.844   6.619
51247W        W52111  20.155  27.274   6.253
51248W        W52112  18.607  27.810   5.044
51249W        W52113  18.581  27.208   5.945
51250W        W52114  21.043  27.456   6.171
51251W        W52115  21.008  28.687   6.995
51252W        W52116  20.647  26.763   6.634
51253W        W52117  21.075  28.726   4.935
51254W        W52118  19.735  28.639   6.276
51255W        W52119  19.422  28.738   5.657
51256W        W52120  21.270  27.935   6.023
51257W        W52121  20.247  27.984   7.166
51258W        W52122  18.924  27.952   5.437
51259W        W52123  21.374  27.921   5.150
51260W        W52124  20.630  28.759   5.677
51261W        W52125  18.831  28.404   5.788
51262W        W52126  19.871  26.592   6.799
51263W        W52127  20.130  28.606   4.506
51264W        W52128  19.687  27.959   7.091
51265W        W52129  19.729  28.253   4.515
51266W        W52130  18.922  26.702   3.561
51267W        W52131  18.334   0.148  10.701
51268W        W52132  18.645  27.938  10.306
51269W        W52133  21.492  27.709   7.982
51270W        W52134  21.623  28.819  10.013
51271W        W52135  19.320  28.801   7.501
51272W        W52136  19.612  26.822   8.335
51273W        W52137  19.262  26.563   8.642
51274W        W52138  20.037  27.470   8.010
51275W        W52139  19.773  28.760  10.347
51276W        W52140  18.428  26.429  10.250
51277W        W52141  18.966  25.628  10.135
51278W        W52142  20.985  25.999   8.945
51279W        W52143  20.650  26.584   7.532
51280W        W52144  20.998  26.442  10.568
51281W        W52145  18.434  26.138   9.841
51282W        W52146  18.490  28.670  10.815
51283W        W52147  19.794  28.059   7.587
51284W        W52148  18.442  26.722   9.248
51285W        W52149  19.522  26.923  10.386
51286W        W52150  21.868  26.577   8.988
51287W        W52151  21.446  27.562   9.844
51288W        W52152  19.921  27.043   8.940
51289W        W52153  20.487  28.332   9.270
51290W        W52154  18.772  27.691   9.513
51291W        W52155  18.119  27.140   9.238
51292W        W52156  19.353  27.327  10.100
51293W        W52157  21.550  27.088  10.500
51294W        W52158  19.110  28.403   8.957
51295W        W52159  20.197  28.146  10.078
51296W        W52160  19.428  26.718   9.157
51297W        W52161  19.667  27.524   8.869
51298W        W52162  20.614  28.323  10.774
51299W        W52163  20.003  27.604  10.826
51300W        W52164  19.871  27.294  10.201
51301W        W52165  18.154  26.647  10.681
51302W        W52166  21.021  28.311  10.443
51303W        W52167  18.744  25.791   8.363
51304W        W52168  19.215  28.072   9.435
51305W        W52169  21.765  27.984   8.910
51306W        W52170  21.425  26.352   9.201
51307W        W52171  21.540  26.371   7.266
51308W        W52172  22.013  27.093   9.755
51309W        W52173  19.674  28.866   9.597
51310W        W52174  21.562  28.208   8.077
51311W        W52175  18.625  28.969   7.943
51312W        W52176  19.004  28.880   8.290
51313W        W52177  18.925  25.940   9.713
51314W        W52178  21.545  27.044   9.974
51315W        W52179  20.925  27.268   8.574
51316W        W52180  20.864  27.079   7.514
51317W        W52181  20.105  28.127   9.567
51318W        W52182  20.088  26.205   8.713
51319W        W52183  20.451  28.485   9.780
51320W        W52184  21.269  27.285   8.163
51321W        W52185  20.141  25.946   8.269
51322W        W52186  18.935  28.547   7.896
51323W        W52187  18.409  26.151   8.485
51324W        W52188  20.979  26.865   8.922
51325W        W52189  18.569  28.350   8.947
51326W        W52190  19.778  28.578   7.663
51327W        W52191  21.278  26.830   7.263
51328W        W52192  18.361  28.496   9.652
51329W        W52193  19.128  28.131   9.945
51330W        W52194  19.338  27.511   8.415
51331W        W52195  19.429  25.926   9.475
51332W        W52196  21.855  25.771   9.062
51333W        W52197  19.054  27.692   6.915
51334W        W52198  18.766  26.375   7.637
51335W        W52199  18.760  28.349   8.411
51336W        W52200  19.593  27.955   8.488
51337W        W52201  21.178  28.772  10.255
51338W        W52202  20.293  26.381   7.877
51339W        W52203  21.459  28.785   8.718
51340W        W52204  21.202  26.801  10.270
51341W        W52205  21.760  28.352   8.551
51342W        W52206  20.391  27.669  10.019
51343W        W52207  18.108  27.353   8.134
51344W        W52208  19.369  27.673   9.707
51345W        W52209  20.506  26.819   8.056
51346W        W52210  20.352  27.257   8.348
51347W        W52211  18.877  26.800   9.557
51348W        W52212  18.678  26.864  10.370
51349W        W52213  18.718  25.663   8.875
51350W        W52214  20.419  26.150   9.132
51351W        W52215  20.179  26.143  10.437
51352W        W52216  20.672  26.065   7.658
51353W        W52217  21.662  28.594  10.501
51354W        W52218  20.515  25.761  10.386
51355W        W52219  21.454  28.097  10.676
51356W        W52220  21.134  26.320  10.088
51357W        W52221  21.007  26.156   8.442
51358W        W52222  21.066  27.410  10.803
51359W        W52223  18.781  28.754   8.724
51360W        W52224  19.787  26.503   7.785
51361W        W52225  19.074  25.918  10.570
51362W        W52226  21.342  26.458   8.151
51363W        W52227  21.610  26.918   8.105
51364W        W52228  19.312  28.993  10.811
51365W        W52229  19.063  25.557   7.941
51366W        W52230  21.664  26.149   8.774
51367W        W52231  21.911  28.378   7.511
51368W        W52232  18.472  27.597   9.049
51369W        W52233  20.573  26.176   7.175
51370W        W52234  21.720  28.519   9.142
51371W        W52235  21.716  25.855   9.614
51372W        W52236  20.239  26.933  10.281
51373W        W52237  20.101  28.004   8.009
51374W        W52238  20.564  27.652  10.904
51375W        W52239  20.587  25.664   9.056
51376W        W52240  18.939  26.559   9.066
51377W        W52241  18.433  27.622   9.923
51378W        W52242  20.426  28.583   8.616
51379W        W52243  21.670  26.739   9.548
51380W        W52244  20.243  28.852  10.157
51381W        W52245  21.561  27.595   7.476
51382W        W52246  19.840  27.267   8.456
51383W        W52247  21.901  26.113  10.276
51384W        W52248  19.914  27.703   9.829
51385W        W52249  20.236  26.619   8.992
51386W        W52250  21.074  26.848   7.942
51387W        W52251  21.614  26.690   7.654
51388W        W52252  21.230  28.443   8.399
51389W        W52253  20.787  27.931   9.110
51390W        W52254  20.781  27.247   8.072
51391W        W52255  20.208  27.448   8.851
51392W        W52256  21.217  27.307   9.016
51393W        W52257  18.693  26.334   9.454
51394W        W52258  21.176  27.328  10.269
51395W        W52259  21.658  28.891   9.494
51396W        W52260  19.610  28.381   8.777
51397W        W52261  20.730  28.893  10.004
51398W        W52262  20.717  26.367   9.756
51399W        W52263  19.839   0.129   9.988
51400W        W52264  21.553  25.989   8.282
51401W        W52265  21.386  27.171   9.496
51402W        W52266  18.409  26.663   9.768
51403W        W52267  21.278  26.499   8.713
51404W        W52268  21.665  26.577  10.345
51405W        W52269  20.411  28.090   8.795
51406W        W52270  19.741  28.697   8.392
51407W        W52271  18.680  25.908   7.854
51408W        W52272  20.108  25.718   9.282
51409W        W52273  18.811  28.930   7.475
51410W        W52274  19.573  27.241   7.982
51411W        W52275  19.953  27.783  10.341
51412W        W52276  19.918  26.409   8.265
51413W        W52277  21.419  25.694   8.701
51414W        W52278  20.878   0.076   9.068
51415W        W52279  20.091  28.633   9.429
51416W        W52280  19.709  27.785   9.351
51417W        W52281  21.430  28.473   9.654
51418W        W52282  19.248  25.909   8.259
51419W        W52283  19.690  28.299   9.285
51420W        W52284  19.101  26.223   7.270
51421W        W52285  19.890  26.869   9.430
51422W        W52286  20.942  25.707   9.454
51423W        W52287  18.200  27.598   9.472
51424W        W52288  19.911  27.219   7.562
51425W        W52289  19.214  25.738   7.381
51426W        W52290  20.125  26.812   8.503
51427W        W52291  20.840  25.887   9.931
51428W        W52292  19.466  27.817  10.183
51429W        W52293  20.307  27.410  10.475
51430W        W52294  20.779  27.606  10.417
51431W        W52295  20.208  25.787  10.818
51432W        W52296  19.381  26.229   9.033
51433W        W52297  18.902  26.192   8.688
51434W        W52298  18.426  28.739   8.336
51435W        W52299  20.071  28.330  10.572
51436W        W52300  19.165  27.564   7.874
51437W        W52301  20.696  27.427   9.035
51438W        W52302  20.888  27.090   9.372
51439W        W52303  20.016  27.384   9.341
51440W        W52304  20.663  27.985   7.553
51441W        W52305  20.543  25.975   8.644
51442W        W52306  21.978  26.531   8.002
51443W        W52307  18.445  28.836  10.304
51444W        W52308  18.641  28.088   9.814
51445W        W52309  18.092  28.853   7.928
51446W        W52310  20.237  26.492   9.507
51447W        W52311  19.341  28.313   7.676
51448W        W52312  21.462  28.580   7.720
51449W        W52313  20.402  27.224   7.730
51450W        W52314  19.393  26.395   8.132
51451W        W52315  20.094  26.285   7.385
51452W        W52316  20.411  27.941  10.501
51453W        W52317  21.130  25.999   7.957
51454W        W52318  18.305  25.659   7.619
51455W        W52319  19.622  28.125   9.765
51456W        W52320  19.407  27.964   8.978
51457W        W52321  19.235  27.972   7.318
51458W        W52322  18.171  28.360   8.052
51459W        W52323  19.087  27.180  10.510
51460W        W52324  19.731  25.907  10.654
51461W        W52325  20.300  25.951   9.947
51462W        W52326  19.703  25.696   8.426
51463W        W52327  20.644  25.925   8.144
51464W        W52328  18.512  25.862   9.415
51465W        W52329  18.526  26.593   8.740
51466W        W52330  21.383  25.818   9.218
51467W        W52331  18.870  26.271   8.172
51468W        W52332  21.213  26.119   9.617
51469W        W52333  21.753  27.098   7.344
51470W        W52334  18.970  25.982   9.195
51471W        W52335  20.244  26.479  10.028
51472W        W52336  18.301  26.173   7.493
51473W        W52337  18.948  27.640   9.999
51474W        W52338  20.375  27.036   9.268
51475W        W52339  20.219  28.845   7.542
51476W        W52340  18.284  27.784   7.206
51477W        W52341  19.204  28.201  10.451
51478W        W52342  18.635  27.128   9.919
51479W        W52343  19.683  27.264   9.722
51480W        W52344  21.418  25.885  10.048
51481W        W52345  21.827  27.445  10.183
51482W        W52346  21.836  27.315   7.819
51483W        W52347  20.523  27.683   8.008
51484W        W52348  21.292  28.896   7.350
51485W        W52349  20.340  27.206  10.980
51486W        W52350  18.829  28.075  10.790
51487W        W52351  21.937  26.327  10.738
51488W        W52352  21.464  26.863   9.083
51489W        W52353  19.847  28.861  10.899
51490W        W52354  19.730  25.663   7.559
51491W        W52355  21.489  28.082   7.584
51492W        W52356  18.905  26.374  10.429
51493W        W52357  19.685  28.262  10.256
51494W        W52358  21.620  26.327   9.874
51495W        W52359  20.923   0.269   7.901
51496W        W52360  21.062  27.608   9.417
51497W        W52361  19.255  26.045  10.094
51498W        W52362  19.931  27.076  10.681
51499W        W52363  19.167  28.037   8.084
51500W        W52364  21.001  27.706   8.256
51501W        W52365  18.875  26.428   9.928
51502W        W52366  20.020  28.258   8.479
51503W        W52367  21.868  27.026   8.745
51504W        W52368  20.007  25.665  10.286
51505W        W52369  21.011  28.299   9.381
51506W        W52370  21.249  28.735   9.213
51507W        W52371  20.256  28.303   7.603
51508W        W52372  18.333  28.189  10.644
51509W        W52373  19.201  26.385   9.515
51510W        W52374  19.222  25.809   8.751
51511W        W52375  20.692  26.608   9.280
51512W        W52376  19.567  27.596   7.501
51513W        W52377  21.580  27.606   9.308
51514W        W52378  18.749  28.441  10.430
51515W        W52379  21.324   0.118   8.272
51516W        W52380  19.582  26.158   8.568
51517W        W52381  18.910  27.490   8.776
51518W        W52382  19.319   0.070   9.902
51519W        W52383  21.485   0.067  10.547
51520W        W52384  20.555  27.452   9.550
51521W        W52385  18.590  26.822   7.392
51522W        W52386  21.638  28.722   8.213
51523W        W52387  21.574  26.160   7.763
51524W        W52388  19.585  25.655   9.936
51525W        W52389  21.319  28.313   8.892
51526W        W52390  21.377  26.998   8.580
51527W        W52391  19.753  26.586   8.787
51528W        W52392  19.839  26.821   9.958
51529W        W52393  20.745  28.035  10.111
51530W        W52394  19.417  26.526  10.050
51531W        W52395  19.332  28.808   8.699
51532W        W52396  18.829   0.026  10.617
51533W        W52397  18.959  28.462   7.331
51534W        W52398  21.417  27.935   8.492
51535W        W52399  19.076  26.901  10.053
51536W        W52400  22.115  26.754   7.494
51537W        W52401  19.623  27.770   8.005
51538W        W52402  20.620  27.222  10.099
51539W        W52403  20.559  26.860   9.723
51540W        W52404  19.077  27.264   9.642
51541W        W52405  21.189  28.926   9.741
51542W        W52406  21.015  25.895  10.415
51543W        W52407  18.593  25.937  10.305
51544W        W52408  19.022  27.082   9.139
51545W        W52409  19.699  26.621   7.288
51546W        W52410  18.325  28.353  10.143
51547W        W52411  19.526  27.207   9.252
51548W        W52412  19.582  26.147   7.465
51549W        W52413  18.919  26.950   8.647
51550W        W52414  18.426  28.980   9.811
51551W        W52415  21.361  27.162   7.667
51552W        W52416  21.455  26.135  10.518
51553W        W52417  20.921  28.083   8.634
51554W        W52418  18.325  27.130  10.668
51555W        W52419  21.453  25.639   7.737
51556W        W52420  21.080  28.059   7.883
51557W        W52421  20.009  26.944   8.013
51558W        W52422  21.126  25.996   7.422
51559W        W52423  21.150  26.654   9.551
51560W        W52424  18.504  27.099   8.903
51561W        W52425  19.082  27.979   8.597
51562W        W52426  20.896  26.755   8.417
51563W        W52427  19.885  26.243   9.183
51564W        W52428  21.714  28.037   9.792
51565W        W52429  21.894  26.287   9.421
51566W        W52430  18.255  28.758   8.821
51567W        W52431  18.644  28.105   7.976
51568W        W52432  18.643  25.752  10.826
51569W        W52433  19.829  28.354  11.046
51570W        W52434  21.659  27.489   8.815
51571W        W52435  21.024  27.555   7.733
51572W        W52436  20.349   0.021   9.659
51573W        W52437  20.981  27.926  10.791
51574W        W52438  19.970  25.503   8.013
51575W        W52439  20.719  26.439   8.796
51576W        W52440  18.422  28.043   9.342
51577W        W52441  19.697  25.997   7.978
51578W        W52442  19.563  27.480  10.562
51579W        W52443  20.436  26.402   8.372
51580W        W52444  20.646  27.971   9.616
51581W        W52445  18.805  28.573   9.946
51582W        W52446  19.509  28.519  10.697
51583W        W52447  19.173  26.066   7.776
51584W        W52448  20.816  26.408   8.021
51585W        W52449  20.553  28.476  10.293
51586W        W52450  19.423  27.069   8.758
51587W        W52451  18.907  28.924   9.599
51588W        W52452  21.814  28.835   7.246
51589W        W52453  18.650  27.404  10.351
51590W        W52454  20.308  27.797   9.229
51591W        W52455  18.823  27.675   8.274
51592W        W52456  19.407  28.566   9.941
51593W        W52457  20.127  25.693   8.755
51594W        W52458  18.221  27.988   7.693
51595W        W52459  20.165  26.773   7.541
51596W        W52460  18.401  27.457   8.544
51597W        W52461  19.775  26.134  10.118
51598W        W52462  21.611  25.866   7.308
51599W        W52463  21.506  27.584  10.599
51600W        W52464  20.312  28.761  10.679
51601W        W52465  21.737  27.928  10.292
51602W        W52466  21.273  28.548  10.824
51603W        W52467  19.052  28.922   9.115
51604W        W52468  21.904  27.887   8.339
51605W        W52469  20.515  27.003   8.770
51606W        W52470  20.417  25.514   8.371
51607W        W52471  19.270  28.419   8.394
51608W        W52472  19.715  26.411   9.643
51609W        W52473  19.674  25.788   8.988
51610W        W52474  18.463  28.549   7.672
51611W        W52475  20.073  27.738   8.454
51612W        W52476  19.177  28.751  10.354
51613W        W52477  18.504  27.594   7.876
51614W        W52478  18.504  26.153   9.004
51615W        W52479  19.924  27.963   8.912
51616W        W52480  18.209  25.838   8.091
51617W        W52481  21.033  27.059   9.857
51618W        W52482  21.151  26.455   7.624
51619W        W52483  21.484  28.095   9.331
51620W        W52484  20.078  28.447   8.968
51621W        W52485  19.409  28.723   8.003
51622W        W52486  20.690  25.689   7.286
51623W        W52487  18.537  28.795   9.248
51624W        W52488  20.383  26.618  10.679
51625W        W52489  18.496  26.229  10.724
51626W        W52490  18.302  26.942   8.426
51627W        W52491  19.288  26.561   7.621
51628W        W52492  20.696  27.078  10.598
51629W        W52493  19.187  27.576   9.225
51630W        W52494  20.917  25.643   8.546
51631W        W52495  19.630  28.778   9.104
51632W        W52496  20.965  28.452   9.895
51633W        W52497  20.838  28.534   8.945
51634W        W52498  20.590  27.664   8.569
51635W        W52499  20.167  25.906   7.742
51636W        W52500  21.961  25.728   8.568
51637W        W52501  19.436  27.056   7.386
51638W        W52502  21.740  26.595   8.482
51639W        W52503  20.201  27.699   7.586
51640W        W52504  21.216  27.852  10.264
51641W        W52505  21.043  28.353   7.418
51642W        W52506  19.433  26.310  10.513
51643W        W52507  19.398  26.851   9.648
51644W        W52508  21.431  28.316  10.138
51645W        W52509  20.645  26.232  10.257
51646W        W52510  18.183  26.862  10.196
51647W        W52511  20.184  27.199   9.803
51648W        W52512  18.571  27.924   8.649
51649W        W52513  18.590  27.218   9.415
51650W        W52514  20.914  27.590   9.905
51651W        W52515  20.841  28.773  10.637
51652W        W52516  20.707  26.723  10.198
51653W        W52517  20.953  28.903   8.586
51654W        W52518  19.929  28.539   9.898
51655W        W52519  19.279  28.585   9.438
51656W        W52520  21.186  28.005   9.764
51657W        W52521  20.222  28.044  10.977
51658W        W52522  18.868  27.951   9.072
51659W        W52523  21.255  27.808   8.958
51660W        W52524  20.773  28.745   9.468
51661W        W52525  18.809  28.389   9.415
51662W        W52526  19.894  26.567  10.422
51663W        W52527  20.118  28.546   8.054
51664W        W52528  19.653  27.995  10.698
51665W        W52529  19.665  28.278   8.083
51666W        W52530  19.062  26.720   7.162
51667W        W52531  18.274   0.115  14.348
51668W        W52532  18.673  28.002  14.034
51669W        W52533  21.579  27.839  11.602
51670W        W52534  21.663  28.844  13.699
51671W        W52535  19.428  28.691  11.197
51672W        W52536  19.598  27.025  12.033
51673W        W52537  19.260  26.816  12.587
51674W        W52538  20.073  27.719  11.797
51675W        W52539  19.752  28.763  14.132
51676W        W52540  18.620  26.575  13.854
51677W        W52541  18.969  25.742  13.804
51678W        W52542  21.020  26.053  12.845
51679W        W52543  20.554  26.851  11.292
51680W        W52544  21.000  26.455  14.390
51681W        W52545  18.513  26.140  13.558
51682W        W52546  18.475  28.688  14.556
51683W        W52547  20.082  28.158  11.475
51684W        W52548  18.321  26.688  12.910
51685W        W52549  19.498  26.928  14.144
51686W        W52550  21.628  26.744  12.732
51687W        W52551  21.594  27.633  13.642
51688W        W52552  20.069  26.952  12.584
51689W        W52553  20.542  28.265  12.902
51690W        W52554  18.896  27.746  13.272
51691W        W52555  18.099  27.135  12.993
51692W        W52556  19.413  27.291  13.787
51693W        W52557  21.569  27.111  14.313
51694W        W52558  19.138  28.433  12.618
51695W        W52559  20.245  28.144  13.716
51696W        W52560  19.582  26.929  12.972
51697W        W52561  19.832  27.668  12.592
51698W        W52562  20.586  28.416  14.411
51699W        W52563  20.025  27.609  14.509
51700W        W52564  19.865  27.354  14.013
51701W        W52565  18.220  26.733  14.413
51702W        W52566  21.030  28.309  14.125
51703W        W52567  18.649  25.802  12.035
51704W        W52568  19.287  28.138  13.228
51705W        W52569  21.845  28.055  12.591
51706W        W52570  21.376  26.385  13.038
51707W        W52571  21.475  26.506  10.892
51708W        W52572  21.879  27.177  13.525
51709W        W52573  19.804  28.824  13.230
51710W        W52574  21.730  28.342  11.609
51711W        W52575  18.655  28.931  11.627
51712W        W52576  19.045  28.880  12.006
51713W        W52577  18.968  25.953  13.339
51714W        W52578  21.527  26.851  13.758
51715W        W52579  20.864  27.180  12.198
51716W        W52580  20.989  27.130  11.229
51717W        W52581  20.190  28.073  13.220
51718W        W52582  20.185  26.453  12.448
51719W        W52583  20.591  28.353  13.399
51720W        W52584  21.406  27.282  12.014
51721W        W52585  20.109  26.150  11.616
51722W        W52586  19.019  28.575  11.493
51723W        W52587  18.327  26.191  12.089
51724W        W52588  20.872  26.890  12.668
51725W        W52589  18.622  28.388  12.679
51726W        W52590  19.902  28.685  11.428
51727W        W52591  21.151  26.895  10.785
51728W        W52592  18.388  28.522  13.339
51729W        W52593  19.193  28.166  13.744
51730W        W52594  19.505  27.589  12.195
51731W        W52595  19.427  26.114  13.185
51732W        W52596  21.875  25.837  12.777
51733W        W52597  19.077  27.699  10.501
51734W        W52598  18.511  26.367  11.239
51735W        W52599  18.859  28.402  12.185
51736W        W52600  19.770  28.088  12.296
51737W        W52601  21.187  28.787  13.928
51738W        W52602  20.178  26.664  11.591
51739W        W52603  21.470  28.969  12.552
51740W        W52604  21.154  26.876  14.112
51741W        W52605  22.024  28.353  12.193
51742W        W52606  20.485  27.686  13.662
51743W        W52607  17.975  27.405  12.162
51744W        W52608  19.389  27.679  13.439
51745W        W52609  20.566  26.931  11.823
51746W        W52610  20.456  27.415  11.967
51747W        W52611  18.809  26.840  13.362
51748W        W52612  18.623  26.977  14.189
51749W        W52613  18.420  25.753  12.493
51750W        W52614  20.515  26.124  12.998
51751W        W52615  20.139  26.229  14.195
51752W        W52616  20.397  26.367  11.213
51753W        W52617  21.733  28.643  14.203
51754W        W52618  20.471  25.825  14.151
51755W        W52619  21.494  28.156  14.366
51756W        W52620  21.130  26.335  13.911
51757W        W52621  21.248  26.170  12.185
51758W        W52622  21.140  27.399  14.496
51759W        W52623  18.799  28.824  12.466
51760W        W52624  19.767  26.415  11.341
51761W        W52625  19.206  25.982  14.230
51762W        W52626  21.328  26.533  11.810
51763W        W52627  21.628  26.942  11.701
51764W        W52628  19.318  28.966  14.338
51765W        W52629  18.986  25.643  11.667
51766W        W52630  21.682  26.271  12.543
51767W        W52631  21.703  28.321  11.067
51768W        W52632  18.652  27.620  12.833
51769W        W52633  20.606  26.152  10.774
51770W        W52634  21.808  28.479  12.893
51771W        W52635  21.697  25.886  13.513
51772W        W52636  20.269  26.999  14.067
51773W        W52637  20.305  28.173  11.950
51774W        W52638  20.593  27.606  14.543
51775W        W52639  20.605  25.634  12.846
51776W        W52640  18.803  26.623  12.720
51777W        W52641  18.487  27.644  13.616
51778W        W52642  20.557  28.667  12.579
51779W        W52643  21.586  26.813  13.247
51780W        W52644  20.327  28.907  13.886
51781W        W52645  21.409  27.704  11.094
51782W        W52646  19.978  27.349  12.177
51783W        W52647  21.859  25.936  14.033
51784W        W52648  19.962  27.681  13.621
51785W        W52649  20.409  26.640  12.876
51786W        W52650  21.079  26.982  11.740
51787W        W52651  21.301  26.743  11.325
51788W        W52652  21.253  28.458  11.794
51789W        W52653  20.879  27.907  12.715
51790W        W52654  20.945  27.477  11.775
51791W        W52655  20.428  27.334  12.471
51792W        W52656  21.210  27.480  12.448
51793W        W52657  18.677  26.396  13.154
51794W        W52658  21.307  27.368  13.979
51795W        W52659  21.709  28.908  13.138
51796W        W52660  19.668  28.489  12.605
51797W        W52661  20.759  28.890  13.573
51798W        W52662  20.691  26.328  13.490
51799W        W52663  19.963   0.145  13.600
51800W        W52664  21.693  26.176  11.915
51801W        W52665  21.430  27.304  13.291
51802W        W52666  18.325  26.672  13.429
51803W        W52667  21.195  26.486  12.579
51804W        W52668  21.577  26.593  14.226
51805W        W52669  20.552  28.169  12.407
51806W        W52670  19.768  28.835  12.208
51807W        W52671  18.674  25.889  11.327
51808W        W52672  20.081  25.726  13.005
51809W        W52673  18.858  28.966  11.138
51810W        W52674  19.657  27.433  11.692
51811W        W52675  20.005  27.899  14.088
51812W        W52676  20.015  26.102  12.123
51813W        W52677  21.422  25.827  12.531
51814W        W52678  20.965  28.979  12.677
51815W        W52679  20.308  28.790  13.338
51816W        W52680  19.785  27.786  13.117
51817W        W52681  21.528  28.471  13.349
51818W        W52682  19.089  26.071  11.978
51819W        W52683  19.749  28.334  13.089
51820W        W52684  18.949  26.268  10.954
51821W        W52685  20.053  26.896  13.222
51822W        W52686  20.851  25.784  13.264
51823W        W52687  18.209  27.660  13.112
51824W        W52688  19.864  27.272  11.197
51825W        W52689  19.095  25.786  11.062
51826W        W52690  20.085  26.851  12.063
51827W        W52691  20.828  25.917  13.767
51828W        W52692  19.533  27.782  13.917
51829W        W52693  20.344  27.497  14.114
51830W        W52694  20.853  27.601  14.063
51831W        W52695  20.153  25.866  14.571
51832W        W52696  19.447  26.352  12.727
51833W        W52697  18.764  26.237  12.359
51834W        W52698  18.470  28.734  12.060
51835W        W52699  20.147  28.423  14.134
51836W        W52700  19.297  27.818  11.460
51837W        W52701  20.844  27.397  12.801
51838W        W52702  21.013  26.981  13.143
51839W        W52703  20.251  27.560  13.218
51840W        W52704  20.678  28.091  11.228
51841W        W52705  20.365  25.960  12.516
51842W        W52706  21.980  26.555  11.710
51843W        W52707  18.454  28.865  13.936
51844W        W52708  18.708  28.125  13.548
51845W        W52709  18.118  28.870  11.679
51846W        W52710  20.191  26.395  13.303
51847W        W52711  19.556  28.283  11.479
51848W        W52712  21.365  28.670  11.342
51849W        W52713  20.573  27.328  11.459
51850W        W52714  19.767  26.489  11.875
51851W        W52715  20.003  26.287  10.890
51852W        W52716  20.527  27.992  14.137
51853W        W52717  21.247  26.035  11.674
51854W        W52718  18.295  25.587  11.185
51855W        W52719  19.715  28.110  13.544
51856W        W52720  19.489  28.018  12.757
51857W        W52721  19.309  28.179  11.038
51858W        W52722  18.217  28.370  11.772
51859W        W52723  19.080  27.296  14.172
51860W        W52724  19.658  25.919  14.455
51861W        W52725  20.309  26.002  13.691
51862W        W52726  19.352  25.662  12.106
51863W        W52727  20.830  26.078  11.319
51864W        W52728  18.545  25.925  13.041
51865W        W52729  18.408  26.639  12.377
51866W        W52730  21.458  25.868  13.054
51867W        W52731  18.666  26.212  11.713
51868W        W52732  21.213  26.098  13.443
51869W        W52733  21.525  27.168  11.021
51870W        W52734  18.991  26.129  12.839
51871W        W52735  20.267  26.571  13.780
51872W        W52736  18.140  26.067  11.054
51873W        W52737  19.010  27.681  13.815
51874W        W52738  20.426  27.138  12.944
51875W        W52739  20.306   0.017  11.474
51876W        W52740  18.339  27.668  10.663
51877W        W52741  19.179  27.988  14.236
51878W        W52742  18.570  27.127  13.713
51879W        W52743  19.730  27.284  13.380
51880W        W52744  21.332  25.836  13.866
51881W        W52745  21.856  27.401  14.001
51882W        W52746  21.853  27.481  11.286
51883W        W52747  20.565  27.818  11.658
51884W        W52748  21.165   0.015  10.978
51885W        W52749  20.315  27.153  14.587
51886W        W52750  18.754  28.024  14.549
51887W        W52751  21.880  26.217  14.502
51888W        W52752  21.337  27.159  12.809
51889W        W52753  19.769   0.023  14.590
51890W        W52754  19.429  25.625  11.418
51891W        W52755  21.214  28.178  11.185
51892W        W52756  19.073  26.450  14.084
51893W        W52757  19.636  28.282  14.019
51894W        W52758  21.624  26.333  13.758
51895W        W52759  20.938   0.009  11.441
51896W        W52760  21.182  27.695  13.072
51897W        W52761  19.357  26.074  13.728
51898W        W52762  19.815  27.145  14.481
51899W        W52763  19.147  28.176  11.815
51900W        W52764  21.266  27.763  12.032
51901W        W52765  19.007  26.413  13.562
51902W        W52766  20.126  28.480  12.348
51903W        W52767  21.733  27.175  12.432
51904W        W52768  19.963  25.755  14.066
51905W        W52769  21.048  28.229  13.102
51906W        W52770  21.299  28.670  12.938
51907W        W52771  20.324  28.543  11.152
51908W        W52772  18.333  28.243  14.342
51909W        W52773  19.175  26.579  13.091
51910W        W52774  18.966  25.779  12.447
51911W        W52775  20.874  26.504  13.034
51912W        W52776  19.749  27.859  11.207
51913W        W52777  21.613  27.605  12.765
51914W        W52778  18.842  28.452  14.220
51915W        W52779  21.312  28.989  11.843
51916W        W52780  19.520  26.134  12.269
51917W        W52781  19.123  27.601  12.583
51918W        W52782  19.360   0.047  13.368
51919W        W52783  21.488   0.085  14.212
51920W        W52784  20.707  27.349  13.311
51921W        W52785  18.644  26.702  10.853
51922W        W52786  21.640  28.665  12.067
51923W        W52787  21.592  26.318  11.412
51924W        W52788  19.469  25.569  13.772
51925W        W52789  21.495  28.450  12.499
51926W        W52790  21.282  26.932  12.352
51927W        W52791  19.708  26.638  12.380
51928W        W52792  19.837  26.895  13.730
51929W        W52793  20.843  28.037  13.725
51930W        W52794  19.445  26.578  13.775
51931W        W52795  19.325  28.882  12.469
51932W        W52796  18.809  28.969  14.289
51933W        W52797  19.017  28.569  10.850
51934W        W52798  21.577  28.149  12.076
51935W        W52799  19.034  26.904  13.841
51936W        W52800  21.819  26.756  11.247
51937W        W52801  19.616  27.944  11.842
51938W        W52802  20.657  27.221  13.798
51939W        W52803  20.554  26.833  13.366
51940W        W52804  19.003  27.299  13.476
51941W        W52805  21.246  28.940  13.382
51942W        W52806  20.962  25.930  14.260
51943W        W52807  18.706  26.085  14.059
51944W        W52808  19.038  27.096  12.975
51945W        W52809  19.637  26.641  10.863
51946W        W52810  18.346  28.369  13.837
51947W        W52811  19.937  27.306  12.918
51948W        W52812  19.451  26.164  11.010
51949W        W52813  19.145  27.209  12.253
51950W        W52814  18.388   0.027  13.454
51951W        W52815  21.376  27.362  11.496
51952W        W52816  21.429  26.112  14.285
51953W        W52817  21.023  28.187  12.171
51954W        W52818  18.257  27.247  14.463
51955W        W52819  21.730  25.812  11.504
51956W        W52820  21.053  27.998  11.639
51957W        W52821  20.119  27.191  11.655
51958W        W52822  21.128  26.090  10.909
51959W        W52823  21.154  26.601  13.470
51960W        W52824  18.564  27.096  12.724
51961W        W52825  19.234  28.024  12.314
51962W        W52826  20.924  26.634  12.125
51963W        W52827  19.905  26.544  12.869
51964W        W52828  21.833  28.075  13.498
51965W        W52829  21.834  26.315  13.228
51966W        W52830  18.264  28.796  12.527
51967W        W52831  18.618  28.042  11.903
51968W        W52832  18.777  26.012  14.602
51969W        W52833  19.866  28.503  14.566
51970W        W52834  21.720  27.674  12.257
51971W        W52835  20.937  27.647  11.273
51972W        W52836  20.420   0.301  13.365
51973W        W52837  21.014  27.897  14.439
51974W        W52838  19.767  25.524  11.807
51975W        W52839  20.698  26.368  12.537
51976W        W52840  18.523  28.083  13.088
51977W        W52841  19.591  26.011  11.748
51978W        W52842  19.509  27.542  14.367
51979W        W52843  20.432  26.444  11.988
51980W        W52844  20.697  27.863  13.219
51981W        W52845  18.819  28.595  13.691
51982W        W52846  19.359  28.453  14.438
51983W        W52847  19.150  26.102  11.457
51984W        W52848  20.839  26.534  11.597
51985W        W52849  20.616  28.486  13.893
51986W        W52850  19.605  27.199  12.527
51987W        W52851  18.870  28.951  13.325
51988W        W52852  21.677  28.841  10.978
51989W        W52853  18.609  27.511  14.151
51990W        W52854  20.399  27.751  12.777
51991W        W52855  18.994  27.682  12.024
51992W        W52856  19.446  28.552  13.492
51993W        W52857  19.880  26.075  12.662
51994W        W52858  18.152  27.847  11.712
51995W        W52859  20.070  26.780  11.099
51996W        W52860  18.666  27.438  12.351
51997W        W52861  19.851  26.252  13.757
51998W        W52862  21.646  26.007  11.002
51999W        W52863  21.565  27.641  14.343
52000W        W52864  20.264  28.846  14.443
52001W        W52865  21.823  27.933  14.002
52002W        W52866  21.279  28.626  14.428
52003W        W52867  19.021   0.083  12.859
52004W        W52868  22.036  27.924  11.886
52005W        W52869  20.504  26.835  12.339
52006W        W52870  19.795  25.689  12.340
52007W        W52871  19.400  28.471  12.162
52008W        W52872  19.680  26.545  13.329
52009W        W52873  19.419  25.816  12.720
52010W        W52874  18.374  28.609  11.315
52011W        W52875  20.230  27.790  12.287
52012W        W52876  19.258  28.648  13.954
52013W        W52877  18.485  27.474  11.875
52014W        W52878  18.359  26.231  12.678
52015W        W52879  20.053  28.124  12.721
52016W        W52880  18.202  25.929  11.566
52017W        W52881  21.098  27.082  13.622
52018W        W52882  20.889  26.534  11.063
52019W        W52883  21.560  28.051  13.029
52020W        W52884  20.128  28.627  12.864
52021W        W52885  19.472  28.720  11.731
52022W        W52886  20.782  25.669  10.832
52023W        W52887  18.544  28.838  12.945
52024W        W52888  20.497  26.672  14.418
52025W        W52889  18.673  26.486  14.397
52026W        W52890  18.240  26.988  12.005
52027W        W52891  19.717  26.898  11.530
52028W        W52892  20.739  27.131  14.287
52029W        W52893  19.429  27.443  12.969
52030W        W52894  20.906  25.791  12.425
52031W        W52895  19.742  28.974  12.740
52032W        W52896  21.061  28.472  13.559
52033W        W52897  20.987  28.406  12.633
52034W        W52898  20.774  27.710  12.244
52035W        W52899  19.842  25.901  11.216
52036W        W52900  21.925  25.889  12.283
52037W        W52901  19.452  27.113  10.898
52038W        W52902  21.667  26.647  12.184
52039W        W52903  20.214  27.647  11.304
52040W        W52904  21.283  27.882  13.978
52041W        W52905  20.868  28.586  11.142
52042W        W52906  19.570  26.374  14.234
52043W        W52907  19.344  26.931  13.422
52044W        W52908  21.494  28.344  13.856
52045W        W52909  20.626  26.299  14.038
52046W        W52910  18.174  26.815  13.905
52047W        W52911  20.204  27.223  13.596
52048W        W52912  18.724  27.950  12.409
52049W        W52913  18.551  27.278  13.218
52050W        W52914  21.056  27.592  13.581
52051W        W52915  20.802  28.850  14.266
52052W        W52916  20.766  26.729  13.825
52053W        W52917  21.124  28.717  12.244
52054W        W52918  19.946  28.583  13.673
52055W        W52919  19.358  28.691  12.992
52056W        W52920  21.310  28.023  13.483
52057W        W52921  20.201  28.092  14.538
52058W        W52922  18.974  28.020  12.845
52059W        W52923  21.341  27.970  12.524
52060W        W52924  20.792  28.697  13.077
52061W        W52925  18.886  28.464  13.139
52062W        W52926  19.965  26.689  14.329
52063W        W52927  20.245  28.839  11.974
52064W        W52928  19.678  28.027  14.466
52065W        W52929  19.859  28.424  11.892
52066W        W52930  19.152  26.712  10.707
52067W        W52931  18.357   0.157  18.002
52068W        W52932  18.721  28.021  17.583
52069W        W52933  21.290  27.705  15.302
52070W        W52934  21.659  28.780  17.322
52071W        W52935  19.356  28.812  14.845
52072W        W52936  19.496  27.018  15.650
52073W        W52937  18.985  26.827  16.052
52074W        W52938  20.025  27.634  15.348
52075W        W52939  19.811  28.655  17.619
52076W        W52940  18.565  26.481  17.576
52077W        W52941  18.877  25.794  17.352
52078W        W52942  20.898  26.188  16.390
52079W        W52943  20.497  26.780  14.958
52080W        W52944  21.124  26.364  18.012
52081W        W52945  18.473  26.090  17.229
52082W        W52946  18.520  28.690  18.130
52083W        W52947  19.886  28.149  14.959
52084W        W52948  18.641  26.758  16.525
52085W        W52949  19.446  26.828  17.772
52086W        W52950  21.705  26.644  16.441
52087W        W52951  21.604  27.599  17.244
52088W        W52952  20.058  26.969  16.369
52089W        W52953  20.493  28.310  16.565
52090W        W52954  18.806  27.628  16.779
52091W        W52955  18.181  27.110  16.628
52092W        W52956  19.406  27.205  17.434
52093W        W52957  21.580  27.069  17.946
52094W        W52958  19.097  28.400  16.189
52095W        W52959  20.210  28.129  17.303
52096W        W52960  19.705  26.652  16.578
52097W        W52961  19.689  27.585  16.227
52098W        W52962  20.607  28.321  18.067
52099W        W52963  20.004  27.526  18.121
52100W        W52964  19.875  27.325  17.619
52101W        W52965  18.226  26.723  18.101
52102W        W52966  21.042  28.267  17.780
52103W        W52967  18.706  25.839  15.729
52104W        W52968  19.258  28.154  16.803
52105W        W52969  21.846  27.961  16.281
52106W        W52970  21.313  26.384  16.659
52107W        W52971  21.421  26.411  14.697
52108W        W52972  21.877  27.141  17.183
52109W        W52973  19.723  28.845  16.747
52110W        W52974  21.421  28.204  15.167
52111W        W52975  18.675   0.075  15.308
52112W        W52976  19.063  28.944  15.669
52113W        W52977  19.202  25.931  16.965
52114W        W52978  21.499  26.818  17.415
52115W        W52979  20.917  27.285  15.931
52116W        W52980  20.789  27.160  14.795
52117W        W52981  20.123  28.041  16.808
52118W        W52982  19.955  26.452  16.162
52119W        W52983  20.485  28.507  17.066
52120W        W52984  21.381  27.440  15.753
52121W        W52985  20.464  26.065  15.535
52122W        W52986  19.001  28.650  15.247
52123W        W52987  18.375  26.201  15.849
52124W        W52988  20.879  26.915  16.324
52125W        W52989  18.574  28.351  16.213
52126W        W52990  19.847  28.695  15.041
52127W        W52991  21.217  26.896  14.626
52128W        W52992  18.424  28.497  16.940
52129W        W52993  19.197  28.123  17.345
52130W        W52994  19.356  27.577  15.716
52131W        W52995  19.726  26.026  17.079
52132W        W52996  21.788  25.823  16.571
52133W        W52997  19.046  27.585  14.597
52134W        W52998  18.709  26.408  14.931
52135W        W52999  18.813  28.424  15.747
52136W        W53000  19.649  28.005  15.851
52137W        W53001  21.217  28.710  17.577
52138W        W53002  20.175  26.541  15.278
52139W        W53003  21.486  28.991  16.206
52140W        W53004  21.142  26.835  17.771
52141W        W53005  21.928  28.241  15.855
52142W        W53006  20.449  27.668  17.371
52143W        W53007  18.036  27.345  15.493
52144W        W53008  19.269  27.716  17.027
52145W        W53009  20.499  26.911  15.480
52146W        W53010  20.339  27.357  15.662
52147W        W53011  18.969  26.750  16.934
52148W        W53012  18.626  26.938  17.850
52149W        W53013  18.709  25.735  16.253
52150W        W53014  20.445  26.122  16.591
52151W        W53015  20.236  26.128  17.921
52152W        W53016  20.540  26.259  15.022
52153W        W53017  21.691  28.594  17.838
52154W        W53018  20.575  25.696  17.865
52155W        W53019  21.496  28.105  17.981
52156W        W53020  21.174  26.377  17.502
52157W        W53021  20.782  26.310  15.902
52158W        W53022  21.133  27.311  18.155
52159W        W53023  18.825  28.819  16.101
52160W        W53024  19.750  26.568  15.567
52161W        W53025  19.177  25.926  17.915
52162W        W53026  21.246  26.429  15.673
52163W        W53027  21.359  26.936  15.575
52164W        W53028  19.487  28.917  17.950
52165W        W53029  19.291  25.660  15.254
52166W        W53030  21.617  26.189  16.255
52167W        W53031  21.718  28.401  14.775
52168W        W53032  18.465  27.612  16.337
52169W        W53033  20.581  26.170  14.527
52170W        W53034  21.787  28.413  16.531
52171W        W53035  21.758  25.824  17.093
52172W        W53036  20.229  26.910  17.733
52173W        W53037  20.214  28.129  15.362
52174W        W53038  20.614  27.493  18.230
52175W        W53039  20.327  25.698  16.344
52176W        W53040  19.193  26.657  16.482
52177W        W53041  18.506  27.653  17.287
52178W        W53042  20.645  28.635  15.762
52179W        W53043  21.642  26.726  16.942
52180W        W53044  20.265  28.838  17.430
52181W        W53045  21.388  27.792  14.805
52182W        W53046  19.831  27.400  15.762
52183W        W53047  21.890  25.819  17.595
52184W        W53048  19.994  27.676  17.152
52185W        W53049  20.212  26.575  16.680
52186W        W53050  20.953  26.910  15.239
52187W        W53051  21.429  26.773  15.082
52188W        W53052  21.086  28.567  15.418
52189W        W53053  20.920  27.983  16.285
52190W        W53054  20.895  27.370  15.424
52191W        W53055  20.179  27.430  16.156
52192W        W53056  21.160  27.411  16.361
52193W        W53057  18.635  26.364  16.833
52194W        W53058  21.334  27.296  17.564
52195W        W53059  21.694  28.840  16.797
52196W        W53060  19.656  28.427  16.161
52197W        W53061  20.773  28.859  17.352
52198W        W53062  20.725  26.330  17.213
52199W        W53063  19.898   0.113  17.145
52200W        W53064  21.642  26.086  15.756
52201W        W53065  21.368  27.162  17.060
52202W        W53066  18.491  26.739  17.149
52203W        W53067  21.219  26.542  16.174
52204W        W53068  21.596  26.555  17.840
52205W        W53069  20.520  28.175  16.038
52206W        W53070  19.799  28.753  15.785
52207W        W53071  18.839  25.941  15.144
52208W        W53072  20.106  25.735  16.828
52209W        W53073  18.853  28.986  14.819
52210W        W53074  19.580  27.372  15.282
52211W        W53075  20.026  27.800  17.674
52212W        W53076  19.982  26.116  15.695
52213W        W53077  21.190  26.013  16.009
52214W        W53078  20.973  28.998  16.320
52215W        W53079  20.215  28.731  16.678
52216W        W53080  19.677  27.802  16.713
52217W        W53081  21.482  28.407  16.964
52218W        W53082  19.156  26.027  15.595
52219W        W53083  19.736  28.334  16.664
52220W        W53084  19.163  26.363  14.599
52221W        W53085  19.968  26.986  16.888
52222W        W53086  20.857  25.949  16.878
52223W        W53087  18.292  27.577  16.831
52224W        W53088  19.966  27.331  14.937
52225W        W53089  19.244  25.888  14.779
52226W        W53090  19.980  26.917  15.869
52227W        W53091  20.901  25.878  17.400
52228W        W53092  19.547  27.706  17.461
52229W        W53093  20.364  27.388  17.784
52230W        W53094  20.869  27.484  17.700
52231W        W53095  20.217  25.774  18.288
52232W        W53096  19.485  26.226  16.391
52233W        W53097  18.891  26.298  15.996
52234W        W53098  18.420  28.730  15.584
52235W        W53099  20.140  28.275  17.775
52236W        W53100  19.171  27.662  15.119
52237W        W53101  20.649  27.367  16.389
52238W        W53102  20.922  27.194  16.809
52239W        W53103  20.038  27.442  16.651
52240W        W53104  20.662  28.092  14.800
52241W        W53105  20.329  26.118  16.074
52242W        W53106  21.699  26.516  15.449
52243W        W53107  18.541  28.833  17.627
52244W        W53108  18.754  28.064  17.056
52245W        W53109  18.064  28.892  15.249
52246W        W53110  20.247  26.191  17.050
52247W        W53111  19.428  28.372  15.076
52248W        W53112  21.330  28.698  14.988
52249W        W53113  20.439  27.306  15.142
52250W        W53114  19.215  26.562  15.638
52251W        W53115  20.141  26.372  14.708
52252W        W53116  20.536  27.873  17.844
52253W        W53117  20.988  26.004  15.519
52254W        W53118  18.370  25.767  14.871
52255W        W53119  19.684  28.099  17.132
52256W        W53120  19.417  28.019  16.327
52257W        W53121  19.242  28.037  14.751
52258W        W53122  18.092  28.379  15.315
52259W        W53123  19.055  27.220  17.800
52260W        W53124  19.686  25.877  18.082
52261W        W53125  20.367  25.938  17.468
52262W        W53126  19.580  25.745  15.779
52263W        W53127  20.709  25.792  15.121
52264W        W53128  18.708  25.861  16.812
52265W        W53129  18.495  26.649  16.045
52266W        W53130  21.280  25.878  16.546
52267W        W53131  18.745  26.336  15.486
52268W        W53132  21.311  26.095  17.087
52269W        W53133  21.666  27.339  14.762
52270W        W53134  18.997  26.170  16.518
52271W        W53135  20.199  26.443  17.510
52272W        W53136  18.303  26.221  14.647
52273W        W53137  19.012  27.597  17.447
52274W        W53138  20.457  27.014  16.695
52275W        W53139  20.252   0.006  15.001
52276W        W53140  18.269  27.768  14.514
52277W        W53141  19.211  27.914  17.826
52278W        W53142  18.664  27.183  17.399
52279W        W53143  19.634  27.362  17.008
52280W        W53144  21.378  25.701  17.458
52281W        W53145  21.866  27.386  17.630
52282W        W53146  21.635  27.314  15.303
52283W        W53147  20.553  27.752  15.415
52284W        W53148  21.158   0.055  14.637
52285W        W53149  20.293  27.072  18.240
52286W        W53150  18.787  27.985  18.117
52287W        W53151  21.941  26.156  18.037
52288W        W53152  21.299  26.912  16.602
52289W        W53153  19.920  28.911  18.223
52290W        W53154  19.713  25.755  14.943
52291W        W53155  21.149  28.261  14.755
52292W        W53156  19.046  26.398  17.739
52293W        W53157  19.629  28.187  17.637
52294W        W53158  21.700  26.313  17.371
52295W        W53159  20.958   0.035  15.118
52296W        W53160  20.927  27.718  16.715
52297W        W53161  19.342  26.016  17.445
52298W        W53162  19.814  27.048  18.050
52299W        W53163  19.095  28.140  15.390
52300W        W53164  21.002  27.784  15.713
52301W        W53165  18.958  26.318  17.235
52302W        W53166  20.077  28.339  15.861
52303W        W53167  21.936  27.053  16.245
52304W        W53168  20.064  25.652  17.819
52305W        W53169  20.976  28.270  16.737
52306W        W53170  21.289  28.632  16.536
52307W        W53171  20.306  28.490  14.871
52308W        W53172  18.382  28.232  17.946
52309W        W53173  19.374  26.388  16.879
52310W        W53174  19.192  25.902  16.110
52311W        W53175  20.747  26.563  16.731
52312W        W53176  19.631  27.704  14.863
52313W        W53177  21.416  27.578  16.763
52314W        W53178  18.865  28.438  17.845
52315W        W53179  21.342   0.020  15.492
52316W        W53180  19.528  26.240  15.891
52317W        W53181  18.926  27.531  16.083
52318W        W53182  19.334   0.074  16.959
52319W        W53183  21.452   0.056  17.857
52320W        W53184  20.491  27.495  16.891
52321W        W53185  18.621  26.909  14.702
52322W        W53186  21.577  28.593  15.663
52323W        W53187  21.307  26.265  15.181
52324W        W53188  19.583  25.607  17.626
52325W        W53189  21.467  28.361  16.118
52326W        W53190  21.387  27.035  16.096
52327W        W53191  19.521  26.726  16.082
52328W        W53192  19.829  26.869  17.405
52329W        W53193  20.836  27.966  17.434
52330W        W53194  19.446  26.505  17.377
52331W        W53195  19.370  28.843  16.118
52332W        W53196  18.971  28.959  17.904
52333W        W53197  18.940  28.480  14.750
52334W        W53198  21.483  28.065  15.646
52335W        W53199  19.023  26.821  17.446
52336W        W53200  21.927  26.918  15.154
52337W        W53201  19.573  27.904  15.342
52338W        W53202  20.393  26.738  17.137
52339W        W53203  19.094  27.243  17.031
52340W        W53204  21.196  28.828  17.041
52341W        W53205  21.060  25.832  17.939
52342W        W53206  18.673  26.012  17.760
52343W        W53207  18.999  27.136  16.510
52344W        W53208  19.535  26.730  14.632
52345W        W53209  18.352  28.379  17.449
52346W        W53210  19.577  27.150  16.546
52347W        W53211  19.644  26.268  14.851
52348W        W53212  18.987  27.199  15.691
52349W        W53213  18.480  28.977  17.132
52350W        W53214  21.229  27.275  15.008
52351W        W53215  21.491  26.065  17.806
52352W        W53216  21.032  28.267  15.840
52353W        W53217  18.306  27.254  18.137
52354W        W53218  21.710  25.951  15.269
52355W        W53219  20.928  28.087  15.269
52356W        W53220  19.999  27.051  15.371
52357W        W53221  21.034  26.054  14.763
52358W        W53222  21.138  26.659  17.061
52359W        W53223  18.575  27.138  16.190
52360W        W53224  19.120  27.997  15.894
52361W        W53225  20.903  26.797  15.803
52362W        W53226  19.928  26.170  16.622
52363W        W53227  21.825  28.053  17.118
52364W        W53228  21.820  26.267  16.833
52365W        W53229  18.311  28.773  16.082
52366W        W53230  18.555  28.117  15.413
52367W        W53231  18.756  25.973  18.278
52368W        W53232  19.843  28.421  18.158
52369W        W53233  21.672  27.476  16.266
52370W        W53234  20.875  27.652  14.974
52371W        W53235  20.403   0.089  16.990
52372W        W53236  21.032  27.820  18.062
52373W        W53237  19.910  25.659  15.405
52374W        W53238  20.505  26.560  16.266
52375W        W53239  18.438  28.043  16.629
52376W        W53240  19.605  26.087  15.352
52377W        W53241  19.500  27.471  17.936
52378W        W53242  20.322  26.532  15.773
52379W        W53243  20.604  28.003  16.983
52380W        W53244  18.831  28.494  17.334
52381W        W53245  19.350  28.398  18.044
52382W        W53246  19.195  26.319  15.138
52383W        W53247  20.775  26.470  15.414
52384W        W53248  20.585  28.417  17.563
52385W        W53249  19.336  27.219  16.101
52386W        W53250  18.923  28.771  16.927
52387W        W53251  21.657  28.904  14.662
52388W        W53252  18.646  27.560  17.826
52389W        W53253  20.431  27.813  16.465
52390W        W53254  18.877  27.699  15.556
52391W        W53255  19.422  28.567  17.094
52392W        W53256  19.853  25.891  16.188
52393W        W53257  18.188  27.951  15.046
52394W        W53258  19.991  26.829  14.866
52395W        W53259  18.496  27.433  15.780
52396W        W53260  19.854  26.058  17.573
52397W        W53261  21.570  25.891  14.751
52398W        W53262  21.529  27.581  17.959
52399W        W53263  20.289  28.722  17.934
52400W        W53264  21.829  27.897  17.629
52401W        W53265  21.262  28.592  18.102
52402W        W53266  19.062   0.030  16.512
52403W        W53267  21.834  27.706  15.809
52404W        W53268  20.470  27.012  16.020
52405W        W53269  20.190  25.658  15.844
52406W        W53270  19.338  28.466  15.734
52407W        W53271  19.858  26.512  17.053
52408W        W53272  19.598  25.773  16.641
52409W        W53273  18.498  28.639  15.070
52410W        W53274  20.140  27.830  15.813
52411W        W53275  19.278  28.605  17.582
52412W        W53276  18.461  27.578  15.275
52413W        W53277  18.501  26.208  16.357
52414W        W53278  19.978  28.022  16.291
52415W        W53279  18.359  26.015  15.346
52416W        W53280  20.943  27.043  17.339
52417W        W53281  20.955  26.541  14.898
52418W        W53282  21.404  28.058  16.561
52419W        W53283  20.360  28.642  16.192
52420W        W53284  19.488  28.812  15.378
52421W        W53285  20.635  25.666  14.619
52422W        W53286  18.556  28.819  16.548
52423W        W53287  20.483  26.577  18.075
52424W        W53288  18.659  26.443  18.086
52425W        W53289  18.284  26.953  15.690
52426W        W53290  19.559  26.836  15.154
52427W        W53291  20.718  27.046  17.956
52428W        W53292  19.254  27.573  16.520
52429W        W53293  20.712  25.797  15.970
52430W        W53294  19.899  28.868  16.273
52431W        W53295  20.997  28.398  17.232
52432W        W53296  20.865  28.503  16.263
52433W        W53297  20.595  27.676  15.984
52434W        W53298  20.082  26.059  15.130
52435W        W53299  22.025  25.869  16.113
52436W        W53300  19.416  27.231  14.796
52437W        W53301  21.686  26.646  15.935
52438W        W53302  20.286  27.768  14.938
52439W        W53303  21.287  27.816  17.587
52440W        W53304  20.829  28.658  14.787
52441W        W53305  19.522  26.315  17.876
52442W        W53306  19.468  26.876  17.005
52443W        W53307  21.483  28.277  17.467
52444W        W53308  20.715  26.206  17.743
52445W        W53309  18.208  26.855  17.580
52446W        W53310  20.226  27.213  17.267
52447W        W53311  18.596  27.926  15.928
52448W        W53312  18.620  27.157  16.873
52449W        W53313  21.008  27.534  17.198
52450W        W53314  20.808  28.775  17.889
52451W        W53315  20.673  26.684  17.585
52452W        W53316  21.139  28.771  15.897
52453W        W53317  19.957  28.552  17.111
52454W        W53318  19.312  28.608  16.588
52455W        W53319  21.254  27.966  17.079
52456W        W53320  20.201  28.020  18.210
52457W        W53321  18.895  27.949  16.376
52458W        W53322  21.366  27.841  16.087
52459W        W53323  20.766  28.756  16.722
52460W        W53324  18.834  28.379  16.641
52461W        W53325  19.958  26.554  17.988
52462W        W53326  20.205  28.647  15.439
52463W        W53327  19.692  27.938  18.073
52464W        W53328  19.765  28.364  15.453
52465W        W53329  19.068  26.844  14.422
52466W        W53330  18.255   0.173  21.638
52467W        W53331  18.701  28.118  21.213
52468W        W53332  21.435  27.585  18.917
52469W        W53333  21.617  28.791  20.928
52470W        W53334  19.360  28.770  18.432
52471W        W53335  19.532  27.022  19.365
52472W        W53336  19.243  26.908  19.888
52473W        W53337  19.934  27.478  18.986
52474W        W53338  19.777  28.743  21.327
52475W        W53339  18.436  26.402  21.231
52476W        W53340  18.940  25.689  21.103
52477W        W53341  20.896  25.975  19.953
52478W        W53342  20.434  26.707  18.602
52479W        W53343  21.006  26.395  21.618
52480W        W53344  18.531  25.988  20.921
52481W        W53345  18.433  28.704  21.782
52482W        W53346  19.836  28.086  18.575
52483W        W53347  18.374  26.726  20.300
52484W        W53348  19.213  26.898  21.664
52485W        W53349  21.743  26.539  20.074
52486W        W53350  21.454  27.586  20.774
52487W        W53351  19.904  27.095  19.936
52488W        W53352  20.443  28.276  20.195
52489W        W53353  18.740  27.668  20.452
52490W        W53354  18.179  27.158  20.073
52491W        W53355  19.242  27.210  21.244
52492W        W53356  21.510  27.059  21.509
52493W        W53357  19.096  28.398  19.841
52494W        W53358  20.168  28.139  20.952
52495W        W53359  19.533  26.682  20.275
52496W        W53360  19.879  27.627  19.950
52497W        W53361  20.568  28.362  21.678
52498W        W53362  19.888  27.573  21.759
52499W        W53363  19.789  27.383  21.256
52500W        W53364  18.232  26.787  21.783
52501W        W53365  21.012  28.294  21.368
52502W        W53366  18.781  25.896  19.335
52503W        W53367  19.293  28.155  20.367
52504W        W53368  21.603  27.946  19.796
52505W        W53369  21.328  26.252  20.263
52506W        W53370  21.545  26.386  18.324
52507W        W53371  21.890  27.053  20.733
52508W        W53372  19.697  28.902  20.468
52509W        W53373  21.547  28.101  18.793
52510W        W53374  18.690   0.068  18.883
52511W        W53375  19.036  28.918  19.258
52512W        W53376  19.008  25.975  20.664
52513W        W53377  21.435  26.875  20.986
52514W        W53378  20.919  27.211  19.516
52515W        W53379  20.811  27.043  18.486
52516W        W53380  20.104  27.971  20.454
52517W        W53381  20.147  26.402  19.571
52518W        W53382  20.494  28.428  20.676
52519W        W53383  21.454  27.333  19.384
52520W        W53384  20.077  25.999  19.273
52521W        W53385  18.998  28.628  18.846
52522W        W53386  18.374  26.186  19.503
52523W        W53387  20.890  26.876  19.905
52524W        W53388  18.578  28.358  19.874
52525W        W53389  19.827  28.619  18.644
52526W        W53390  21.268  26.814  18.262
52527W        W53391  18.425  28.514  20.554
52528W        W53392  19.175  28.174  20.958
52529W        W53393  19.377  27.540  19.326
52530W        W53394  19.431  26.140  20.370
52531W        W53395  21.843  25.678  20.092
52532W        W53396  19.058  27.546  18.203
52533W        W53397  18.729  26.405  18.603
52534W        W53398  18.812  28.381  19.404
52535W        W53399  19.675  27.949  19.472
52536W        W53400  21.163  28.780  21.186
52537W        W53401  20.097  26.431  18.912
52538W        W53402  21.452   0.006  19.804
52539W        W53403  21.063  26.859  21.360
52540W        W53404  21.896  28.326  19.609
52541W        W53405  20.410  27.689  20.926
52542W        W53406  18.094  27.326  19.132
52543W        W53407  19.189  27.748  20.678
52544W        W53408  20.397  26.823  19.122
52545W        W53409  20.341  27.315  19.276
52546W        W53410  18.746  26.812  20.715
52547W        W53411  18.703  26.966  21.690
52548W        W53412  18.652  25.856  19.844
52549W        W53413  20.372  26.148  20.086
52550W        W53414  20.167  26.172  21.508
52551W        W53415  20.571  26.219  18.726
52552W        W53416  21.702  28.575  21.425
52553W        W53417  20.459  25.738  21.428
52554W        W53418  21.477  28.104  21.552
52555W        W53419  21.089  26.407  21.092
52556W        W53420  20.990  26.070  19.433
52557W        W53421  21.109  27.358  21.716
52558W        W53422  18.795  28.806  19.700
52559W        W53423  19.576  26.608  18.793
52560W        W53424  19.194  26.071  21.375
52561W        W53425  21.310  26.487  19.232
52562W        W53426  21.691  26.860  19.248
52563W        W53427  19.289  28.960  21.590
52564W        W53428  19.254  25.744  18.939
52565W        W53429  21.617  26.072  19.869
52566W        W53430  21.697  28.392  18.363
52567W        W53431  18.490  27.589  19.990
52568W        W53432  20.657  26.073  18.234
52569W        W53433  21.678  28.424  20.071
52570W        W53434  21.642  25.780  20.704
52571W        W53435  20.169  26.979  21.359
52572W        W53436  20.085  27.967  19.042
52573W        W53437  20.566  27.613  21.810
52574W        W53438  20.477  25.644  19.951
52575W        W53439  18.842  26.640  20.102
52576W        W53440  18.531  27.663  20.938
52577W        W53441  20.549  28.625  19.436
52578W        W53442  21.593  26.645  20.555
52579W        W53443  20.253  28.844  21.131
52580W        W53444  21.414  27.722  18.429
52581W        W53445  19.857  27.402  19.486
52582W        W53446  21.817  25.818  21.213
52583W        W53447  19.917  27.661  20.830
52584W        W53448  20.194  26.646  20.004
52585W        W53449  21.215  26.976  19.108
52586W        W53450  21.297  26.601  18.728
52587W        W53451  21.248  28.406  19.152
52588W        W53452  20.869  27.961  19.992
52589W        W53453  20.772  27.185  19.005
52590W        W53454  20.297  27.366  19.779
52591W        W53455  21.303  27.249  19.986
52592W        W53456  18.611  26.335  20.551
52593W        W53457  21.237  27.327  21.182
52594W        W53458  21.667  28.863  20.341
52595W        W53459  19.604  28.377  19.787
52596W        W53460  20.712  28.875  20.894
52597W        W53461  20.642  26.357  20.783
52598W        W53462  19.929   0.124  20.859
52599W        W53463  21.522  26.037  19.342
52600W        W53464  21.392  27.141  20.530
52601W        W53465  18.265  26.641  20.808
52602W        W53466  21.191  26.404  19.774
52603W        W53467  21.496  26.557  21.395
52604W        W53468  20.494  28.158  19.695
52605W        W53469  19.751  28.757  19.449
52606W        W53470  18.799  25.938  18.804
52607W        W53471  20.100  25.743  20.307
52608W        W53472  18.853  28.962  18.414
52609W        W53473  19.476  27.267  18.870
52610W        W53474  19.949  27.868  21.336
52611W        W53475  19.729  26.523  19.270
52612W        W53476  21.289  25.703  19.730
52613W        W53477  20.944   0.043  19.949
52614W        W53478  20.182  28.728  20.358
52615W        W53479  19.627  27.725  20.399
52616W        W53480  21.427  28.460  20.559
52617W        W53481  19.250  26.125  19.291
52618W        W53482  19.767  28.401  20.309
52619W        W53483  19.141  26.322  18.259
52620W        W53484  19.996  26.902  20.410
52621W        W53485  20.881  25.638  20.511
52622W        W53486  18.250  27.543  20.469
52623W        W53487  19.878  27.232  18.529
52624W        W53488  19.239  25.850  18.423
52625W        W53489  20.017  26.911  19.465
52626W        W53490  20.770  25.838  20.999
52627W        W53491  19.495  27.784  21.086
52628W        W53492  20.276  27.481  21.400
52629W        W53493  20.790  27.568  21.326
52630W        W53494  20.191  25.803  21.881
52631W        W53495  19.298  26.377  19.930
52632W        W53496  18.851  26.309  19.672
52633W        W53497  18.493  28.738  19.229
52634W        W53498  20.117  28.364  21.411
52635W        W53499  19.126  27.661  18.743
52636W        W53500  20.782  27.400  19.987
52637W        W53501  20.915  27.062  20.370
52638W        W53502  20.068  27.419  20.377
52639W        W53503  20.690  27.961  18.450
52640W        W53504  20.499  25.994  19.586
52641W        W53505  21.870  26.399  19.087
52642W        W53506  18.493  28.854  21.264
52643W        W53507  18.735  28.111  20.698
52644W        W53508  18.161  28.932  18.887
52645W        W53509  20.191  26.431  20.505
52646W        W53510  19.397  28.338  18.691
52647W        W53511  21.339  28.636  18.679
52648W        W53512  20.339  27.202  18.747
52649W        W53513  19.238  26.606  19.463
52650W        W53514  20.176  26.286  18.401
52651W        W53515  20.464  27.962  21.383
52652W        W53516  21.033  26.181  18.932
52653W        W53517  18.345  25.730  18.658
52654W        W53518  19.673  28.118  20.740
52655W        W53519  19.427  27.888  19.942
52656W        W53520  19.251  27.999  18.350
52657W        W53521  18.156  28.420  18.942
52658W        W53522  18.956  27.416  21.661
52659W        W53523  19.736  26.006  21.813
52660W        W53524  20.236  25.973  21.018
52661W        W53525  19.563  25.720  19.377
52662W        W53526  20.586  25.838  19.102
52663W        W53527  18.593  25.828  20.405
52664W        W53528  18.438  26.652  19.759
52665W        W53529  21.354  25.683  20.267
52666W        W53530  18.828  26.374  19.131
52667W        W53531  21.169  26.044  20.710
52668W        W53532  21.730  27.298  18.385
52669W        W53533  18.930  26.139  20.175
52670W        W53534  20.131  26.509  21.102
52671W        W53535  18.302  26.191  18.408
52672W        W53536  19.001  27.681  21.172
52673W        W53537  20.435  27.056  20.161
52674W        W53538  20.182  28.997  18.674
52675W        W53539  18.276  27.787  18.183
52676W        W53540  19.180  28.073  21.458
52677W        W53541  18.694  27.275  21.241
52678W        W53542  19.505  27.334  20.805
52679W        W53543  21.283  25.707  21.096
52680W        W53544  21.774  27.357  21.118
52681W        W53545  21.796  27.221  18.911
52682W        W53546  20.558  27.673  18.958
52683W        W53547  21.083   0.049  18.244
52684W        W53548  20.242  27.205  21.841
52685W        W53549  18.744  28.105  21.756
52686W        W53550  21.870  26.046  21.695
52687W        W53551  21.307  26.770  20.153
52688W        W53552  19.769  28.972  21.782
52689W        W53553  19.704  25.721  18.609
52690W        W53554  21.188  28.184  18.407
52691W        W53555  18.893  26.453  21.593
52692W        W53556  19.633  28.255  21.247
52693W        W53557  21.592  26.242  20.967
52694W        W53558  20.936  28.978  18.742
52695W        W53559  21.077  27.602  20.349
52696W        W53560  19.397  26.228  20.884
52697W        W53561  19.726  27.084  21.675
52698W        W53562  19.090  28.118  19.032
52699W        W53563  21.021  27.597  19.203
52700W        W53564  18.904  26.343  21.013
52701W        W53565  20.053  28.320  19.469
52702W        W53566  21.771  26.948  19.777
52703W        W53567  19.935  25.723  21.414
52704W        W53568  20.924  28.326  20.361
52705W        W53569  21.227  28.679  20.144
52706W        W53570  20.291  28.538  18.419
52707W        W53571  18.321  28.284  21.530
52708W        W53572  19.106  26.492  20.529
52709W        W53573  19.176  25.884  19.747
52710W        W53574  20.658  26.578  20.272
52711W        W53575  19.582  27.630  18.471
52712W        W53576  21.573  27.629  20.229
52713W        W53577  18.871  28.548  21.489
52714W        W53578  21.312   0.011  19.131
52715W        W53579  19.650  26.158  19.623
52716W        W53580  18.965  27.557  19.739
52717W        W53581  19.279   0.062  20.729
52718W        W53582  21.485   0.041  21.470
52719W        W53583  20.559  27.400  20.517
52720W        W53584  18.625  26.877  18.387
52721W        W53585  21.583  28.679  19.429
52722W        W53586  21.538  26.143  18.793
52723W        W53587  19.496  25.753  21.069
52724W        W53588  21.282  28.352  19.734
52725W        W53589  21.310  26.875  19.609
52726W        W53590  19.696  26.658  19.771
52727W        W53591  19.690  26.892  21.177
52728W        W53592  20.775  28.027  20.994
52729W        W53593  19.316  26.562  21.269
52730W        W53594  19.327  28.862  19.721
52731W        W53595  18.975   0.009  21.170
52732W        W53596  18.939  28.441  18.365
52733W        W53597  21.440  27.932  19.302
52734W        W53598  18.874  26.811  21.218
52735W        W53599  21.780  26.744  18.705
52736W        W53600  19.560  27.855  18.953
52737W        W53601  20.528  27.218  21.038
52738W        W53602  20.474  26.871  20.659
52739W        W53603  18.943  27.299  20.787
52740W        W53604  21.180  28.925  20.623
52741W        W53605  20.961  25.836  21.524
52742W        W53606  18.685  25.994  21.432
52743W        W53607  19.108  27.004  20.378
52744W        W53608  19.514  26.667  18.258
52745W        W53609  18.296  28.423  21.035
52746W        W53610  19.579  27.211  20.307
52747W        W53611  19.654  26.219  18.461
52748W        W53612  19.036  27.142  19.454
52749W        W53613  18.390   0.001  20.764
52750W        W53614  21.315  27.152  18.644
52751W        W53615  21.413  26.062  21.454
52752W        W53616  20.953  28.074  19.445
52753W        W53617  18.319  27.327  21.749
52754W        W53618  21.509  25.637  18.758
52755W        W53619  21.049  27.988  18.877
52756W        W53620  19.917  26.953  18.966
52757W        W53621  21.142  26.056  18.434
52758W        W53622  21.080  26.595  20.597
52759W        W53623  18.701  27.102  19.863
52760W        W53624  19.152  27.996  19.529
52761W        W53625  20.878  26.702  19.404
52762W        W53626  19.853  26.271  20.095
52763W        W53627  21.693  28.037  20.637
52764W        W53628  21.825  26.190  20.439
52765W        W53629  18.287  28.761  19.708
52766W        W53630  18.557  28.089  19.072
52767W        W53631  18.748  26.074  21.964
52768W        W53632  19.876  28.476  21.856
52769W        W53633  21.764  27.459  19.770
52770W        W53634  20.960  27.532  18.634
52771W        W53635  20.385   0.150  20.594
52772W        W53636  21.002  27.877  21.681
52773W        W53637  19.915  25.553  19.041
52774W        W53638  20.652  26.437  19.768
52775W        W53639  18.433  28.052  20.271
52776W        W53640  19.670  26.087  18.976
52777W        W53641  19.421  27.601  21.543
52778W        W53642  20.549  26.345  19.224
52779W        W53643  20.659  27.908  20.504
52780W        W53644  18.808  28.559  20.957
52781W        W53645  19.389  28.477  21.690
52782W        W53646  19.211  26.245  18.772
52783W        W53647  20.835  26.669  18.907
52784W        W53648  20.572  28.459  21.180
52785W        W53649  19.453  27.365  19.807
52786W        W53650  18.842  28.875  20.558
52787W        W53651  21.607  28.898  18.324
52788W        W53652  18.560  27.704  21.478
52789W        W53653  20.393  27.764  20.071
52790W        W53654  18.890  27.670  19.226
52791W        W53655  19.390  28.554  20.693
52792W        W53656  20.047  25.878  19.777
52793W        W53657  18.199  27.963  18.700
52794W        W53658  19.956  26.738  18.478
52795W        W53659  18.502  27.422  19.481
52796W        W53660  19.699  26.192  21.307
52797W        W53661  21.610  25.881  18.304
52798W        W53662  21.571  27.582  21.529
52799W        W53663  20.252  28.803  21.660
52800W        W53664  21.746  27.882  21.128
52801W        W53665  21.267  28.574  21.706
52802W        W53666  18.980   0.068  20.106
52803W        W53667  21.868  27.622  19.243
52804W        W53668  20.478  26.915  19.635
52805W        W53669  20.268  25.535  19.451
52806W        W53670  19.311  28.476  19.361
52807W        W53671  19.733  26.602  20.751
52808W        W53672  19.632  25.797  20.041
52809W        W53673  18.509  28.637  18.640
52810W        W53674  20.165  27.803  19.535
52811W        W53675  19.292  28.624  21.191
52812W        W53676  18.476  27.594  18.934
52813W        W53677  18.431  26.254  20.073
52814W        W53678  20.019  28.117  19.945
52815W        W53679  18.290  25.757  19.199
52816W        W53680  20.957  27.014  20.872
52817W        W53681  20.876  26.513  18.424
52818W        W53682  21.334  28.076  20.206
52819W        W53683  20.242  28.601  19.854
52820W        W53684  19.504  28.796  18.996
52821W        W53685  20.703  25.554  18.344
52822W        W53686  18.509  28.835  20.160
52823W        W53687  20.425  26.621  21.671
52824W        W53688  18.607  26.572  22.020
52825W        W53689  18.386  26.648  19.213
52826W        W53690  19.119  26.746  18.594
52827W        W53691  20.651  27.114  21.537
52828W        W53692  19.164  27.508  20.217
52829W        W53693  20.806  25.581  19.551
52830W        W53694  19.795  28.824  19.969
52831W        W53695  20.992  28.459  20.841
52832W        W53696  20.788  28.536  19.898
52833W        W53697  20.658  27.667  19.565
52834W        W53698  20.153  25.923  18.774
52835W        W53699  21.810  25.671  19.574
52836W        W53700  19.380  27.155  18.340
52837W        W53701  21.681  26.480  19.577
52838W        W53702  20.191  27.671  18.581
52839W        W53703  21.222  27.839  21.186
52840W        W53704  20.857  28.582  18.424
52841W        W53705  19.439  26.408  21.736
52842W        W53706  19.267  26.862  20.851
52843W        W53707  21.435  28.302  21.057
52844W        W53708  20.627  26.233  21.290
52845W        W53709  18.351  26.903  21.285
52846W        W53710  20.043  27.151  20.861
52847W        W53711  18.619  27.927  19.591
52848W        W53712  18.621  27.181  20.363
52849W        W53713  20.927  27.551  20.834
52850W        W53714  20.805  28.795  21.552
52851W        W53715  20.606  26.727  21.163
52852W        W53716  21.059  28.780  19.517
52853W        W53717  19.915  28.580  20.825
52854W        W53718  19.321  28.683  20.202
52855W        W53719  21.175  28.002  20.685
52856W        W53720  20.178  28.020  21.806
52857W        W53721  18.903  27.963  20.050
52858W        W53722  21.178  27.659  19.702
52859W        W53723  20.715  28.791  20.361
52860W        W53724  18.861  28.432  20.300
52861W        W53725  19.891  26.598  21.584
52862W        W53726  20.117  28.669  19.086
52863W        W53727  19.645  28.026  21.743
52864W        W53728  19.718  28.331  19.086
52865W        W53729  19.048  26.796  18.087
52866W        W53730  18.482  28.925  25.362
52867W        W53731  18.693  28.040  24.929
52868W        W53732  21.369  27.760  22.515
52869W        W53733  21.667  28.851  24.665
52870W        W53734  19.379  28.825  22.095
52871W        W53735  19.493  27.025  22.962
52872W        W53736  19.086  26.882  23.365
52873W        W53737  19.890  27.317  22.688
52874W        W53738  19.838  28.727  25.064
52875W        W53739  18.508  26.354  24.949
52876W        W53740  19.002  25.558  24.825
52877W        W53741  20.822  25.996  23.583
52878W        W53742  20.510  26.707  22.228
52879W        W53743  20.947  26.394  25.233
52880W        W53744  18.525  26.000  24.551
52881W        W53745  18.684  28.489  25.176
52882W        W53746  19.938  28.130  22.250
52883W        W53747  18.469  26.721  23.986
52884W        W53748  19.321  26.789  25.182
52885W        W53749  21.618  26.566  23.647
52886W        W53750  21.451  27.485  24.344
52887W        W53751  19.985  26.931  23.577
52888W        W53752  20.455  28.308  23.898
52889W        W53753  18.818  27.689  24.153
52890W        W53754  18.174  27.105  23.851
52891W        W53755  19.335  27.217  24.834
52892W        W53756  21.554  27.015  25.068
52893W        W53757  19.067  28.335  23.513
52894W        W53758  20.084  28.280  24.708
52895W        W53759  19.619  26.728  23.903
52896W        W53760  19.774  27.598  23.599
52897W        W53761  20.613  28.369  25.447
52898W        W53762  19.788  27.571  25.419
52899W        W53763  19.860  27.392  24.909
52900W        W53764  18.327  26.614  25.383
52901W        W53765  21.017  28.283  25.114
52902W        W53766  18.681  25.816  23.013
52903W        W53767  19.177  28.084  24.041
52904W        W53768  21.800  27.940  23.699
52905W        W53769  21.263  26.152  23.806
52906W        W53770  21.446  26.376  21.885
52907W        W53771  21.898  27.085  24.293
52908W        W53772  19.704  28.802  24.081
52909W        W53773  21.563  28.270  22.424
52910W        W53774  18.929  28.915  22.376
52911W        W53775  19.020  28.825  22.896
52912W        W53776  18.953  25.830  24.314
52913W        W53777  21.442  27.002  24.560
52914W        W53778  20.835  27.217  23.032
52915W        W53779  20.739  27.156  22.047
52916W        W53780  20.072  28.145  24.203
52917W        W53781  20.039  26.418  23.420
52918W        W53782  20.525  28.336  24.427
52919W        W53783  21.258  27.313  22.750
52920W        W53784  20.471  26.017  22.772
52921W        W53785  18.825  28.445  22.608
52922W        W53786  18.343  26.141  23.196
52923W        W53787  21.120  26.668  23.830
52924W        W53788  18.555  28.306  23.573
52925W        W53789  19.774  28.618  22.350
52926W        W53790  21.190  26.851  21.864
52927W        W53791  18.374  28.497  24.260
52928W        W53792  19.156  28.184  24.744
52929W        W53793  19.431  27.520  23.206
52930W        W53794  19.421  26.010  24.180
52931W        W53795  21.638  25.776  23.750
52932W        W53796  18.660  27.620  22.038
52933W        W53797  18.772  26.662  22.489
52934W        W53798  18.743  28.304  23.089
52935W        W53799  19.654  27.985  23.149
52936W        W53800  21.220  28.724  24.888
52937W        W53801  20.164  26.465  22.549
52938W        W53802  21.486  28.909  23.556
52939W        W53803  21.171  26.700  24.883
52940W        W53804  21.888  28.174  23.234
52941W        W53805  20.355  27.703  24.817
52942W        W53806  18.161  27.311  22.762
52943W        W53807  19.256  27.768  24.421
52944W        W53808  20.492  26.910  22.745
52945W        W53809  20.363  27.409  22.897
52946W        W53810  18.853  26.811  24.306
52947W        W53811  18.799  26.708  25.250
52948W        W53812  18.634  25.738  23.531
52949W        W53813  20.338  26.148  23.781
52950W        W53814  20.068  26.163  25.175
52951W        W53815  20.546  26.175  22.279
52952W        W53816  21.715  28.579  25.133
52953W        W53817  20.502  25.714  25.109
52954W        W53818  21.478  28.052  25.332
52955W        W53819  21.017  26.231  24.753
52956W        W53820  20.862  26.188  23.083
52957W        W53821  21.097  27.367  25.490
52958W        W53822  18.751  28.737  23.351
52959W        W53823  19.668  26.471  22.821
52960W        W53824  19.142  25.845  25.275
52961W        W53825  21.237  26.456  22.809
52962W        W53826  21.608  26.934  22.749
52963W        W53827  19.406  28.891  25.291
52964W        W53828  19.150  25.717  22.486
52965W        W53829  21.574  26.135  23.388
52966W        W53830  21.742  28.327  21.936
52967W        W53831  18.474  27.527  23.671
52968W        W53832  20.596  26.118  21.784
52969W        W53833  21.784  28.434  23.887
52970W        W53834  21.617  25.769  24.335
52971W        W53835  20.194  26.937  25.043
52972W        W53836  20.026  27.821  22.692
52973W        W53837  20.626  27.501  25.618
52974W        W53838  20.408  25.667  23.588
52975W        W53839  18.885  26.566  23.732
52976W        W53840  18.514  27.695  24.591
52977W        W53841  20.508  28.632  23.483
52978W        W53842  21.543  26.745  24.120
52979W        W53843  20.242  28.869  24.772
52980W        W53844  21.455  27.654  22.021
52981W        W53845  19.911  27.296  23.203
52982W        W53846  21.782  25.846  24.842
52983W        W53847  19.928  27.786  24.544
52984W        W53848  20.158  26.602  23.984
52985W        W53849  21.022  26.878  22.600
52986W        W53850  21.430  26.714  22.305
52987W        W53851  21.216  28.502  22.737
52988W        W53852  21.016  27.879  23.634
52989W        W53853  20.773  27.325  22.536
52990W        W53854  20.256  27.401  23.584
52991W        W53855  21.149  27.423  23.395
52992W        W53856  18.698  26.298  24.140
52993W        W53857  21.086  27.210  24.980
52994W        W53858  21.721  28.874  24.129
52995W        W53859  19.592  28.416  23.452
52996W        W53860  20.740  28.822  24.599
52997W        W53861  20.618  26.409  24.473
52998W        W53862  19.899   0.128  24.456
52999W        W53863  21.534  26.024  22.885
53000W        W53864  21.146  27.122  24.104
53001W        W53865  18.414  26.564  24.483
53002W        W53866  21.180  26.460  23.370
53003W        W53867  21.660  26.575  24.853
53004W        W53868  20.545  28.106  23.424
53005W        W53869  19.627  28.726  22.950
53006W        W53870  18.695  26.001  22.502
53007W        W53871  20.128  25.732  24.011
53008W        W53872  18.963  28.521  22.015
53009W        W53873  19.408  27.226  22.483
53010W        W53874  19.952  27.892  25.065
53011W        W53875  19.995  26.081  22.956
53012W        W53876  21.237  25.752  23.380
53013W        W53877  20.960  28.929  23.677
53014W        W53878  20.178  28.675  24.257
53015W        W53879  19.643  27.798  24.074
53016W        W53880  21.551  28.441  24.359
53017W        W53881  19.151  25.996  22.944
53018W        W53882  19.637  28.303  23.955
53019W        W53883  19.102  26.514  22.087
53020W        W53884  19.893  26.910  24.333
53021W        W53885  20.665  25.786  24.047
53022W        W53886  18.278  27.551  24.159
53023W        W53887  19.824  27.258  22.169
53024W        W53888  19.263  25.986  22.039
53025W        W53889  19.994  26.832  23.000
53026W        W53890  20.703  25.866  24.577
53027W        W53891  19.499  27.776  24.863
53028W        W53892  20.257  27.421  25.248
53029W        W53893  20.765  27.589  25.122
53030W        W53894  20.177  25.811  25.540
53031W        W53895  19.349  26.338  23.665
53032W        W53896  18.886  26.211  23.350
53033W        W53897  18.442  28.776  22.924
53034W        W53898  20.128  28.342  25.219
53035W        W53899  19.085  27.611  22.369
53036W        W53900  20.755  27.285  23.750
53037W        W53901  20.689  26.819  24.075
53038W        W53902  20.115  27.615  24.053
53039W        W53903  20.648  28.059  22.078
53040W        W53904  20.406  26.064  23.280
53041W        W53905  21.741  26.437  22.644
53042W        W53906  18.469  28.857  24.865
53043W        W53907  18.750  28.131  24.415
53044W        W53908  18.087  28.724  22.486
53045W        W53909  20.182  26.178  24.290
53046W        W53910  19.419  28.244  22.167
53047W        W53911  21.321  28.684  22.248
53048W        W53912  20.293  27.177  22.363
53049W        W53913  19.190  26.513  23.014
53050W        W53914  20.127  26.307  22.005
53051W        W53915  20.413  27.909  25.316
53052W        W53916  20.988  25.982  22.621
53053W        W53917  18.332  25.699  22.279
53054W        W53918  19.598  28.160  24.459
53055W        W53919  19.401  27.945  23.602
53056W        W53920  19.168  27.842  21.920
53057W        W53921  18.340  28.318  22.706
53058W        W53922  18.905  27.195  25.131
53059W        W53923  19.647  25.868  25.471
53060W        W53924  20.207  25.858  24.699
53061W        W53925  19.563  25.680  23.072
53062W        W53926  20.605  25.682  22.398
53063W        W53927  18.526  25.832  24.044
53064W        W53928  18.534  26.604  23.327
53065W        W53929  21.224  25.623  24.004
53066W        W53930  18.713  26.345  22.887
53067W        W53931  21.103  26.023  24.287
53068W        W53932  21.661  27.140  21.995
53069W        W53933  18.985  26.015  23.830
53070W        W53934  20.121  26.487  24.739
53071W        W53935  18.307  26.213  22.231
53072W        W53936  18.988  27.626  24.834
53073W        W53937  20.243  27.106  24.003
53074W        W53938  20.102  28.957  22.162
53075W        W53939  18.258  27.885  21.843
53076W        W53940  18.943  27.954  25.367
53077W        W53941  18.708  27.223  24.641
53078W        W53942  19.621  27.382  24.442
53079W        W53943  21.250  25.767  24.733
53080W        W53944  21.799  27.385  24.734
53081W        W53945  21.712  27.369  22.455
53082W        W53946  20.547  27.783  22.528
53083W        W53947  21.141   0.048  21.876
53084W        W53948  20.230  27.012  25.569
53085W        W53949  18.690  28.036  25.828
53086W        W53950  21.873  26.115  25.313
53087W        W53951  21.433  27.057  23.667
53088W        W53952  19.899  28.891  25.553
53089W        W53953  19.670  25.704  22.246
53090W        W53954  21.230  28.165  22.038
53091W        W53955  19.029  26.297  25.062
53092W        W53956  19.620  28.280  24.970
53093W        W53957  21.509  26.223  24.534
53094W        W53958  20.964   0.047  22.359
53095W        W53959  20.994  27.625  24.089
53096W        W53960  19.246  25.997  24.696
53097W        W53961  19.721  27.095  25.307
53098W        W53962  19.193  28.062  22.626
53099W        W53963  20.968  27.718  22.891
53100W        W53964  18.903  26.362  24.582
53101W        W53965  20.069  28.316  23.263
53102W        W53966  21.825  27.015  23.314
53103W        W53967  19.989  25.648  25.107
53104W        W53968  20.882  28.126  24.098
53105W        W53969  21.297  28.614  23.939
53106W        W53970  20.323  28.489  22.113
53107W        W53971  18.395  28.080  25.371
53108W        W53972  19.201  26.468  24.147
53109W        W53973  19.135  25.771  23.399
53110W        W53974  20.782  26.308  23.994
53111W        W53975  19.604  27.734  22.207
53112W        W53976  21.441  27.571  23.818
53113W        W53977  19.189  28.410  25.235
53114W        W53978  21.384  28.999  22.828
53115W        W53979  19.557  26.161  23.235
53116W        W53980  18.966  27.427  23.427
53117W        W53981  19.367   0.044  24.400
53118W        W53982  21.517   0.051  25.152
53119W        W53983  20.621  27.313  24.262
53120W        W53984  18.491  27.089  22.173
53121W        W53985  21.630  28.584  23.029
53122W        W53986  21.379  26.193  22.366
53123W        W53987  19.511  25.654  24.957
53124W        W53988  21.458  28.358  23.492
53125W        W53989  21.293  26.970  23.161
53126W        W53990  19.590  26.671  23.333
53127W        W53991  19.728  26.870  24.827
53128W        W53992  20.767  28.007  24.760
53129W        W53993  19.392  26.488  24.740
53130W        W53994  19.263  28.801  23.344
53131W        W53995  18.930  28.962  25.084
53132W        W53996  18.840  28.067  22.256
53133W        W53997  21.509  28.082  22.896
53134W        W53998  18.994  26.819  24.789
53135W        W53999  21.933  26.820  22.341
53136W        W54000  19.516  27.682  22.723
53137W        W54001  20.552  27.232  24.811
53138W        W54002  20.381  26.868  24.483
53139W        W54003  19.108  27.290  24.335
53140W        W54004  21.228  28.869  24.379
53141W        W54005  20.991  25.868  25.187
53142W        W54006  18.661  25.864  25.062
53143W        W54007  19.149  26.985  23.903
53144W        W54008  19.509  26.839  22.081
53145W        W54009  18.356  28.371  24.754
53146W        W54010  19.738  27.245  23.969
53147W        W54011  19.639  26.354  22.260
53148W        W54012  18.958  26.982  22.864
53149W        W54013  18.447  28.999  24.359
53150W        W54014  21.223  27.219  22.246
53151W        W54015  21.417  26.154  25.065
53152W        W54016  21.063  28.168  23.179
53153W        W54017  18.485  27.124  25.426
53154W        W54018  21.592  25.738  22.458
53155W        W54019  20.984  28.096  22.493
53156W        W54020  19.806  26.851  22.507
53157W        W54021  20.992  25.956  22.076
53158W        W54022  21.118  26.553  24.348
53159W        W54023  18.634  27.036  23.575
53160W        W54024  19.088  27.913  23.178
53161W        W54025  20.846  26.712  23.077
53162W        W54026  19.826  26.216  23.871
53163W        W54027  21.695  27.954  24.424
53164W        W54028  21.720  26.225  24.048
53165W        W54029  18.236  28.696  23.404
53166W        W54030  18.721  27.925  22.745
53167W        W54031  18.715  25.769  25.585
53168W        W54032  20.170  28.478  25.720
53169W        W54033  21.603  27.428  23.104
53170W        W54034  20.956  27.658  22.172
53171W        W54035  20.400   0.138  24.345
53172W        W54036  20.969  27.912  25.492
53173W        W54037  19.911  25.585  22.691
53174W        W54038  20.638  26.489  23.504
53175W        W54039  18.461  28.029  23.997
53176W        W54040  19.581  25.994  22.654
53177W        W54041  19.287  27.524  25.255
53178W        W54042  20.379  26.491  23.024
53179W        W54043  20.512  27.819  24.338
53180W        W54044  18.817  28.609  24.592
53181W        W54045  19.657  28.456  25.480
53182W        W54046  19.149  26.248  22.510
53183W        W54047  20.736  26.455  22.646
53184W        W54048  20.551  28.465  24.934
53185W        W54049  19.498  27.139  23.534
53186W        W54050  18.923  28.906  24.169
53187W        W54051  21.660  28.830  21.904
53188W        W54052  18.558  27.592  25.148
53189W        W54053  20.547  27.778  23.825
53190W        W54054  19.025  27.500  22.874
53191W        W54055  19.261  28.523  24.324
53192W        W54056  19.960  25.893  23.458
53193W        W54057  18.337  27.959  22.346
53194W        W54058  20.027  26.797  22.047
53195W        W54059  18.573  27.309  23.096
53196W        W54060  19.752  26.095  24.758
53197W        W54061  21.482  25.851  21.964
53198W        W54062  21.526  27.500  25.229
53199W        W54063  20.334  28.797  25.308
53200W        W54064  21.758  27.859  24.932
53201W        W54065  21.320  28.528  25.451
53202W        W54066  18.937   0.058  23.694
53203W        W54067  21.970  27.771  22.906
53204W        W54068  20.417  26.996  23.267
53205W        W54069  20.215  25.601  23.107
53206W        W54070  19.266  28.372  23.032
53207W        W54071  19.713  26.429  24.338
53208W        W54072  19.531  25.831  23.706
53209W        W54073  18.484  28.463  22.229
53210W        W54074  20.142  27.777  23.234
53211W        W54075  19.289  28.696  24.814
53212W        W54076  18.601  27.466  22.542
53213W        W54077  18.483  26.221  23.685
53214W        W54078  20.048  28.023  23.700
53215W        W54079  18.209  25.870  22.748
53216W        W54080  20.906  26.983  24.537
53217W        W54081  20.979  26.473  22.168
53218W        W54082  21.385  28.086  23.978
53219W        W54083  20.040  28.562  23.748
53220W        W54084  19.307  28.570  22.548
53221W        W54085  20.655  25.597  21.894
53222W        W54086  18.494  28.805  23.839
53223W        W54087  20.463  26.592  25.371
53224W        W54088  18.683  26.240  25.439
53225W        W54089  18.441  26.840  22.868
53226W        W54090  19.297  26.731  22.543
53227W        W54091  20.665  27.086  25.290
53228W        W54092  19.252  27.515  23.873
53229W        W54093  20.747  25.683  23.167
53230W        W54094  19.714  28.918  23.559
53231W        W54095  21.034  28.407  24.524
53232W        W54096  20.941  28.392  23.646
53233W        W54097  20.657  27.608  23.324
53234W        W54098  20.084  25.971  22.400
53235W        W54099  21.856  25.729  23.277
53236W        W54100  19.359  27.336  21.972
53237W        W54101  21.628  26.576  23.128
53238W        W54102  20.171  27.654  22.186
53239W        W54103  21.208  27.801  24.963
53240W        W54104  20.862  28.571  22.045
53241W        W54105  19.530  26.290  25.206
53242W        W54106  19.388  26.877  24.401
53243W        W54107  21.445  28.252  24.824
53244W        W54108  20.533  26.210  24.952
53245W        W54109  18.443  26.867  24.911
53246W        W54110  20.154  27.332  24.486
53247W        W54111  18.573  27.822  23.248
53248W        W54112  18.671  27.213  24.051
53249W        W54113  20.926  27.528  24.606
53250W        W54114  20.859  28.785  25.240
53251W        W54115  20.656  26.715  24.906
53252W        W54116  21.145  28.697  23.231
53253W        W54117  19.739  28.649  24.568
53254W        W54118  19.274  28.671  23.836
53255W        W54119  21.197  27.935  24.459
53256W        W54120  19.964  28.030  25.584
53257W        W54121  18.868  27.884  23.673
53258W        W54122  21.446  27.852  23.348
53259W        W54123  20.797  28.646  24.101
53260W        W54124  18.821  28.436  23.993
53261W        W54125  19.900  26.626  25.363
53262W        W54126  20.084  28.544  22.758
53263W        W54127  19.473  27.986  25.400
53264W        W54128  19.672  28.226  22.691
53265W        W54129  19.006  27.019  22.165
53266W        W54130  18.462   0.251  28.859
53267W        W54131  18.718  28.000  28.528
53268W        W54132  21.423  27.687  26.263
53269W        W54133  21.609  28.774  28.247
53270W        W54134  19.413  28.832  25.792
53271W        W54135  19.457  27.011  26.592
53272W        W54136  19.014  26.959  26.912
53273W        W54137  20.002  27.540  26.279
53274W        W54138  19.769  28.723  28.306
53275W        W54139  18.495  26.375  28.448
53276W        W54140  18.924  25.543  28.263
53277W        W54141  20.815  25.991  27.240
53278W        W54142  20.451  26.679  25.922
53279W        W54143  20.989  26.406  28.834
53280W        W54144  18.538  25.974  28.075
53281W        W54145  18.487  28.743   0.014
53282W        W54146  20.086  28.041  26.104
53283W        W54147  18.371  26.759  27.522
53284W        W54148  19.190  26.755  28.758
53285W        W54149  21.500  26.597  27.266
53286W        W54150  21.638  27.550  28.165
53287W        W54151  19.932  27.023  27.226
53288W        W54152  20.467  28.292  27.523
53289W        W54153  18.800  27.695  27.754
53290W        W54154  18.104  27.177  27.354
53291W        W54155  19.286  27.092  28.373
53292W        W54156  21.688  26.782  28.646
53293W        W54157  19.088  28.393  27.135
53294W        W54158  20.365  28.118  28.311
53295W        W54159  19.612  26.663  27.455
53296W        W54160  19.751  27.585  27.193
53297W        W54161  20.504  28.379  28.972
53298W        W54162  19.796  27.514  28.997
53299W        W54163  19.849  27.377  28.508
53300W        W54164  18.164  26.709   0.076
53301W        W54165  20.996  28.265  28.806
53302W        W54166  18.675  25.740  26.576
53303W        W54167  19.209  28.180  27.723
53304W        W54168  21.801  27.935  27.152
53305W        W54169  21.099  26.337  27.553
53306W        W54170  21.403  26.453  25.486
53307W        W54171  21.914  27.095  27.905
53308W        W54172  19.757  28.798  27.756
53309W        W54173  21.348  28.206  26.377
53310W        W54174  18.954  28.971  26.053
53311W        W54175  19.053  28.822  26.547
53312W        W54176  19.004  25.883  27.822
53313W        W54177  21.502  26.962  28.169
53314W        W54178  20.798  27.164  26.807
53315W        W54179  20.813  27.042  25.796
53316W        W54180  20.136  27.970  27.737
53317W        W54181  19.841  26.340  27.029
53318W        W54182  20.596  28.450  28.001
53319W        W54183  21.253  27.300  26.581
53320W        W54184  20.354  25.901  26.443
53321W        W54185  18.815  28.469  26.149
53322W        W54186  18.474  26.201  26.665
53323W        W54187  20.852  26.821  27.205
53324W        W54188  18.567  28.320  27.119
53325W        W54189  19.828  28.684  26.047
53326W        W54190  21.119  26.864  25.380
53327W        W54191  18.393  28.567  27.897
53328W        W54192  19.165  28.181  28.324
53329W        W54193  19.409  27.532  26.728
53330W        W54194  19.511  26.006  27.897
53331W        W54195  21.827  25.707  27.413
53332W        W54196  18.874  27.476  25.574
53333W        W54197  18.691  26.618  25.777
53334W        W54198  18.839  28.342  26.672
53335W        W54199  19.674  27.993  26.841
53336W        W54200  21.186  28.679  28.539
53337W        W54201  20.134  26.349  26.215
53338W        W54202  21.501  28.863  27.116
53339W        W54203  21.192  26.712  28.478
53340W        W54204  21.885  28.267  26.771
53341W        W54205  20.450  27.622  28.299
53342W        W54206  18.055  27.323  26.444
53343W        W54207  19.254  27.762  28.002
53344W        W54208  20.369  26.805  26.419
53345W        W54209  20.358  27.309  26.580
53346W        W54210  18.876  26.792  27.835
53347W        W54211  18.637  26.574  28.931
53348W        W54212  18.533  25.764  27.076
53349W        W54213  20.398  26.102  27.574
53350W        W54214  20.134  26.136  28.761
53351W        W54215  20.453  26.002  25.943
53352W        W54216  21.735  28.559  28.759
53353W        W54217  20.473  25.697  28.621
53354W        W54218  21.519  28.086  28.878
53355W        W54219  21.101  26.236  28.334
53356W        W54220  20.755  26.107  26.729
53357W        W54221  21.132  27.298   0.058
53358W        W54222  18.762  28.789  26.972
53359W        W54223  19.622  26.563  26.322
53360W        W54224  19.152  25.899  28.814
53361W        W54225  21.164  26.400  26.486
53362W        W54226  21.430  26.854  26.369
53363W        W54227  19.320  28.960   0.004
53364W        W54228  19.122  25.694  26.228
53365W        W54229  21.634  26.102  27.084
53366W        W54230  21.775  28.335  25.668
53367W        W54231  18.456  27.573  27.254
53368W        W54232  20.595  26.098  25.458
53369W        W54233  21.778  28.438  27.367
53370W        W54234  21.733  25.731  27.923
53371W        W54235  20.120  26.973  28.716
53372W        W54236  20.453  28.163  26.491
53373W        W54237  20.662  27.541   0.107
53374W        W54238  20.497  25.612  27.407
53375W        W54239  18.858  26.634  27.336
53376W        W54240  18.518  27.675  28.191
53377W        W54241  20.572  28.608  26.768
53378W        W54242  21.455  26.484  27.923
53379W        W54243  20.306  28.825  28.263
53380W        W54244  21.425  27.686  25.718
53381W        W54245  19.872  27.304  26.762
53382W        W54246  21.804  25.645  28.438
53383W        W54247  19.954  27.745  28.147
53384W        W54248  20.146  26.571  27.392
53385W        W54249  20.908  26.790  26.242
53386W        W54250  21.271  26.770  25.871
53387W        W54251  20.998  28.599  26.329
53388W        W54252  20.973  28.009  27.184
53389W        W54253  20.809  27.290  26.291
53390W        W54254  20.261  27.401  27.103
53391W        W54255  21.286  27.124  27.238
53392W        W54256  18.585  26.330  27.696
53393W        W54257  21.323  27.208  28.583
53394W        W54258  21.721  28.867  27.662
53395W        W54259  19.661  28.441  27.113
53396W        W54260  20.825  28.904  28.191
53397W        W54261  20.669  26.223  28.017
53398W        W54262  19.965   0.152  28.061
53399W        W54263  21.567  25.990  26.574
53400W        W54264  21.289  27.352  27.857
53401W        W54265  18.420  26.684  28.052
53402W        W54266  21.115  26.354  27.017
53403W        W54267  20.500  28.153  27.020
53404W        W54268  19.751  28.756  26.697
53405W        W54269  18.723  26.125  25.969
53406W        W54270  20.018  25.704  27.562
53407W        W54271  18.947  28.776  25.562
53408W        W54272  19.508  27.364  26.226
53409W        W54273  20.021  27.897  28.631
53410W        W54274  19.880  26.047  26.587
53411W        W54275  21.182  25.835  26.905
53412W        W54276  21.024  28.997  27.262
53413W        W54277  20.272  28.750  27.695
53414W        W54278  19.668  27.762  27.691
53415W        W54279  21.572  28.408  27.863
53416W        W54280  18.975  26.134  26.441
53417W        W54281  19.746  28.297  27.599
53418W        W54282  19.150  26.448  25.540
53419W        W54283  19.964  26.905  27.761
53420W        W54284  20.865  25.831  27.715
53421W        W54285  18.293  27.574  27.753
53422W        W54286  19.851  27.220  25.837
53423W        W54287  19.191  25.974  25.777
53424W        W54288  19.903  26.768  26.754
53425W        W54289  20.835  25.790  28.243
53426W        W54290  19.524  27.778  28.443
53427W        W54291  20.282  27.472  28.782
53428W        W54292  20.861  27.459  28.624
53429W        W54293  20.147  25.745   0.087
53430W        W54294  19.373  26.185  27.241
53431W        W54295  18.937  26.360  26.909
53432W        W54296  18.508  28.707  26.525
53433W        W54297  20.124  28.453  28.610
53434W        W54298  19.010  27.414  26.070
53435W        W54299  20.754  27.341  27.296
53436W        W54300  20.927  27.033  27.672
53437W        W54301  20.086  27.446  27.596
53438W        W54302  20.524  28.012  25.812
53439W        W54303  20.244  25.989  27.091
53440W        W54304  21.677  26.405  26.279
53441W        W54305  18.424  28.866  28.508
53442W        W54306  18.716  28.148  28.013
53443W        W54307  18.197  28.877  26.157
53444W        W54308  20.225  26.467  27.910
53445W        W54309  19.605  28.205  25.927
53446W        W54310  21.402  28.672  26.006
53447W        W54311  20.351  27.195  26.049
53448W        W54312  19.127  26.629  26.522
53449W        W54313  20.151  26.311  25.676
53450W        W54314  20.619  27.911  28.719
53451W        W54315  21.103  25.911  26.340
53452W        W54316  18.239  25.776  25.768
53453W        W54317  19.617  28.144  28.070
53454W        W54318  19.430  28.009  27.289
53455W        W54319  19.193  27.828  25.822
53456W        W54320  18.313  28.379  26.167
53457W        W54321  18.866  27.150  28.692
53458W        W54322  19.669  25.883  28.907
53459W        W54323  20.212  26.042  28.253
53460W        W54324  19.456  25.697  26.622
53461W        W54325  20.716  25.616  26.157
53462W        W54326  18.536  25.786  27.600
53463W        W54327  18.572  26.713  26.770
53464W        W54328  21.315  25.884  27.415
53465W        W54329  18.670  26.535  26.288
53466W        W54330  21.293  25.996  27.927
53467W        W54331  21.559  27.098  25.576
53468W        W54332  18.874  26.102  27.348
53469W        W54333  20.159  26.539  28.429
53470W        W54334  18.257  26.288  25.783
53471W        W54335  18.986  27.560  28.393
53472W        W54336  20.398  27.024  27.477
53473W        W54337  20.273  28.962  25.973
53474W        W54338  18.393  27.629  25.639
53475W        W54339  19.200  27.969  28.803
53476W        W54340  18.624  27.170  28.167
53477W        W54341  19.597  27.368  28.060
53478W        W54342  21.309  25.595  28.286
53479W        W54343  21.894  27.207  28.436
53480W        W54344  21.775  27.386  25.950
53481W        W54345  20.498  27.704  26.234
53482W        W54346  21.208   0.006  25.574
53483W        W54347  20.442  27.073   0.106
53484W        W54348  18.742  27.875   0.038
53485W        W54349  21.962  26.066  28.696
53486W        W54350  21.472  26.920  27.662
53487W        W54351  19.772  28.767  28.840
53488W        W54352  19.532  25.603  25.920
53489W        W54353  21.298  28.170  25.851
53490W        W54354  18.969  26.324  28.625
53491W        W54355  19.636  28.275  28.573
53492W        W54356  21.690  26.142  28.234
53493W        W54357  20.977   0.032  26.029
53494W        W54358  20.995  27.702  27.603
53495W        W54359  19.194  25.987  28.304
53496W        W54360  19.622  27.004  28.791
53497W        W54361  19.135  28.067  26.307
53498W        W54362  20.974  27.744  26.509
53499W        W54363  18.895  26.336  28.098
53500W        W54364  20.072  28.332  26.808
53501W        W54365  21.688  26.978  26.908
53502W        W54366  19.974  25.657  28.573
53503W        W54367  20.957  28.234  27.659
53504W        W54368  21.274  28.612  27.505
53505W        W54369  20.527  28.495  26.086
53506W        W54370  18.389  28.215  28.881
53507W        W54371  19.211  26.400  27.692
53508W        W54372  19.059  25.847  26.912
53509W        W54373  20.637  26.571  27.610
53510W        W54374  19.687  27.710  25.888
53511W        W54375  21.486  27.573  27.427
53512W        W54376  18.887  28.401  28.804
53513W        W54377  21.302   0.030  26.435
53514W        W54378  19.410  26.210  26.717
53515W        W54379  18.949  27.469  27.050
53516W        W54380  19.305   0.081  27.802
53517W        W54381  21.478   0.006  28.813
53518W        W54382  20.577  27.411  27.807
53519W        W54383  18.622  27.106  25.926
53520W        W54384  21.565  28.635  26.625
53521W        W54385  21.292  26.274  25.986
53522W        W54386  19.466  25.617  28.513
53523W        W54387  21.358  28.370  27.045
53524W        W54388  21.201  26.832  26.823
53525W        W54389  19.418  26.651  26.976
53526W        W54390  19.777  26.899  28.278
53527W        W54391  20.908  28.101  28.311
53528W        W54392  19.344  26.526  28.309
53529W        W54393  19.328  28.836  27.002
53530W        W54394  18.880  28.921  28.727
53531W        W54395  19.136  28.334  25.745
53532W        W54396  21.381  27.924  26.804
53533W        W54397  18.862  26.762  28.361
53534W        W54398  21.772  26.832  25.982
53535W        W54399  19.596  27.854  26.360
53536W        W54400  20.503  27.136  28.437
53537W        W54401  20.506  26.909  27.975
53538W        W54402  19.079  27.282  27.925
53539W        W54403  21.256  28.979  27.887
53540W        W54404  20.991  25.698  28.755
53541W        W54405  18.696  25.890  28.551
53542W        W54406  19.103  27.068  27.444
53543W        W54407  19.500  26.814  25.679
53544W        W54408  18.366  28.367  28.373
53545W        W54409  19.603  27.228  27.571
53546W        W54410  19.616  26.313  25.761
53547W        W54411  18.837  27.075  26.434
53548W        W54412  18.438   0.094  28.055
53549W        W54413  21.271  27.251  26.027
53550W        W54414  21.424  25.965  28.643
53551W        W54415  20.940  28.235  26.716
53552W        W54416  18.514  27.077   0.060
53553W        W54417  21.571  25.839  26.066
53554W        W54418  20.876  28.126  26.174
53555W        W54419  19.911  27.031  26.315
53556W        W54420  20.962  25.938  25.811
53557W        W54421  20.984  26.634  27.989
53558W        W54422  18.581  27.066  27.156
53559W        W54423  19.144  27.956  26.849
53560W        W54424  20.750  26.628  26.713
53561W        W54425  19.831  26.178  27.521
53562W        W54426  21.845  28.014  28.022
53563W        W54427  21.705  26.181  27.598
53564W        W54428  18.227  28.683  26.981
53565W        W54429  18.631  28.002  26.345
53566W        W54430  18.877  25.619   0.247
53567W        W54431  20.013  28.404   0.151
53568W        W54432  21.633  27.480  26.944
53569W        W54433  20.967  27.670  25.965
53570W        W54434  20.471   0.177  27.880
53571W        W54435  21.103  27.788  28.951
53572W        W54436  19.861  25.591  26.334
53573W        W54437  20.557  26.407  27.133
53574W        W54438  18.444  28.021  27.543
53575W        W54439  19.489  26.055  26.222
53576W        W54440  19.319  27.441  28.777
53577W        W54441  20.278  26.374  26.709
53578W        W54442  20.620  27.930  27.897
53579W        W54443  18.832  28.586  28.306
53580W        W54444  19.376  28.423   0.002
53581W        W54445  19.158  26.429  26.047
53582W        W54446  20.667  26.334  26.272
53583W        W54447  20.656  28.526  28.506
53584W        W54448  19.455  27.168  27.085
53585W        W54449  18.847  28.841  27.853
53586W        W54450  21.707  28.847  25.619
53587W        W54451  18.510  27.527  28.713
53588W        W54452  20.497  27.780  27.399
53589W        W54453  18.927  27.605  26.536
53590W        W54454  19.314  28.603  28.032
53591W        W54455  19.715  25.836  27.053
53592W        W54456  18.216  27.889  26.043
53593W        W54457  19.940  26.717  25.908
53594W        W54458  18.503  27.366  26.742
53595W        W54459  19.706  26.094  28.399
53596W        W54460  21.446  25.949  25.580
53597W        W54461  21.674  27.495  28.814
53598W        W54462  20.309  28.843  28.901
53599W        W54463  21.840  27.879  28.522
53600W        W54464  21.321  28.555   0.059
53601W        W54465  18.989   0.001  27.380
53602W        W54466  21.823  27.797  26.582
53603W        W54467  20.370  26.887  26.964
53604W        W54468  20.108  25.589  26.798
53605W        W54469  19.355  28.403  26.693
53606W        W54470  19.717  26.472  27.953
53607W        W54471  19.485  25.672  27.497
53608W        W54472  18.510  28.518  25.691
53609W        W54473  20.144  27.790  26.737
53610W        W54474  19.298  28.667  28.554
53611W        W54475  18.512  27.496  26.229
53612W        W54476  18.447  26.362  27.165
53613W        W54477  20.030  28.031  27.233
53614W        W54478  18.277  25.961  26.243
53615W        W54479  20.964  27.100  28.209
53616W        W54480  20.873  26.464  25.738
53617W        W54481  21.413  28.081  27.478
53618W        W54482  20.251  28.613  27.191
53619W        W54483  19.323  28.533  26.198
53620W        W54484  20.632  25.597  25.623
53621W        W54485  18.496  28.841  27.425
53622W        W54486  20.464  26.572  28.885
53623W        W54487  18.712  26.051   0.031
53624W        W54488  18.347  26.934  26.344
53625W        W54489  19.231  26.940  26.104
53626W        W54490  20.841  26.954  28.783
53627W        W54491  19.229  27.572  27.486
53628W        W54492  20.637  25.630  26.904
53629W        W54493  19.826  28.926  27.191
53630W        W54494  21.118  28.504  28.059
53631W        W54495  20.834  28.514  27.214
53632W        W54496  20.636  27.674  26.883
53633W        W54497  19.924  25.943  25.965
53634W        W54498  21.901  25.691  26.904
53635W        W54499  19.375  27.332  25.714
53636W        W54500  21.582  26.493  26.767
53637W        W54501  20.176  27.615  25.788
53638W        W54502  21.305  27.772  28.487
53639W        W54503  20.937  28.577  25.788
53640W        W54504  19.475  26.339  28.814
53641W        W54505  19.397  26.874  27.897
53642W        W54506  21.486  28.263  28.374
53643W        W54507  20.620  26.175  28.547
53644W        W54508  18.397  26.879  28.570
53645W        W54509  20.133  27.261  28.088
53646W        W54510  18.626  27.876  26.865
53647W        W54511  18.631  27.208  27.642
53648W        W54512  20.946  27.611  28.135
53649W        W54513  20.847  28.788  28.912
53650W        W54514  20.678  26.650  28.396
53651W        W54515  21.086  28.745  26.814
53652W        W54516  20.062  28.411  28.018
53653W        W54517  19.341  28.641  27.501
53654W        W54518  21.305  27.956  27.977
53655W        W54519  20.263  27.927   0.090
53656W        W54520  18.899  27.944  27.312
53657W        W54521  21.120  27.548  27.014
53658W        W54522  20.804  28.780  27.676
53659W        W54523  18.788  28.425  27.564
53660W        W54524  19.924  26.571  28.969
53661W        W54525  20.181  28.656  26.423
53662W        W54526  19.702  28.012   0.018
53663W        W54527  19.769  28.327  26.405
53664W        W54528  19.019  26.981  25.611
53665W        W54529  21.942   3.646   3.357
53666W        W54530  22.332   2.518   2.975
53667W        W54531  24.959   2.288   0.749
53668W        W54532  25.271   3.283   2.730
53669W        W54533  23.037   3.220   0.325
53670W        W54534  23.150   1.525   1.240
53671W        W54535  22.788   1.262   1.495
53672W        W54536  23.668   2.023   0.725
53673W        W54537  23.428   3.307   3.084
53674W        W54538  21.971   0.803   3.035
53675W        W54539  22.537   0.014   2.812
53676W        W54540  24.566   0.579   1.910
53677W        W54541  24.096   1.224   0.415
53678W        W54542  24.701   0.773   3.396
53679W        W54543  22.124   0.483   2.609
53680W        W54544  22.115   3.184   3.513
53681W        W54545  23.487   2.511   0.199
53682W        W54546  22.073   1.200   2.047
53683W        W54547  23.047   1.335   3.247
53684W        W54548  25.402   1.078   1.785
53685W        W54549  25.191   2.075   2.627
53686W        W54550  23.570   1.591   1.596
53687W        W54551  24.083   2.850   1.980
53688W        W54552  22.477   2.150   2.203
53689W        W54553  21.721   1.550   1.880
53690W        W54554  22.983   1.780   2.944
53691W        W54555  25.200   1.500   3.289
53692W        W54556  22.765   3.022   1.734
53693W        W54557  23.970   2.666   2.808
53694W        W54558  23.484   1.268   2.005
53695W        W54559  23.389   2.056   1.718
53696W        W54560  24.203   2.900   3.457
53697W        W54561  23.566   2.071   3.518
53698W        W54562  23.507   1.879   3.003
53699W        W54563  21.873   1.159   3.424
53700W        W54564  24.657   2.734   3.199
53701W        W54565  22.268   0.299   1.096
53702W        W54566  22.797   2.560   2.234
53703W        W54567  25.275   2.448   1.545
53704W        W54568  24.999   0.844   2.054
53705W        W54569  25.082   0.883   0.115
53706W        W54570  25.596   1.566   2.510
53707W        W54571  23.549   3.240   2.275
53708W        W54572  25.002   2.786   0.539
53709W        W54573  22.612   3.666   0.536
53710W        W54574  22.744   3.568   1.029
53711W        W54575  22.551   0.262   2.355
53712W        W54576  25.162   1.411   2.741
53713W        W54577  24.506   1.729   1.274
53714W        W54578  24.497   1.515   0.318
53715W        W54579  23.670   2.713   2.261
53716W        W54580  23.791   1.117   1.625
53717W        W54581  24.033   3.066   2.466
53718W        W54582  25.037   1.839   0.994
53719W        W54583  24.085   0.597   0.978
53720W        W54584  22.620   3.171   0.690
53721W        W54585  21.895   0.615   1.367
53722W        W54586  24.509   1.420   1.691
53723W        W54587  22.257   2.897   1.629
53724W        W54588  23.482   3.051   0.569
53725W        W54589  24.812   1.289  28.977
53726W        W54590  21.982   3.017   2.310
53727W        W54591  22.740   2.723   2.742
53728W        W54592  22.995   2.019   1.381
53729W        W54593  22.922   0.616   2.230
53730W        W54594  25.392   0.161   1.798
53731W        W54595  22.405   2.000   0.148
53732W        W54596  22.347   1.204   0.605
53733W        W54597  22.344   2.927   1.101
53734W        W54598  23.331   2.442   1.380
53735W        W54599  24.817   3.214   2.971
53736W        W54600  23.804   0.970   0.742
53737W        W54601  25.172   3.366   1.618
53738W        W54602  24.561   1.160   3.010
53739W        W54603  25.551   2.802   1.268
53740W        W54604  24.083   2.150   2.786
53741W        W54605  21.768   1.784   0.916
53742W        W54606  22.808   2.222   2.621
53743W        W54607  24.178   1.439   0.907
53744W        W54608  24.034   1.900   1.076
53745W        W54609  22.335   1.344   2.479
53746W        W54610  22.346   1.254   3.225
53747W        W54611  22.192   0.224   1.601
53748W        W54612  24.049   0.471   2.012
53749W        W54613  23.775   0.642   3.326
53750W        W54614  24.237   0.559   0.497
53751W        W54615  25.340   3.081   3.210
53752W        W54616  24.130   0.221   3.234
53753W        W54617  25.152   2.594   3.365
53754W        W54618  24.728   0.684   2.884
53755W        W54619  24.507   0.696   1.254
53756W        W54620  24.788   1.769   3.491
53757W        W54621  22.490   3.350   1.436
53758W        W54622  23.329   1.158   0.752
53759W        W54623  22.875   0.433   3.269
53760W        W54624  24.869   0.977   0.962
53761W        W54625  25.216   1.365   0.915
53762W        W54626  23.009   3.437   3.351
53763W        W54627  22.994   0.176   0.672
53764W        W54628  25.182   0.600   1.635
53765W        W54629  25.390   2.855   0.205
53766W        W54630  22.097   2.140   1.767
53767W        W54631  24.267   0.558  28.994
53768W        W54632  25.420   2.937   1.782
53769W        W54633  25.275   0.290   2.379
53770W        W54634  23.806   1.432   3.061
53771W        W54635  23.551   2.527   0.715
53772W        W54636  24.313   1.954   3.614
53773W        W54637  23.857   0.132   1.613
53774W        W54638  22.500   1.009   1.824
53775W        W54639  22.257   2.108   2.681
53776W        W54640  24.025   3.195   1.505
53777W        W54641  25.268   1.216   2.279
53778W        W54642  23.911   3.373   2.875
53779W        W54643  25.035   2.297   0.247
53780W        W54644  23.490   1.935   1.206
53781W        W54645  25.423   0.242   2.889
53782W        W54646  23.633   2.308   2.591
53783W        W54647  24.011   1.036   2.084
53784W        W54648  24.686   1.490   0.847
53785W        W54649  24.898   1.202   0.489
53786W        W54650  24.745   3.067   0.898
53787W        W54651  24.712   2.455   1.689
53788W        W54652  24.158   1.835   0.559
53789W        W54653  23.879   2.037   1.565
53790W        W54654  24.805   1.873   1.668
53791W        W54655  22.373   0.781   2.273
53792W        W54656  24.924   1.794   2.979
53793W        W54657  25.317   3.317   2.123
53794W        W54658  23.208   2.934   1.511
53795W        W54659  24.410   3.433   2.669
53796W        W54660  24.331   0.738   2.403
53797W        W54661  23.520   3.633   2.635
53798W        W54662  25.082   0.530   1.111
53799W        W54663  25.100   1.704   2.298
53800W        W54664  21.966   0.982   2.525
53801W        W54665  24.802   0.973   1.595
53802W        W54666  25.075   1.034   3.083
53803W        W54667  24.114   2.663   1.476
53804W        W54668  23.441   3.270   1.187
53805W        W54669  22.336   0.708   0.775
53806W        W54670  23.583   0.225   2.113
53807W        W54671  22.581   3.317   0.124
53808W        W54672  22.813   1.881   0.711
53809W        W54673  23.707   2.354   3.110
53810W        W54674  23.555   0.840   1.188
53811W        W54675  24.767   0.304   1.480
53812W        W54676  24.451   3.466   1.731
53813W        W54677  23.971   3.365   1.991
53814W        W54678  23.331   2.308   2.169
53815W        W54679  25.139   2.927   2.394
53816W        W54680  22.759   0.523   1.013
53817W        W54681  23.205   2.801   2.019
53818W        W54682  22.920   0.955   0.076
53819W        W54683  23.718   1.285   2.467
53820W        W54684  24.436   0.189   2.267
53821W        W54685  21.963   2.134   2.273
53822W        W54686  23.458   1.752   0.290
53823W        W54687  22.891   0.486   0.275
53824W        W54688  23.641   1.366   1.135
53825W        W54689  24.363   0.352   2.764
53826W        W54690  23.218   2.303   2.932
53827W        W54691  23.971   1.906   3.234
53828W        W54692  24.474   2.002   3.102
53829W        W54693  23.835   0.279   3.693
53830W        W54694  23.002   1.077   1.961
53831W        W54695  22.410   0.691   1.412
53832W        W54696  22.242   3.414   0.942
53833W        W54697  23.719   2.894   3.219
53834W        W54698  22.681   2.317   0.483
53835W        W54699  24.304   1.872   1.789
53836W        W54700  24.620   1.649   2.134
53837W        W54701  23.813   2.130   2.097
53838W        W54702  24.182   2.445   0.102
53839W        W54703  23.930   0.625   1.499
53840W        W54704  25.444   0.894   0.885
53841W        W54705  22.105   3.392   2.938
53842W        W54706  22.287   2.583   2.465
53843W        W54707  21.916   3.769   0.725
53844W        W54708  23.790   0.748   2.446
53845W        W54709  23.089   2.706   0.472
53846W        W54710  25.085   3.304   0.600
53847W        W54711  23.745   1.515   0.652
53848W        W54712  23.023   0.968   1.120
53849W        W54713  23.849   0.800   0.245
53850W        W54714  24.213   2.418   3.246
53851W        W54715  24.647   0.457   0.810
53852W        W54716  22.042   0.364   0.421
53853W        W54717  23.216   2.647   2.540
53854W        W54718  22.993   2.369   1.785
53855W        W54719  22.982   2.376   0.066
53856W        W54720  22.088   2.977   0.621
53857W        W54721  22.649   1.662   3.333
53858W        W54722  23.340   0.415   3.559
53859W        W54723  23.851   0.439   2.850
53860W        W54724  23.145   0.203   1.187
53861W        W54725  24.112   0.119   0.770
53862W        W54726  22.087   0.290   2.122
53863W        W54727  22.078   1.096   1.485
53864W        W54728  24.891   0.148   1.980
53865W        W54729  22.506   1.084   1.096
53866W        W54730  24.806   0.514   2.396
53867W        W54731  25.191   1.568   0.223
53868W        W54732  22.546   0.488   1.886
53869W        W54733  23.605   0.958   2.919
53870W        W54734  21.950   0.880   0.453
53871W        W54735  22.593   2.088   3.072
53872W        W54736  23.928   1.566   1.974
53873W        W54737  23.917   3.321   0.361
53874W        W54738  21.966   2.301   0.068
53875W        W54739  22.839   2.507   3.206
53876W        W54740  22.331   1.664   2.905
53877W        W54741  23.252   1.941   2.546
53878W        W54742  24.903   0.197   2.799
53879W        W54743  25.479   1.814   2.966
53880W        W54744  25.353   1.960   0.530
53881W        W54745  24.079   2.344   0.657
53882W        W54746  24.838   3.548   0.219
53883W        W54747  23.943   1.553   3.647
53884W        W54748  22.430   2.594   3.488
53885W        W54749  25.637   0.622   3.532
53886W        W54750  24.982   1.375   1.880
53887W        W54751  23.483   3.497   3.570
53888W        W54752  23.368   0.284   0.337
53889W        W54753  24.617   2.688   0.228
53890W        W54754  22.724   0.917   3.221
53891W        W54755  23.191   2.842   3.037
53892W        W54756  25.217   0.710   2.673
53893W        W54757  24.623   3.629   0.680
53894W        W54758  24.664   2.166   2.108
53895W        W54759  22.775   0.526   2.754
53896W        W54760  23.448   1.585   3.433
53897W        W54761  22.736   2.678   0.850
53898W        W54762  24.516   2.059   0.892
53899W        W54763  22.416   0.914   2.792
53900W        W54764  23.670   2.834   1.303
53901W        W54765  25.481   1.464   1.388
53902W        W54766  23.621   0.156   3.214
53903W        W54767  24.567   2.690   2.130
53904W        W54768  24.886   3.098   1.968
53905W        W54769  23.887   2.777   0.391
53906W        W54770  21.979   2.718   3.301
53907W        W54771  22.773   1.072   2.424
53908W        W54772  22.684   0.258   1.452
53909W        W54773  24.552   1.100   2.088
53910W        W54774  23.223   2.168   0.477
53911W        W54775  25.173   2.103   1.935
53912W        W54776  22.388   2.997   3.116
53913W        W54777  24.998   3.628   1.024
53914W        W54778  22.917   0.721   1.576
53915W        W54779  22.598   1.955   1.718
53916W        W54780  23.041   3.583   2.386
53917W        W54781  25.065   3.536   3.296
53918W        W54782  24.226   1.932   2.320
53919W        W54783  22.129   1.634   0.380
53920W        W54784  25.214   3.183   1.142
53921W        W54785  25.080   0.692   0.587
53922W        W54786  23.043   0.079   2.894
53923W        W54787  24.989   2.875   1.515
53924W        W54788  24.951   1.460   1.361
53925W        W54789  23.291   1.125   1.538
53926W        W54790  23.333   1.418   2.800
53927W        W54791  24.461   2.499   2.779
53928W        W54792  23.074   0.957   2.848
53929W        W54793  23.019   3.431   1.462
53930W        W54794  22.497   3.485   3.273
53931W        W54795  22.574   2.811   0.334
53932W        W54796  25.088   2.684   1.046
53933W        W54797  22.720   1.340   2.858
53934W        W54798  25.404   1.171   0.473
53935W        W54799  23.102   2.300   0.946
53936W        W54800  24.208   1.651   2.815
53937W        W54801  24.226   1.405   2.366
53938W        W54802  22.670   1.740   2.506
53939W        W54803  24.860   3.385   2.419
53940W        W54804  24.642   0.289   3.251
53941W        W54805  22.347   0.431   3.079
53942W        W54806  22.656   1.465   2.043
53943W        W54807  23.094   1.373   0.340
53944W        W54808  21.971   2.882   2.809
53945W        W54809  23.463   1.760   2.119
53946W        W54810  23.332   0.805   0.355
53947W        W54811  22.640   1.679   1.188
53948W        W54812  22.092   3.524   2.444
53949W        W54813  24.852   1.836   0.501
53950W        W54814  25.122   0.533   3.179
53951W        W54815  24.592   2.682   1.242
53952W        W54816  22.038   1.663   3.333
53953W        W54817  25.062   0.178   0.580
53954W        W54818  24.543   2.608   0.739
53955W        W54819  23.277   1.685   0.770
53956W        W54820  24.708   0.492   0.270
53957W        W54821  24.834   1.035   2.525
53958W        W54822  22.338   1.515   1.600
53959W        W54823  22.799   2.595   1.366
53960W        W54824  24.510   1.212   1.237
53961W        W54825  23.581   0.755   1.955
53962W        W54826  25.446   2.500   2.457
53963W        W54827  25.480   0.738   2.197
53964W        W54828  21.990   3.240   1.376
53965W        W54829  22.253   2.498   0.775
53966W        W54830  22.432   0.408   3.584
53967W        W54831  23.286   3.022   3.531
53968W        W54832  25.285   1.929   1.453
53969W        W54833  24.537   2.219   0.413
53970W        W54834  23.989   3.628   2.423
53971W        W54835  24.712   2.279   3.466
53972W        W54836  23.462   0.033   0.798
53973W        W54837  24.288   0.956   1.654
53974W        W54838  22.032   2.597   2.007
53975W        W54839  23.271   0.586   0.828
53976W        W54840  23.066   2.056   3.374
53977W        W54841  24.042   1.042   1.197
53978W        W54842  24.133   2.468   2.364
53979W        W54843  22.403   3.098   2.613
53980W        W54844  22.795   2.977   3.414
53981W        W54845  22.848   0.883   0.619
53982W        W54846  24.387   0.976   0.780
53983W        W54847  24.296   3.027   2.964
53984W        W54848  23.089   1.587   1.772
53985W        W54849  22.559   3.414   2.251
53986W        W54850  25.325   3.369   0.144
53987W        W54851  22.129   2.173   3.304
53988W        W54852  24.224   2.363   1.872
53989W        W54853  22.608   2.208   1.071
53990W        W54854  22.917   3.062   2.381
53991W        W54855  23.414   0.462   1.563
53992W        W54856  23.589   1.245   0.246
53993W        W54857  22.198   1.936   1.301
53994W        W54858  23.329   0.505   2.966
53995W        W54859  25.194   0.381   0.132
53996W        W54860  25.196   2.064   3.327
53997W        W54861  23.966   3.388   3.395
53998W        W54862  25.429   2.381   2.975
53999W        W54863  24.926   3.055   3.501
54000W        W54864  22.714   3.636   1.834
54001W        W54865  25.397   2.266   1.066
54002W        W54866  24.064   1.518   1.439
54003W        W54867  23.684   0.326   1.144
54004W        W54868  22.827   3.069   1.174
54005W        W54869  23.305   0.968   2.388
54006W        W54870  23.032   0.258   1.855
54007W        W54871  22.159   3.466   0.389
54008W        W54872  23.808   2.357   1.150
54009W        W54873  22.831   3.202   2.919
54010W        W54874  22.293   1.924   0.785
54011W        W54875  22.075   0.711   1.833
54012W        W54876  23.690   2.504   1.760
54013W        W54877  21.849   0.519   0.862
54014W        W54878  24.669   1.512   2.626
54015W        W54879  24.505   0.962   0.260
54016W        W54880  25.088   2.606   2.007
54017W        W54881  23.625   3.013   1.807
54018W        W54882  23.111   3.299   0.815
54019W        W54883  24.270   0.082   0.257
54020W        W54884  22.173   3.344   1.897
54021W        W54885  24.203   1.078   3.495
54022W        W54886  22.361   0.913   3.603
54023W        W54887  22.170   1.476   1.048
54024W        W54888  22.842   1.369   0.812
54025W        W54889  24.347   1.536   3.307
54026W        W54890  22.954   1.951   2.115
54027W        W54891  24.240   0.220   1.278
54028W        W54892  23.561   3.487   1.634
54029W        W54893  24.641   2.938   2.577
54030W        W54894  24.491   2.952   1.679
54031W        W54895  24.353   2.211   1.379
54032W        W54896  23.740   0.456   0.625
54033W        W54897  25.416   0.103   1.239
54034W        W54898  22.946   1.857   0.174
54035W        W54899  25.233   1.012   1.319
54036W        W54900  23.821   2.115   0.243
54037W        W54901  24.895   2.311   2.984
54038W        W54902  24.527   3.180   0.416
54039W        W54903  23.247   0.862   3.331
54040W        W54904  23.098   1.467   2.330
54041W        W54905  25.079   2.777   2.875
54042W        W54906  24.250   0.725   3.103
54043W        W54907  21.946   1.318   2.914
54044W        W54908  23.770   1.795   2.547
54045W        W54909  22.256   2.467   1.343
54046W        W54910  22.213   1.721   2.062
54047W        W54911  24.643   2.030   2.608
54048W        W54912  24.491   3.361   3.336
54049W        W54913  24.100   1.084   2.758
54050W        W54914  24.739   3.300   1.350
54051W        W54915  23.577   2.981   2.715
54052W        W54916  23.157   3.325   1.943
54053W        W54917  24.896   2.475   2.479
54054W        W54918  23.824   2.536   3.590
54055W        W54919  22.500   2.485   1.806
54056W        W54920  24.878   2.236   1.263
54057W        W54921  24.431   3.203   2.176
54058W        W54922  22.447   2.925   2.116
54059W        W54923  23.676   1.124   3.472
54060W        W54924  23.874   3.143   0.899
54061W        W54925  23.323   2.517   3.420
54062W        W54926  23.233   2.814   0.995
54063W        W54927  22.597   1.470   0.215
54064W        W54928  21.856   3.727   7.036
54065W        W54929  22.379   2.590   6.570
54066W        W54930  25.012   2.171   4.330
54067W        W54931  25.266   3.256   6.280
54068W        W54932  22.901   3.299   3.834
54069W        W54933  23.109   1.457   4.730
54070W        W54934  22.628   1.331   4.960
54071W        W54935  23.660   2.020   4.354
54072W        W54936  23.377   3.325   6.608
54073W        W54937  21.981   0.798   6.637
54074W        W54938  22.715   0.004   6.465
54075W        W54939  24.606   0.488   5.434
54076W        W54940  24.133   1.197   4.029
54077W        W54941  24.796   0.809   7.013
54078W        W54942  22.081   0.521   6.184
54079W        W54943  22.126   3.305   7.110
54080W        W54944  23.413   2.685   3.916
54081W        W54945  22.134   1.184   5.601
54082W        W54946  23.108   1.421   6.815
54083W        W54947  25.415   0.985   5.389
54084W        W54948  25.122   2.041   6.184
54085W        W54949  23.551   1.513   5.307
54086W        W54950  24.226   2.844   5.753
54087W        W54951  22.475   2.096   5.941
54088W        W54952  21.827   1.621   5.534
54089W        W54953  23.026   1.746   6.429
54090W        W54954  25.275   1.553   6.901
54091W        W54955  22.691   2.786   5.273
54092W        W54956  24.019   2.684   6.236
54093W        W54957  23.386   1.166   5.657
54094W        W54958  23.344   1.983   5.267
54095W        W54959  24.252   2.996   7.026
54096W        W54960  23.464   2.071   7.142
54097W        W54961  23.490   1.911   6.647
54098W        W54962  21.873   1.179   6.989
54099W        W54963  24.663   2.709   6.840
54100W        W54964  22.329   0.258   4.744
54101W        W54965  22.848   2.511   5.771
54102W        W54966  25.353   2.348   5.131
54103W        W54967  25.033   0.780   5.669
54104W        W54968  25.165   0.903   3.598
54105W        W54969  25.682   1.531   6.069
54106W        W54970  23.494   3.167   5.817
54107W        W54971  25.163   2.667   4.276
54108W        W54972  22.255   3.618   4.293
54109W        W54973  22.606   3.514   4.693
54110W        W54974  22.597   0.393   6.107
54111W        W54975  25.166   1.481   6.309
54112W        W54976  24.479   1.726   4.953
54113W        W54977  24.508   1.531   3.887
54114W        W54978  23.744   2.676   5.788
54115W        W54979  23.701   1.013   5.283
54116W        W54980  24.005   3.189   6.084
54117W        W54981  24.947   1.798   4.707
54118W        W54982  23.826   0.467   4.692
54119W        W54983  22.584   3.207   4.283
54120W        W54984  21.988   0.613   4.884
54121W        W54985  24.492   1.353   5.312
54122W        W54986  22.184   2.886   5.355
54123W        W54987  23.370   3.238   4.013
54124W        W54988  24.763   1.263   3.489
54125W        W54989  22.041   2.936   5.852
54126W        W54990  22.804   2.593   6.276
54127W        W54991  22.982   1.973   4.846
54128W        W54992  23.221   0.520   6.000
54129W        W54993  25.487   0.267   5.523
54130W        W54994  22.599   2.113   3.600
54131W        W54995  22.508   1.047   4.079
54132W        W54996  22.355   2.808   4.862
54133W        W54997  23.330   2.350   4.853
54134W        W54998  24.818   3.215   6.547
54135W        W54999  23.786   0.907   4.364
54136W        W55000  25.218   3.362   5.207
54137W        W55001  24.847   1.280   6.673
54138W        W55002  25.479   2.607   4.675
54139W        W55003  24.136   2.187   6.409
54140W        W55004  21.918   1.579   4.688
54141W        W55005  22.990   2.124   6.058
54142W        W55006  24.065   1.318   4.523
54143W        W55007  24.011   1.794   4.692
54144W        W55008  22.458   1.266   6.018
54145W        W55009  22.362   1.157   6.785
54146W        W55010  22.212   0.206   5.234
54147W        W55011  24.163   0.553   5.685
54148W        W55012  23.793   0.649   6.940
54149W        W55013  24.247   0.427   4.094
54150W        W55014  25.282   3.146   6.793
54151W        W55015  24.129   0.246   6.953
54152W        W55016  25.172   2.656   6.956
54153W        W55017  24.733   0.793   6.482
54154W        W55018  24.379   0.610   4.931
54155W        W55019  24.870   1.777   7.159
54156W        W55020  22.470   3.256   5.126
54157W        W55021  23.313   1.074   4.416
54158W        W55022  22.765   0.327   6.899
54159W        W55023  24.767   0.844   4.685
54160W        W55024  25.046   1.233   4.510
54161W        W55025  22.943   3.285   6.987
54162W        W55026  22.854   0.120   4.262
54163W        W55027  25.141   0.521   5.228
54164W        W55028  25.373   2.887   3.778
54165W        W55029  22.139   2.028   5.409
54166W        W55030  24.277   0.563   3.591
54167W        W55031  25.452   2.944   5.505
54168W        W55032  25.374   0.292   6.052
54169W        W55033  23.954   1.435   6.742
54170W        W55034  23.569   2.517   4.398
54171W        W55035  24.379   1.909   7.173
54172W        W55036  23.955   0.095   5.528
54173W        W55037  22.579   1.013   5.380
54174W        W55038  22.128   2.195   6.348
54175W        W55039  23.861   3.352   5.082
54176W        W55040  25.334   1.185   5.880
54177W        W55041  23.957   3.417   6.542
54178W        W55042  25.047   2.053   3.828
54179W        W55043  23.494   1.819   4.809
54180W        W55044  25.519   0.279   6.540
54181W        W55045  23.785   2.230   6.044
54182W        W55046  23.895   0.978   5.777
54183W        W55047  24.567   1.211   4.325
54184W        W55048  24.940   1.210   3.967
54185W        W55049  25.000   2.998   4.619
54186W        W55050  24.527   2.458   5.500
54187W        W55051  24.466   1.700   4.433
54188W        W55052  23.864   1.916   5.185
54189W        W55053  24.831   1.735   5.364
54190W        W55054  22.388   0.789   5.843
54191W        W55055  24.895   1.810   6.641
54192W        W55056  25.346   3.358   5.771
54193W        W55057  23.181   2.863   5.119
54194W        W55058  24.427   3.470   6.284
54195W        W55059  24.249   0.783   6.168
54196W        W55060  23.617   3.573   6.172
54197W        W55061  25.140   0.486   4.655
54198W        W55062  25.063   1.658   5.841
54199W        W55063  22.020   1.019   6.138
54200W        W55064  24.752   0.913   5.201
54201W        W55065  25.261   1.054   6.869
54202W        W55066  24.078   2.675   5.266
54203W        W55067  23.414   3.229   4.849
54204W        W55068  22.514   0.482   4.087
54205W        W55069  23.502   0.103   5.821
54206W        W55070  22.425   3.497   3.809
54207W        W55071  23.172   1.826   4.351
54208W        W55072  23.674   2.424   6.543
54209W        W55073  23.456   0.793   4.868
54210W        W55074  24.777   0.260   4.969
54211W        W55075  24.698   3.502   5.382
54212W        W55076  23.925   3.326   5.592
54213W        W55077  23.361   2.225   5.717
54214W        W55078  25.123   2.911   5.916
54215W        W55079  22.785   0.473   4.617
54216W        W55080  23.271   2.738   5.620
54217W        W55081  22.870   0.785   3.705
54218W        W55082  23.681   1.432   5.978
54219W        W55083  24.472   0.178   5.865
54220W        W55084  21.953   2.016   5.889
54221W        W55085  23.526   1.736   3.930
54222W        W55086  22.898   0.285   3.780
54223W        W55087  23.588   1.286   4.844
54224W        W55088  24.446   0.329   6.378
54225W        W55089  23.164   2.274   6.507
54226W        W55090  23.952   1.995   6.869
54227W        W55091  24.507   2.199   6.769
54228W        W55092  23.766   0.302   7.334
54229W        W55093  23.041   0.797   5.586
54230W        W55094  22.510   0.691   4.993
54231W        W55095  22.122   3.259   4.691
54232W        W55096  23.797   2.943   6.748
54233W        W55097  22.752   2.012   4.103
54234W        W55098  24.319   1.841   5.440
54235W        W55099  24.565   1.509   5.777
54236W        W55100  23.730   1.850   5.682
54237W        W55101  24.333   2.449   3.782
54238W        W55102  23.927   0.518   5.204
54239W        W55103  25.504   0.889   4.511
54240W        W55104  22.168   3.342   6.581
54241W        W55105  22.325   2.567   6.053
54242W        W55106  21.670   3.367   4.339
54243W        W55107  23.764   0.518   6.023
54244W        W55108  22.987   2.890   4.136
54245W        W55109  25.309   3.163   4.252
54246W        W55110  24.028   1.687   4.149
54247W        W55111  22.919   0.959   4.731
54248W        W55112  23.885   0.790   3.831
54249W        W55113  24.156   2.577   6.729
54250W        W55114  24.655   0.417   4.444
54251W        W55115  22.061   0.242   3.922
54252W        W55116  23.315   2.557   6.108
54253W        W55117  23.049   2.395   5.303
54254W        W55118  22.905   2.558   3.732
54255W        W55119  21.839   2.886   4.433
54256W        W55120  22.594   1.655   6.743
54257W        W55121  23.258   0.221   7.190
54258W        W55122  23.957   0.420   6.485
54259W        W55123  23.131   0.137   4.758
54260W        W55124  24.212   0.134   4.568
54261W        W55125  22.236   0.290   5.754
54262W        W55126  22.127   1.089   4.985
54263W        W55127  24.994   0.255   5.701
54264W        W55128  22.370   0.756   4.501
54265W        W55129  24.716   0.593   6.012
54266W        W55130  25.243   1.574   3.783
54267W        W55131  22.636   0.501   5.490
54268W        W55132  23.874   0.952   6.494
54269W        W55133  22.074   0.759   4.014
54270W        W55134  22.647   2.120   6.451
54271W        W55135  24.040   1.431   5.585
54272W        W55136  23.814   3.523   3.992
54273W        W55137  22.045   1.910   3.802
54274W        W55138  22.819   2.497   6.808
54275W        W55139  22.345   1.717   6.289
54276W        W55140  23.429   1.865   6.133
54277W        W55141  24.961   0.251   6.360
54278W        W55142  25.475   1.842   6.517
54279W        W55143  25.422   1.907   4.175
54280W        W55144  24.168   2.160   4.351
54281W        W55145  24.789   3.488   3.745
54282W        W55146  24.031   1.547   7.263
54283W        W55147  22.403   2.597   7.104
54284W        W55148  25.564   0.697   7.040
54285W        W55149  24.972   1.264   5.517
54286W        W55150  23.341   3.559   7.175
54287W        W55151  23.323   0.184   4.054
54288W        W55152  24.931   2.560   3.829
54289W        W55153  22.805   0.907   6.840
54290W        W55154  23.127   2.869   6.580
54291W        W55155  25.187   0.753   6.200
54292W        W55156  24.902   3.506   4.245
54293W        W55157  24.686   2.027   5.765
54294W        W55158  22.928   0.563   6.458
54295W        W55159  23.565   1.577   7.032
54296W        W55160  22.601   2.685   4.411
54297W        W55161  24.587   2.160   4.656
54298W        W55162  22.462   0.822   6.396
54299W        W55163  23.653   2.762   4.876
54300W        W55164  25.465   1.369   5.038
54301W        W55165  23.638   0.174   6.837
54302W        W55166  24.704   2.952   5.604
54303W        W55167  23.762   3.048   3.729
54304W        W55168  22.024   2.861   6.870
54305W        W55169  22.868   0.917   6.066
54306W        W55170  22.713   0.218   5.075
54307W        W55171  24.515   0.975   5.705
54308W        W55172  23.235   2.175   3.916
54309W        W55173  25.168   2.092   5.556
54310W        W55174  22.530   3.022   6.814
54311W        W55175  25.180   3.544   4.677
54312W        W55176  23.027   0.612   5.102
54313W        W55177  22.591   2.190   5.141
54314W        W55178  23.150   3.547   5.785
54315W        W55179  24.988   3.566   6.906
54316W        W55180  24.205   1.858   5.950
54317W        W55181  22.194   1.390   3.756
54318W        W55182  25.505   3.131   4.744
54319W        W55183  25.000   0.773   4.228
54320W        W55184  23.172   0.155   6.646
54321W        W55185  25.211   2.849   5.061
54322W        W55186  24.920   1.371   4.999
54323W        W55187  23.174   1.125   5.173
54324W        W55188  23.508   1.419   6.473
54325W        W55189  24.536   2.562   6.376
54326W        W55190  23.185   1.007   6.506
54327W        W55191  22.968   3.382   5.083
54328W        W55192  22.521   3.556   6.894
54329W        W55193  22.497   2.967   3.839
54330W        W55194  24.990   2.480   4.747
54331W        W55195  22.753   1.280   6.437
54332W        W55196  25.413   1.243   4.153
54333W        W55197  23.056   2.350   4.393
54334W        W55198  24.343   1.745   6.619
54335W        W55199  24.180   1.325   6.089
54336W        W55200  22.773   1.673   5.995
54337W        W55201  24.873   3.467   5.982
54338W        W55202  24.688   0.313   6.840
54339W        W55203  22.321   0.312   6.581
54340W        W55204  22.881   1.298   5.665
54341W        W55205  23.205   1.199   3.727
54342W        W55206  21.979   2.851   6.361
54343W        W55207  23.233   1.686   5.698
54344W        W55208  23.377   0.752   3.966
54345W        W55209  22.667   1.671   4.521
54346W        W55210  22.165   3.469   6.086
54347W        W55211  24.943   1.667   4.203
54348W        W55212  25.141   0.577   6.716
54349W        W55213  24.703   2.760   5.111
54350W        W55214  22.087   1.838   6.738
54351W        W55215  25.108   0.265   4.146
54352W        W55216  24.645   2.526   4.268
54353W        W55217  23.595   1.516   4.399
54354W        W55218  24.718   0.470   3.880
54355W        W55219  24.849   1.124   6.061
54356W        W55220  22.189   1.558   5.178
54357W        W55221  22.845   2.533   4.849
54358W        W55222  24.437   1.183   4.842
54359W        W55223  23.534   0.597   5.562
54360W        W55224  25.405   2.491   6.106
54361W        W55225  25.541   0.704   5.810
54362W        W55226  21.954   3.345   5.199
54363W        W55227  22.116   2.445   4.573
54364W        W55228  22.490   0.262   7.336
54365W        W55229  23.384   3.041   7.043
54366W        W55230  25.272   1.835   5.110
54367W        W55231  24.581   2.042   4.050
54368W        W55232  24.079   3.710   5.925
54369W        W55233  24.843   2.299   7.152
54370W        W55234  23.574   0.056   4.487
54371W        W55235  24.209   0.935   5.307
54372W        W55236  21.889   2.484   5.558
54373W        W55237  23.310   0.526   4.457
54374W        W55238  23.002   1.963   6.890
54375W        W55239  23.972   0.932   4.853
54376W        W55240  24.321   2.365   5.959
54377W        W55241  22.459   3.026   6.266
54378W        W55242  22.942   2.818   7.200
54379W        W55243  22.922   0.782   4.224
54380W        W55244  24.283   0.804   4.451
54381W        W55245  24.308   3.023   6.514
54382W        W55246  22.990   1.607   5.236
54383W        W55247  22.681   3.409   5.977
54384W        W55248  25.297   3.407   3.782
54385W        W55249  22.013   2.351   6.829
54386W        W55250  24.018   2.258   5.562
54387W        W55251  22.583   2.187   4.580
54388W        W55252  23.035   3.016   6.053
54389W        W55253  23.464   0.319   5.101
54390W        W55254  21.833   2.258   4.152
54391W        W55255  23.634   1.229   3.983
54392W        W55256  22.209   1.973   4.865
54393W        W55257  23.473   0.570   6.462
54394W        W55258  25.188   0.377   3.653
54395W        W55259  25.265   2.059   6.951
54396W        W55260  23.814   3.404   7.038
54397W        W55261  25.482   2.385   6.622
54398W        W55262  24.861   3.111   7.100
54399W        W55263  22.725   3.599   5.492
54400W        W55264  25.394   2.093   4.673
54401W        W55265  24.033   1.422   5.068
54402W        W55266  23.847  28.999   4.945
54403W        W55267  22.788   3.037   4.763
54404W        W55268  23.502   0.957   6.113
54405W        W55269  23.111   0.254   5.499
54406W        W55270  22.048   3.207   4.029
54407W        W55271  23.836   2.270   4.803
54408W        W55272  22.835   3.304   6.486
54409W        W55273  22.200   1.912   4.344
54410W        W55274  22.168   0.692   5.374
54411W        W55275  23.597   2.440   5.299
54412W        W55276  21.969   0.417   4.396
54413W        W55277  24.645   1.543   6.269
54414W        W55278  24.529   0.933   3.873
54415W        W55279  25.055   2.590   5.492
54416W        W55280  23.649   2.960   5.353
54417W        W55281  23.086   3.317   4.452
54418W        W55282  24.302   0.068   3.715
54419W        W55283  22.286   3.342   5.601
54420W        W55284  24.091   1.058   7.048
54421W        W55285  22.367   0.652   6.973
54422W        W55286  22.146   1.370   4.277
54423W        W55287  22.951   1.360   4.169
54424W        W55288  24.459   1.422   7.002
54425W        W55289  22.834   2.000   5.570
54426W        W55290  24.295   0.138   5.124
54427W        W55291  23.408   3.415   5.345
54428W        W55292  24.634   2.994   6.109
54429W        W55293  24.326   3.139   5.294
54430W        W55294  24.289   2.216   5.086
54431W        W55295  23.746   0.435   4.180
54432W        W55296  25.429   0.087   4.821
54433W        W55297  23.024   1.700   3.751
54434W        W55298  25.209   0.936   4.924
54435W        W55299  23.908   2.119   3.895
54436W        W55300  24.967   2.318   6.600
54437W        W55301  24.879   3.034   4.019
54438W        W55302  23.242   0.645   6.901
54439W        W55303  23.164   1.356   6.101
54440W        W55304  25.049   2.779   6.416
54441W        W55305  24.307   0.692   6.752
54442W        W55306  21.999   1.370   6.504
54443W        W55307  23.890   1.747   6.339
54444W        W55308  22.116   2.425   5.096
54445W        W55309  22.365   1.653   5.677
54446W        W55310  24.614   2.059   6.274
54447W        W55311  24.458   3.437   6.826
54448W        W55312  24.358   1.170   6.549
54449W        W55313  24.766   3.323   4.920
54450W        W55314  23.572   2.966   6.284
54451W        W55315  22.973   3.140   5.536
54452W        W55316  24.859   2.470   5.980
54453W        W55317  23.799   2.473   7.080
54454W        W55318  22.399   2.451   5.550
54455W        W55319  24.832   2.200   5.150
54456W        W55320  24.408   3.339   5.777
54457W        W55321  22.557   2.934   5.761
54458W        W55322  23.547   1.087   6.869
54459W        W55323  23.623   3.051   4.411
54460W        W55324  23.321   2.536   6.923
54461W        W55325  23.205   2.810   4.599
54462W        W55326  22.707   1.280   3.658
54463W        W55327  21.960   3.667  10.663
54464W        W55328  22.415   2.536  10.347
54465W        W55329  25.376   1.986   8.189
54466W        W55330  25.362   3.319   9.941
54467W        W55331  22.905   3.314   7.495
54468W        W55332  23.145   1.535   8.522
54469W        W55333  22.782   1.229   8.742
54470W        W55334  23.745   1.957   8.042
54471W        W55335  23.511   3.233  10.271
54472W        W55336  21.970   0.887  10.308
54473W        W55337  22.441   0.201  10.067
54474W        W55338  24.416   0.458   9.026
54475W        W55339  24.116   1.202   7.658
54476W        W55340  24.641   0.952  10.639
54477W        W55341  22.081   0.551   9.890
54478W        W55342  22.199   3.242  10.860
54479W        W55343  23.388   2.652   7.431
54480W        W55344  22.113   1.239   9.325
54481W        W55345  23.056   1.324  10.527
54482W        W55346  25.364   1.002   9.064
54483W        W55347  25.266   2.120   9.857
54484W        W55348  23.504   1.560   8.962
54485W        W55349  24.176   2.811   9.277
54486W        W55350  22.496   2.216   9.615
54487W        W55351  21.887   1.680   9.218
54488W        W55352  23.065   1.727  10.178
54489W        W55353  25.275   1.517  10.541
54490W        W55354  22.759   2.910   8.949
54491W        W55355  24.012   2.610   9.960
54492W        W55356  23.164   1.192   9.220
54493W        W55357  23.303   2.029   8.976
54494W        W55358  24.275   2.880  10.724
54495W        W55359  23.660   2.008  10.791
54496W        W55360  23.574   1.799  10.304
54497W        W55361  21.828   1.184  10.747
54498W        W55362  24.740   2.833  10.451
54499W        W55363  22.292   0.346   8.382
54500W        W55364  22.895   2.572   9.537
54501W        W55365  25.468   2.435   8.952
54502W        W55366  25.061   0.722   9.379
54503W        W55367  25.206   0.926   7.376
54504W        W55368  25.662   1.548   9.732
54505W        W55369  23.391   3.329   9.518
54506W        W55370  25.454   2.520   8.116
54507W        W55371  22.235   3.525   7.980
54508W        W55372  22.631   3.422   8.338
54509W        W55373  22.659   0.459   9.679
54510W        W55374  25.266   1.390  10.033
54511W        W55375  24.530   1.681   8.590
54512W        W55376  24.547   1.521   7.524
54513W        W55377  23.755   2.605   9.494
54514W        W55378  23.715   1.111   9.101
54515W        W55379  24.237   3.013   9.731
54516W        W55380  25.040   1.734   8.487
54517W        W55381  23.853   0.475   8.379
54518W        W55382  22.567   3.146   7.875
54519W        W55383  21.914   0.654   8.639
54520W        W55384  24.487   1.364   9.037
54521W        W55385  22.245   2.898   9.019
54522W        W55386  23.395   3.182   7.554
54523W        W55387  24.906   1.279   7.190
54524W        W55388  22.116   3.062   9.731
54525W        W55389  22.860   2.618  10.062
54526W        W55390  22.979   2.033   8.571
54527W        W55391  23.187   0.482   9.782
54528W        W55392  25.454   0.305   9.158
54529W        W55393  22.480   2.119   6.937
54530W        W55394  22.280   1.046   7.298
54531W        W55395  22.440   2.935   8.512
54532W        W55396  23.330   2.406   8.603
54533W        W55397  24.934   3.296  10.227
54534W        W55398  24.075   0.868   8.102
54535W        W55399  25.190   3.544   8.852
54536W        W55400  24.794   1.409  10.393
54537W        W55401  25.632   2.759   8.578
54538W        W55402  24.169   2.130  10.048
54539W        W55403  21.573   1.900   8.408
54540W        W55404  23.008   2.152   9.793
54541W        W55405  24.250   1.373   8.131
54542W        W55406  24.041   1.769   8.426
54543W        W55407  22.406   1.328   9.741
54544W        W55408  22.341   1.270  10.428
54545W        W55409  22.184   0.261   8.883
54546W        W55410  24.065   0.564   9.396
54547W        W55411  23.818   0.682  10.611
54548W        W55412  24.324   0.508   7.755
54549W        W55413  25.393   3.220  10.475
54550W        W55414  24.155   0.233  10.590
54551W        W55415  25.175   2.614  10.643
54552W        W55416  24.758   0.713  10.181
54553W        W55417  24.307   0.664   8.557
54554W        W55418  24.869   1.817  10.749
54555W        W55419  22.493   3.336   8.846
54556W        W55420  23.646   0.924   7.807
54557W        W55421  22.780   0.432  10.650
54558W        W55422  24.768   0.860   8.391
54559W        W55423  25.310   1.373   8.196
54560W        W55424  23.203   3.438  10.666
54561W        W55425  22.834   0.351   7.795
54562W        W55426  25.131   0.564   8.861
54563W        W55427  25.679   2.713   7.634
54564W        W55428  22.137   2.153   9.132
54565W        W55429  24.417   0.532   7.242
54566W        W55430  25.468   2.922   9.163
54567W        W55431  25.247   0.295   9.646
54568W        W55432  23.945   1.414  10.341
54569W        W55433  23.640   2.490   8.060
54570W        W55434  24.150   2.005  10.988
54571W        W55435  23.968   0.099   9.167
54572W        W55436  22.595   1.015   9.163
54573W        W55437  22.199   2.190  10.038
54574W        W55438  24.107   3.218   8.939
54575W        W55439  25.320   1.162   9.572
54576W        W55440  23.980   3.358  10.029
54577W        W55441  25.190   2.039   7.468
54578W        W55442  23.508   1.901   8.524
54579W        W55443  25.486   0.302  10.104
54580W        W55444  23.706   2.212   9.833
54581W        W55445  23.913   1.026   9.587
54582W        W55446  24.784   1.346   8.207
54583W        W55447  24.955   1.231   7.715
54584W        W55448  25.052   2.795   8.278
54585W        W55449  24.518   2.468   9.088
54586W        W55450  24.560   1.765   8.024
54587W        W55451  23.872   1.940   8.894
54588W        W55452  24.991   1.665   9.052
54589W        W55453  22.324   0.826   9.547
54590W        W55454  25.027   1.831  10.216
54591W        W55455  25.388   3.364   9.407
54592W        W55456  23.259   2.914   8.836
54593W        W55457  24.491   3.417   9.975
54594W        W55458  24.297   0.721   9.858
54595W        W55459  23.614   3.655   9.835
54596W        W55460  25.164   0.515   8.336
54597W        W55461  25.149   1.683   9.593
54598W        W55462  21.973   1.081   9.836
54599W        W55463  24.706   0.860   8.907
54600W        W55464  25.137   1.032  10.379
54601W        W55465  24.091   2.622   8.812
54602W        W55466  23.409   3.293   8.491
54603W        W55467  22.277   0.642   7.652
54604W        W55468  23.510   0.195   9.456
54605W        W55469  22.440   3.531   7.478
54606W        W55470  23.333   1.650   8.061
54607W        W55471  23.749   2.300  10.356
54608W        W55472  23.452   0.624   8.674
54609W        W55473  24.731   0.350   8.600
54610W        W55474  24.690   3.564   8.991
54611W        W55475  23.894   3.251   9.416
54612W        W55476  23.350   2.269   9.432
54613W        W55477  25.166   2.936   9.612
54614W        W55478  22.852   0.593   8.298
54615W        W55479  23.301   2.841   9.364
54616W        W55480  22.900   0.635   7.301
54617W        W55481  23.579   1.412   9.506
54618W        W55482  24.417   0.175   9.453
54619W        W55483  21.958   2.102   9.603
54620W        W55484  23.612   1.685   7.555
54621W        W55485  23.658   1.422   8.467
54622W        W55486  24.466   0.270  10.163
54623W        W55487  23.255   2.239  10.223
54624W        W55488  24.057   1.894  10.488
54625W        W55489  24.558   2.001  10.382
54626W        W55490  23.824   0.331  10.988
54627W        W55491  23.010   0.678   9.335
54628W        W55492  22.437   0.754   8.713
54629W        W55493  22.135   3.372   8.474
54630W        W55494  23.828   2.806  10.392
54631W        W55495  22.979   2.371   7.791
54632W        W55496  24.372   1.870   9.072
54633W        W55497  24.641   1.625   9.441
54634W        W55498  23.718   1.904   9.388
54635W        W55499  24.318   2.429   7.196
54636W        W55500  23.907   0.542   8.899
54637W        W55501  25.572   0.909   8.180
54638W        W55502  22.246   3.362  10.362
54639W        W55503  22.377   2.637   9.855
54640W        W55504  21.727   3.400   7.939
54641W        W55505  23.694   0.580   9.747
54642W        W55506  23.005   2.872   7.730
54643W        W55507  25.279   2.984   7.839
54644W        W55508  24.117   1.729   7.752
54645W        W55509  23.348   1.115   8.195
54646W        W55510  23.987   0.751   7.443
54647W        W55511  24.235   2.396  10.521
54648W        W55512  24.743   0.480   8.051
54649W        W55513  22.006   0.238   7.513
54650W        W55514  23.335   2.595   9.837
54651W        W55515  23.070   2.486   9.049
54652W        W55516  23.013   2.307   7.275
54653W        W55517  22.065   3.033   8.108
54654W        W55518  22.675   1.693  10.524
54655W        W55519  23.267   0.379  10.865
54656W        W55520  23.948   0.400  10.141
54657W        W55521  23.174   0.228   8.471
54658W        W55522  24.132   0.129   8.099
54659W        W55523  22.054   0.351   9.397
54660W        W55524  22.094   1.179   8.760
54661W        W55525  24.906   0.251   9.249
54662W        W55526  22.038   0.752   8.141
54663W        W55527  24.746   0.478   9.712
54664W        W55528  25.294   1.520   7.421
54665W        W55529  22.542   0.503   9.177
54666W        W55530  23.887   0.931  10.118
54667W        W55531  21.738   0.640   7.708
54668W        W55532  22.699   2.113  10.204
54669W        W55533  24.067   1.501   9.341
54670W        W55534  23.716   3.597   7.562
54671W        W55535  22.046   2.020   7.233
54672W        W55536  22.895   2.462  10.552
54673W        W55537  22.320   1.699  10.145
54674W        W55538  23.400   1.817   9.814
54675W        W55539  24.974   0.213  10.079
54676W        W55540  25.552   1.824  10.186
54677W        W55541  25.585   1.680   7.829
54678W        W55542  24.228   2.149   8.140
54679W        W55543  24.659   3.597   7.297
54680W        W55544  23.948   1.530  10.934
54681W        W55545  22.485   2.521  10.862
54682W        W55546  25.562   0.606  10.819
54683W        W55547  24.909   1.201   9.268
54684W        W55548  23.667   3.563  10.821
54685W        W55549  23.351   0.277   7.703
54686W        W55550  25.558   2.378   7.220
54687W        W55551  22.702   0.928  10.485
54688W        W55552  23.304   2.753  10.339
54689W        W55553  25.245   0.740   9.932
54690W        W55554  25.156   3.413   7.562
54691W        W55555  24.726   2.125   9.387
54692W        W55556  22.834   0.556  10.154
54693W        W55557  23.462   1.527  10.756
54694W        W55558  22.658   2.683   8.116
54695W        W55559  24.736   2.126   8.341
54696W        W55560  22.432   0.896  10.052
54697W        W55561  23.656   2.795   8.525
54698W        W55562  25.372   1.425   8.760
54699W        W55563  23.644   0.213  10.518
54700W        W55564  24.665   2.848   9.440
54701W        W55565  24.984   3.156   9.160
54702W        W55566  23.811   2.948   7.303
54703W        W55567  22.058   2.741  10.699
54704W        W55568  22.806   0.979   9.695
54705W        W55569  22.711   0.313   8.720
54706W        W55570  24.527   0.832   9.393
54707W        W55571  23.455   2.178   7.655
54708W        W55572  25.213   2.089   9.255
54709W        W55573  22.545   2.967  10.568
54710W        W55574  25.053   3.626   8.346
54711W        W55575  22.957   0.754   8.828
54712W        W55576  22.559   2.049   8.873
54713W        W55577  23.004   3.625   9.693
54714W        W55578  25.123   3.665  10.533
54715W        W55579  24.250   1.933   9.582
54716W        W55580  22.220   1.537   7.122
54717W        W55581  25.356   3.196   8.443
54718W        W55582  25.164   0.781   7.892
54719W        W55583  23.152   0.196  10.378
54720W        W55584  25.148   2.821   8.779
54721W        W55585  24.876   1.296   8.712
54722W        W55586  23.337   1.113   8.738
54723W        W55587  23.531   1.333  10.022
54724W        W55588  24.519   2.505  10.108
54725W        W55589  23.130   0.992  10.120
54726W        W55590  23.011   3.396   8.809
54727W        W55591  22.680   3.450  10.661
54728W        W55592  22.501   3.039   7.346
54729W        W55593  25.175   2.340   8.529
54730W        W55594  22.738   1.329  10.122
54731W        W55595  25.496   1.168   7.744
54732W        W55596  23.264   2.151   8.153
54733W        W55597  24.342   1.645  10.092
54734W        W55598  24.371   1.251   9.689
54735W        W55599  22.705   1.752   9.802
54736W        W55600  24.905   3.386   9.649
54737W        W55601  24.680   0.414  10.623
54738W        W55602  22.314   0.534  10.437
54739W        W55603  22.747   1.453   9.379
54740W        W55604  23.165   1.091   7.215
54741W        W55605  22.066   2.896  10.213
54742W        W55606  23.204   1.717   9.366
54743W        W55607  23.462   0.700   7.366
54744W        W55608  22.594   1.675   8.523
54745W        W55609  22.171   3.562   9.895
54746W        W55610  25.054   1.720   7.870
54747W        W55611  25.170   0.528  10.442
54748W        W55612  24.711   2.570   8.626
54749W        W55613  22.069   1.640  10.644
54750W        W55614  25.133   0.268   7.732
54751W        W55615  25.038   2.260   7.923
54752W        W55616  23.762   1.401   7.966
54753W        W55617  24.804   0.638   7.553
54754W        W55618  24.839   1.012   9.766
54755W        W55619  22.400   1.534   8.986
54756W        W55620  22.808   2.535   8.602
54757W        W55621  24.388   1.167   8.572
54758W        W55622  23.522   0.658   9.235
54759W        W55623  25.495   2.579   9.781
54760W        W55624  25.562   0.694   9.502
54761W        W55625  21.895   3.310   8.913
54762W        W55626  22.146   2.543   8.230
54763W        W55627  22.351   0.456  10.951
54764W        W55628  23.540   3.019  10.758
54765W        W55629  25.404   1.933   8.801
54766W        W55630  24.684   2.025   7.589
54767W        W55631  24.128   3.661   9.635
54768W        W55632  24.737   2.340  10.708
54769W        W55633  23.572   0.101   8.158
54770W        W55634  24.194   0.947   9.016
54771W        W55635  22.126   2.579   9.425
54772W        W55636  23.395   0.588   8.149
54773W        W55637  23.166   1.945  10.631
54774W        W55638  23.867   0.968   8.596
54775W        W55639  24.379   2.449   9.618
54776W        W55640  22.539   3.061  10.058
54777W        W55641  23.031   2.934  10.779
54778W        W55642  23.136   0.788   7.752
54779W        W55643  24.551   0.967   7.908
54780W        W55644  24.293   2.974  10.227
54781W        W55645  22.915   1.678   8.952
54782W        W55646  22.575   3.371   9.658
54783W        W55647  25.373   3.023   7.307
54784W        W55648  22.294   2.085  10.548
54785W        W55649  24.070   2.276   9.236
54786W        W55650  22.512   2.182   8.363
54787W        W55651  23.001   3.046   9.776
54788W        W55652  23.184   0.316   8.989
54789W        W55653  21.911   2.527   7.307
54790W        W55654  23.681   1.181   7.358
54791W        W55655  22.075   1.868   8.706
54792W        W55656  23.463   0.606  10.220
54793W        W55657  25.154   0.443   7.219
54794W        W55658  25.309   2.056  10.595
54795W        W55659  23.976   3.274  10.527
54796W        W55660  25.502   2.422  10.276
54797W        W55661  24.949   3.216  10.746
54798W        W55662  22.641   3.663   9.233
54799W        W55663  25.682   2.241   8.507
54800W        W55664  24.023   1.439   8.829
54801W        W55665  23.629   0.126   8.742
54802W        W55666  22.940   3.031   8.449
54803W        W55667  23.361   0.960   9.648
54804W        W55668  22.982   0.137   9.421
54805W        W55669  22.072   3.186   7.609
54806W        W55670  23.840   2.284   8.497
54807W        W55671  22.979   3.157  10.299
54808W        W55672  22.037   2.009   8.209
54809W        W55673  22.089   0.770   9.098
54810W        W55674  23.636   2.411   9.007
54811W        W55675  21.882   0.270   8.040
54812W        W55676  24.784   1.499   9.902
54813W        W55677  24.498   1.023   7.380
54814W        W55678  25.028   2.573   9.215
54815W        W55679  23.720   2.905   9.061
54816W        W55680  23.074   3.289   8.014
54817W        W55681  24.229   0.079   7.439
54818W        W55682  22.231   3.328   9.292
54819W        W55683  24.124   1.089  10.701
54820W        W55684  22.288   0.945  10.805
54821W        W55685  21.865   1.484   8.300
54822W        W55686  23.298   1.288   7.686
54823W        W55687  24.391   1.543  10.657
54824W        W55688  22.860   2.076   9.293
54825W        W55689  24.180   0.167   8.655
54826W        W55690  23.496   3.360   9.012
54827W        W55691  24.724   2.946   9.929
54828W        W55692  24.556   2.961   8.947
54829W        W55693  24.325   2.174   8.669
54830W        W55694  23.817   0.451   7.845
54831W        W55695  25.460   0.115   8.452
54832W        W55696  23.137   1.639   7.300
54833W        W55697  25.239   0.973   8.557
54834W        W55698  23.928   2.066   7.393
54835W        W55699  24.983   2.342  10.245
54836W        W55700  25.180   2.565   7.510
54837W        W55701  23.167   0.798  10.613
54838W        W55702  23.098   1.398   9.756
54839W        W55703  25.183   2.830  10.146
54840W        W55704  24.280   0.694  10.382
54841W        W55705  21.897   1.383  10.237
54842W        W55706  23.890   1.681   9.856
54843W        W55707  22.279   2.470   8.726
54844W        W55708  22.342   1.768   9.435
54845W        W55709  24.678   2.032   9.884
54846W        W55710  24.504   3.350  10.513
54847W        W55711  24.398   1.145  10.197
54848W        W55712  24.860   3.220   8.621
54849W        W55713  23.670   2.997   9.826
54850W        W55714  22.937   3.240   9.296
54851W        W55715  24.914   2.490   9.739
54852W        W55716  23.862   2.542  10.849
54853W        W55717  22.556   2.481   9.156
54854W        W55718  24.832   2.110   8.860
54855W        W55719  24.430   3.299   9.355
54856W        W55720  22.537   2.918   9.443
54857W        W55721  23.550   1.102  10.482
54858W        W55722  23.509   3.018   8.044
54859W        W55723  23.370   2.435  10.737
54860W        W55724  23.169   2.662   8.191
54861W        W55725  22.709   1.331   7.137
54862W        W55726  21.959   3.641  14.377
54863W        W55727  22.290   2.529  13.767
54864W        W55728  25.061   1.991  11.529
54865W        W55729  25.312   3.308  13.630
54866W        W55730  22.979   3.346  11.117
54867W        W55731  23.215   1.388  11.998
54868W        W55732  22.795   1.408  12.337
54869W        W55733  23.576   1.975  11.683
54870W        W55734  23.426   3.268  13.985
54871W        W55735  21.932   0.838  13.933
54872W        W55736  22.521   0.196  13.745
54873W        W55737  24.529   0.583  12.623
54874W        W55738  24.062   1.256  11.418
54875W        W55739  24.564   1.006  14.322
54876W        W55740  22.151   0.543  13.532
54877W        W55741  22.195   3.163  14.436
54878W        W55742  23.463   2.688  11.188
54879W        W55743  22.061   1.206  12.965
54880W        W55744  23.105   1.409  14.150
54881W        W55745  25.362   1.088  12.686
54882W        W55746  25.217   2.127  13.564
54883W        W55747  23.681   1.276  12.669
54884W        W55748  24.121   2.762  12.871
54885W        W55749  22.603   2.101  13.056
54886W        W55750  21.799   1.627  12.832
54887W        W55751  23.059   1.783  13.783
54888W        W55752  25.307   1.553  14.202
54889W        W55753  22.718   2.912  12.544
54890W        W55754  23.972   2.632  13.711
54891W        W55755  23.255   1.319  12.946
54892W        W55756  23.359   2.090  12.527
54893W        W55757  24.251   2.929  14.387
54894W        W55758  23.631   2.058  14.485
54895W        W55759  23.560   1.899  13.931
54896W        W55760  21.890   1.183  14.334
54897W        W55761  24.686   2.770  14.131
54898W        W55762  22.401   0.293  11.961
54899W        W55763  22.886   2.560  13.114
54900W        W55764  25.420   2.462  12.564
54901W        W55765  24.896   0.915  12.888
54902W        W55766  25.099   0.859  10.867
54903W        W55767  25.721   1.596  13.309
54904W        W55768  23.471   3.184  13.136
54905W        W55769  25.194   2.496  11.556
54906W        W55770  22.276   3.623  11.622
54907W        W55771  22.641   3.487  11.971
54908W        W55772  22.714   0.473  13.277
54909W        W55773  25.260   1.306  13.681
54910W        W55774  24.465   1.688  12.144
54911W        W55775  24.412   1.570  11.176
54912W        W55776  23.748   2.649  13.208
54913W        W55777  23.675   0.803  12.439
54914W        W55778  24.152   2.953  13.377
54915W        W55779  25.268   1.784  11.960
54916W        W55780  23.648   0.481  12.036
54917W        W55781  22.589   3.154  11.581
54918W        W55782  21.982   0.603  12.168
54919W        W55783  24.579   1.340  12.535
54920W        W55784  22.218   2.914  12.655
54921W        W55785  23.468   3.285  11.207
54922W        W55786  24.896   1.323  10.889
54923W        W55787  22.092   2.938  13.173
54924W        W55788  22.799   2.605  13.629
54925W        W55789  23.182   1.899  12.014
54926W        W55790  23.229   0.544  13.340
54927W        W55791  25.460   0.276  12.783
54928W        W55792  22.738   2.071  10.880
54929W        W55793  22.346   0.931  11.312
54930W        W55794  22.342   2.902  12.135
54931W        W55795  23.151   2.393  12.144
54932W        W55796  24.870   3.232  13.929
54933W        W55797  23.691   0.925  11.652
54934W        W55798  25.148   3.486  12.680
54935W        W55799  24.787   1.365  13.959
54936W        W55800  25.576   2.892  12.317
54937W        W55801  24.160   2.160  13.718
54938W        W55802  21.993   1.618  12.021
54939W        W55803  22.991   2.154  13.408
54940W        W55804  24.081   1.465  11.884
54941W        W55805  24.080   1.987  11.942
54942W        W55806  22.380   1.321  13.413
54943W        W55807  22.359   1.308  14.125
54944W        W55808  22.235   0.241  12.461
54945W        W55809  23.994   0.556  12.878
54946W        W55810  23.726   0.607  14.258
54947W        W55811  24.250   0.406  11.342
54948W        W55812  25.332   3.148  14.150
54949W        W55813  24.139   0.274  14.273
54950W        W55814  25.157   2.649  14.301
54951W        W55815  24.715   0.843  13.848
54952W        W55816  24.487   0.636  12.107
54953W        W55817  24.832   1.832  14.436
54954W        W55818  22.442   3.338  12.424
54955W        W55819  23.216   1.098  11.550
54956W        W55820  22.789   0.448  14.263
54957W        W55821  24.838   0.930  11.852
54958W        W55822  25.162   1.319  11.695
54959W        W55823  23.030   3.454  14.286
54960W        W55824  22.852   0.217  11.659
54961W        W55825  25.277   0.633  12.474
54962W        W55826  25.343   2.963  10.996
54963W        W55827  22.177   2.051  12.719
54964W        W55828  24.284   0.622  10.881
54965W        W55829  25.403   2.927  12.813
54966W        W55830  25.241   0.309  13.315
54967W        W55831  23.926   1.483  13.996
54968W        W55832  23.621   2.508  11.678
54969W        W55833  24.354   2.011  14.578
54970W        W55834  24.078   0.063  12.721
54971W        W55835  22.479   1.092  12.667
54972W        W55836  22.225   2.069  13.454
54973W        W55837  23.931   3.443  12.482
54974W        W55838  25.215   1.189  13.182
54975W        W55839  23.956   3.370  13.831
54976W        W55840  25.115   2.229  11.056
54977W        W55841  23.662   1.725  12.138
54978W        W55842  25.426   0.355  13.821
54979W        W55843  23.653   2.255  13.550
54980W        W55844  23.935   1.043  13.058
54981W        W55845  24.554   1.318  11.629
54982W        W55846  24.890   1.021  11.348
54983W        W55847  25.216   2.839  11.942
54984W        W55848  24.573   2.641  12.604
54985W        W55849  24.510   1.832  11.633
54986W        W55850  23.901   1.955  12.544
54987W        W55851  24.883   1.782  12.437
54988W        W55852  22.382   0.854  13.151
54989W        W55853  24.982   1.830  13.909
54990W        W55854  25.435   3.356  13.087
54991W        W55855  23.211   2.895  12.424
54992W        W55856  24.462   3.454  13.688
54993W        W55857  24.276   0.763  13.549
54994W        W55858  23.549   3.548  13.541
54995W        W55859  25.190   0.536  11.821
54996W        W55860  25.211   1.687  13.301
54997W        W55861  21.982   1.024  13.453
54998W        W55862  24.845   0.921  12.372
54999W        W55863  25.153   1.045  14.111
55000W        W55864  24.065   2.545  12.379
55001W        W55865  23.397   3.269  12.122
55002W        W55866  22.404   0.410  11.454
55003W        W55867  23.583   0.265  13.056
55004W        W55868  22.508   3.501  11.171
55005W        W55869  23.158   1.639  11.539
55006W        W55870  23.713   2.367  14.048
55007W        W55871  23.310   0.880  12.039
55008W        W55872  24.883   0.361  12.302
55009W        W55873  24.672   3.572  12.814
55010W        W55874  23.955   3.240  12.974
55011W        W55875  23.350   2.239  13.048
55012W        W55876  25.165   2.951  13.276
55013W        W55877  22.862   0.612  11.992
55014W        W55878  23.322   2.747  12.919
55015W        W55879  22.752   0.811  10.993
55016W        W55880  23.666   1.425  13.254
55017W        W55881  24.442   0.312  13.052
55018W        W55882  21.801   2.052  13.145
55019W        W55883  23.554   1.722  11.221
55020W        W55884  22.834   0.327  11.157
55021W        W55885  23.683   1.222  12.143
55022W        W55886  24.487   0.376  13.883
55023W        W55887  23.175   2.284  13.870
55024W        W55888  24.032   1.957  14.166
55025W        W55889  24.535   2.053  14.077
55026W        W55890  23.830   0.351  14.701
55027W        W55891  23.002   0.861  12.959
55028W        W55892  22.467   0.718  12.301
55029W        W55893  22.065   3.343  12.034
55030W        W55894  23.815   2.925  14.110
55031W        W55895  22.785   1.969  11.400
55032W        W55896  24.451   1.811  12.724
55033W        W55897  24.523   1.379  13.036
55034W        W55898  23.857   2.073  13.113
55035W        W55899  24.361   2.475  11.039
55036W        W55900  24.083   0.470  12.379
55037W        W55901  25.547   0.985  11.669
55038W        W55902  22.161   3.381  13.950
55039W        W55903  22.399   2.533  13.268
55040W        W55904  21.685   3.334  11.644
55041W        W55905  23.775   0.643  13.354
55042W        W55906  23.039   2.914  11.378
55043W        W55907  25.213   3.203  11.489
55044W        W55908  24.006   1.763  11.453
55045W        W55909  22.796   1.107  11.881
55046W        W55910  23.934   0.815  11.186
55047W        W55911  24.238   2.469  14.148
55048W        W55912  24.677   0.477  11.658
55049W        W55913  22.020   0.117  11.238
55050W        W55914  23.289   2.601  13.437
55051W        W55915  23.005   2.453  12.633
55052W        W55916  22.953   2.515  11.079
55053W        W55917  21.949   2.892  11.778
55054W        W55918  22.685   1.737  14.160
55055W        W55919  23.347   0.329  14.490
55056W        W55920  23.964   0.407  13.790
55057W        W55921  23.188   0.215  12.083
55058W        W55922  24.125   0.370  11.846
55059W        W55923  22.255   0.350  13.061
55060W        W55924  22.083   1.094  12.294
55061W        W55925  24.961   0.394  12.868
55062W        W55926  22.369   0.796  11.807
55063W        W55927  24.751   0.542  13.384
55064W        W55928  25.316   1.714  11.016
55065W        W55929  22.627   0.580  12.765
55066W        W55930  23.840   1.060  13.660
55067W        W55931  21.938   0.614  11.252
55068W        W55932  22.648   2.122  13.790
55069W        W55933  24.035   1.574  12.927
55070W        W55934  23.873   3.650  11.293
55071W        W55935  21.954   1.899  11.070
55072W        W55936  22.900   2.717  14.120
55073W        W55937  22.322   1.689  13.786
55074W        W55938  23.401   1.841  13.390
55075W        W55939  24.932   0.179  13.714
55076W        W55940  25.509   1.752  13.758
55077W        W55941  25.515   1.626  11.487
55078W        W55942  24.203   2.230  11.473
55079W        W55943  24.721   3.688  10.874
55080W        W55944  23.995   1.641  14.575
55081W        W55945  22.440   2.649  14.433
55082W        W55946  25.498   0.704  14.306
55083W        W55947  24.994   1.465  12.821
55084W        W55948  23.501   3.444  14.479
55085W        W55949  23.307   0.151  11.350
55086W        W55950  24.796   2.778  10.978
55087W        W55951  22.766   0.967  14.122
55088W        W55952  23.369   2.759  13.919
55089W        W55953  25.182   0.785  13.542
55090W        W55954  24.961   3.677  11.329
55091W        W55955  24.660   2.224  13.052
55092W        W55956  22.885   0.595  13.764
55093W        W55957  23.552   1.559  14.339
55094W        W55958  22.730   2.642  11.725
55095W        W55959  24.824   2.041  11.998
55096W        W55960  22.416   0.927  13.751
55097W        W55961  23.629   2.768  12.144
55098W        W55962  25.304   1.474  12.374
55099W        W55963  23.673   0.094  14.115
55100W        W55964  24.572   2.742  13.109
55101W        W55965  24.869   3.079  12.856
55102W        W55966  23.957   3.168  11.038
55103W        W55967  21.994   2.738  14.156
55104W        W55968  22.813   0.984  13.418
55105W        W55969  22.738   0.274  12.349
55106W        W55970  24.410   0.847  13.053
55107W        W55971  23.237   2.102  11.130
55108W        W55972  25.097   1.996  12.887
55109W        W55973  22.445   2.960  14.019
55110W        W55974  24.980   3.701  12.005
55111W        W55975  23.156   0.571  12.480
55112W        W55976  22.838   2.005  12.399
55113W        W55977  23.142   3.589  13.160
55114W        W55978  25.067   3.602  14.207
55115W        W55979  24.319   1.863  13.259
55116W        W55980  22.178   1.391  11.092
55117W        W55981  25.290   3.299  12.186
55118W        W55982  25.287   0.679  11.309
55119W        W55983  23.195   0.246  13.997
55120W        W55984  25.056   2.824  12.439
55121W        W55985  24.877   1.388  12.103
55122W        W55986  23.216   1.081  12.496
55123W        W55987  23.479   1.438  13.741
55124W        W55988  24.495   2.559  13.696
55125W        W55989  23.153   1.046  13.797
55126W        W55990  22.964   3.390  12.400
55127W        W55991  22.522   3.537  14.289
55128W        W55992  22.601   2.984  11.085
55129W        W55993  25.263   2.317  12.069
55130W        W55994  22.738   1.364  13.782
55131W        W55995  25.336   1.217  11.204
55132W        W55996  23.146   2.304  11.610
55133W        W55997  24.354   1.687  13.779
55134W        W55998  24.179   1.358  13.408
55135W        W55999  22.679   1.742  13.415
55136W        W56000  24.943   3.427  13.249
55137W        W56001  24.621   0.460  14.383
55138W        W56002  22.302   0.514  14.086
55139W        W56003  22.735   1.349  13.038
55140W        W56004  23.137   1.144  11.013
55141W        W56005  21.999   2.955  13.686
55142W        W56006  23.540   1.754  12.878
55143W        W56007  23.406   0.730  11.211
55144W        W56008  22.736   1.627  11.844
55145W        W56009  22.126   3.426  13.438
55146W        W56010  24.905   1.563  11.326
55147W        W56011  25.041   0.550  14.104
55148W        W56012  24.780   2.554  12.080
55149W        W56013  22.036   1.684  14.282
55150W        W56014  25.041   0.223  11.394
55151W        W56015  24.693   2.347  11.590
55152W        W56016  23.619   1.446  11.666
55153W        W56017  24.723   0.574  11.143
55154W        W56018  24.747   1.067  13.391
55155W        W56019  22.201   1.556  12.517
55156W        W56020  22.646   2.498  12.245
55157W        W56021  24.420   1.145  12.099
55158W        W56022  23.501   0.762  12.911
55159W        W56023  25.462   2.553  13.429
55160W        W56024  25.394   0.719  13.045
55161W        W56025  21.924   3.333  12.551
55162W        W56026  22.266   2.435  11.871
55163W        W56027  22.383   0.437  14.613
55164W        W56028  23.271   2.985  14.409
55165W        W56029  25.369   1.969  12.443
55166W        W56030  24.644   2.037  11.169
55167W        W56031  24.059   3.556  13.366
55168W        W56032  24.767   2.340  14.433
55169W        W56033  23.608   0.040  11.781
55170W        W56034  24.167   0.973  12.560
55171W        W56035  22.011   2.493  12.905
55172W        W56036  23.270   0.541  11.671
55173W        W56037  23.176   1.934  14.266
55174W        W56038  24.014   0.850  12.043
55175W        W56039  24.211   2.419  13.284
55176W        W56040  22.484   3.008  13.523
55177W        W56041  22.718   3.086  14.432
55178W        W56042  22.817   0.744  11.495
55179W        W56043  24.318   0.849  11.621
55180W        W56044  24.305   3.002  13.882
55181W        W56045  23.272   1.591  12.471
55182W        W56046  22.654   3.426  13.284
55183W        W56047  25.321   3.470  11.005
55184W        W56048  22.211   2.126  14.077
55185W        W56049  24.221   2.269  12.794
55186W        W56050  22.729   2.141  11.892
55187W        W56051  23.002   3.028  13.359
55188W        W56052  23.605   0.300  12.536
55189W        W56053  21.908   2.254  11.467
55190W        W56054  23.605   1.215  11.190
55191W        W56055  22.322   2.003  12.210
55192W        W56056  23.495   0.668  13.788
55193W        W56057  25.126   0.357  10.913
55194W        W56058  25.251   2.097  14.300
55195W        W56059  23.983   3.385  14.339
55196W        W56060  25.462   2.413  13.939
55197W        W56061  24.912   3.113  14.442
55198W        W56062  22.704   3.632  12.820
55199W        W56063  25.765   2.012  12.106
55200W        W56064  24.079   1.475  12.407
55201W        W56065  23.907   0.025  12.211
55202W        W56066  22.829   3.020  12.067
55203W        W56067  23.401   1.014  13.356
55204W        W56068  23.083   0.271  12.915
55205W        W56069  22.099   3.211  11.361
55206W        W56070  23.665   2.247  12.144
55207W        W56071  22.905   3.171  13.861
55208W        W56072  22.278   1.916  11.687
55209W        W56073  22.121   0.705  12.684
55210W        W56074  23.711   2.424  12.730
55211W        W56075  21.944   0.339  11.707
55212W        W56076  24.743   1.575  13.473
55213W        W56077  24.436   1.051  11.123
55214W        W56078  25.039   2.569  12.915
55215W        W56079  23.703   2.947  12.628
55216W        W56080  23.078   3.292  11.714
55217W        W56081  24.248  28.968  11.058
55218W        W56082  22.270   3.362  12.929
55219W        W56083  24.048   1.151  14.385
55220W        W56084  22.363   0.917  14.438
55221W        W56085  22.123   1.305  11.622
55222W        W56086  22.756   1.283  11.376
55223W        W56087  24.414   1.541  14.284
55224W        W56088  23.035   1.799  13.008
55225W        W56089  24.433   0.099  12.170
55226W        W56090  23.440   3.392  12.646
55227W        W56091  24.702   3.004  13.519
55228W        W56092  24.370   3.171  12.653
55229W        W56093  24.445   2.173  12.334
55230W        W56094  23.746   0.435  11.491
55231W        W56095  25.397   0.192  12.177
55232W        W56096  23.017   1.642  11.028
55233W        W56097  25.288   1.029  12.121
55234W        W56098  23.733   2.221  11.251
55235W        W56099  24.932   2.352  13.934
55236W        W56100  24.503   3.237  11.027
55237W        W56101  23.211   0.733  14.211
55238W        W56102  23.090   1.426  13.411
55239W        W56103  25.125   2.809  13.791
55240W        W56104  24.194   0.747  14.092
55241W        W56105  21.927   1.346  13.845
55242W        W56106  23.887   1.767  13.554
55243W        W56107  22.133   2.462  12.375
55244W        W56108  22.296   1.674  13.046
55245W        W56109  24.668   2.084  13.568
55246W        W56110  24.492   3.395  14.233
55247W        W56111  24.319   1.182  13.875
55248W        W56112  24.795   3.301  12.367
55249W        W56113  23.662   3.020  13.581
55250W        W56114  23.019   3.181  12.865
55251W        W56115  24.922   2.516  13.417
55252W        W56116  23.859   2.534  14.500
55253W        W56117  22.501   2.493  12.749
55254W        W56118  24.937   2.287  12.488
55255W        W56119  24.456   3.269  13.151
55256W        W56120  22.584   2.962  13.028
55257W        W56121  23.587   1.088  14.114
55258W        W56122  23.581   3.077  11.661
55259W        W56123  23.307   2.458  14.341
55260W        W56124  23.213   2.790  11.844
55261W        W56125  22.650   1.304  10.862
55262W        W56126  21.872   3.695  17.963
55263W        W56127  22.365   2.561  17.508
55264W        W56128  25.116   2.196  15.274
55265W        W56129  25.228   3.303  17.290
55266W        W56130  22.938   3.315  14.827
55267W        W56131  23.095   1.410  15.647
55268W        W56132  22.689   1.244  15.949
55269W        W56133  23.583   2.103  15.403
55270W        W56134  23.393   3.320  17.646
55271W        W56135  21.973   0.874  17.568
55272W        W56136  22.591   0.147  17.437
55273W        W56137  24.538   0.527  16.295
55274W        W56138  24.149   1.257  14.898
55275W        W56139  24.679   0.885  17.951
55276W        W56140  22.086   0.529  17.174
55277W        W56141  22.054   3.224  18.101
55278W        W56142  23.426   2.655  14.808
55279W        W56143  22.053   1.204  16.561
55280W        W56144  23.025   1.301  17.849
55281W        W56145  25.379   0.993  16.268
55282W        W56146  25.114   2.040  17.088
55283W        W56147  23.588   1.473  16.218
55284W        W56148  24.093   2.787  16.600
55285W        W56149  22.385   2.059  16.854
55286W        W56150  21.744   1.637  16.522
55287W        W56151  23.070   1.673  17.472
55288W        W56152  25.180   1.529  17.807
55289W        W56153  22.787   2.789  16.274
55290W        W56154  23.962   2.663  17.265
55291W        W56155  23.339   1.193  16.562
55292W        W56156  23.413   2.022  16.224
55293W        W56157  24.186   2.977  18.021
55294W        W56158  23.569   2.038  18.010
55295W        W56159  23.715   1.893  17.524
55296W        W56160  21.807   1.200  17.948
55297W        W56161  24.669   2.734  17.775
55298W        W56162  22.295   0.158  15.711
55299W        W56163  22.870   2.507  16.791
55300W        W56164  25.282   2.432  16.155
55301W        W56165  24.989   0.741  16.512
55302W        W56166  24.997   0.830  14.570
55303W        W56167  25.529   1.506  17.020
55304W        W56168  23.493   3.175  16.749
55305W        W56169  25.200   2.722  15.173
55306W        W56170  22.212   3.488  15.309
55307W        W56171  22.812   3.618  15.640
55308W        W56172  22.696   0.449  16.949
55309W        W56173  25.078   1.367  17.306
55310W        W56174  24.462   1.696  15.787
55311W        W56175  24.570   1.572  14.813
55312W        W56176  23.658   2.685  16.837
55313W        W56177  23.662   0.914  16.128
55314W        W56178  23.978   3.107  17.034
55315W        W56179  25.133   1.828  15.674
55316W        W56180  23.970   0.410  15.627
55317W        W56181  22.663   3.231  15.310
55318W        W56182  22.061   0.595  15.786
55319W        W56183  24.530   1.364  16.172
55320W        W56184  22.265   2.858  16.411
55321W        W56185  23.409   3.175  14.919
55322W        W56186  24.911   1.337  14.483
55323W        W56187  22.018   2.934  16.871
55324W        W56188  22.800   2.676  17.273
55325W        W56189  23.030   2.068  15.865
55326W        W56190  23.213   0.571  16.983
55327W        W56191  25.598   0.159  16.278
55328W        W56192  22.779   2.254  14.292
55329W        W56193  22.323   0.912  14.957
55330W        W56194  22.366   2.875  15.909
55331W        W56195  23.292   2.521  15.973
55332W        W56196  24.813   3.255  17.642
55333W        W56197  23.807   1.053  15.230
55334W        W56198  25.100   3.430  16.291
55335W        W56199  24.715   1.352  17.676
55336W        W56200  25.503   2.846  15.917
55337W        W56201  24.142   2.164  17.395
55338W        W56202  21.846   1.596  15.637
55339W        W56203  22.953   2.138  17.129
55340W        W56204  24.131   1.409  15.403
55341W        W56205  23.995   1.864  15.611
55342W        W56206  22.433   1.273  16.955
55343W        W56207  22.281   1.274  17.712
55344W        W56208  22.181   0.215  16.202
55345W        W56209  24.158   0.634  16.619
55346W        W56210  23.771   0.647  17.865
55347W        W56211  24.188   0.431  15.122
55348W        W56212  25.327   3.298  17.824
55349W        W56213  24.134   0.236  17.816
55350W        W56214  25.489   2.426  18.115
55351W        W56215  24.712   0.877  17.431
55352W        W56216  24.406   0.651  15.802
55353W        W56217  24.844   1.846  18.070
55354W        W56218  22.572   3.252  16.246
55355W        W56219  23.309   0.995  15.298
55356W        W56220  22.778   0.412  17.875
55357W        W56221  24.805   0.883  15.506
55358W        W56222  25.289   1.385  15.441
55359W        W56223  22.844   3.327  17.926
55360W        W56224  22.824   0.109  15.216
55361W        W56225  25.273   0.519  16.088
55362W        W56226  25.347   2.902  14.700
55363W        W56227  22.129   2.014  16.392
55364W        W56228  24.235   0.693  14.639
55365W        W56229  25.340   2.926  16.411
55366W        W56230  25.328   0.283  17.033
55367W        W56231  23.933   1.439  17.675
55368W        W56232  23.558   2.625  15.319
55369W        W56233  24.377   1.921  18.276
55370W        W56234  24.225   0.132  16.461
55371W        W56235  22.506   1.057  16.388
55372W        W56236  22.113   2.180  17.259
55373W        W56237  23.927   3.288  16.048
55374W        W56238  25.237   1.099  16.850
55375W        W56239  23.907   3.402  17.479
55376W        W56240  25.201   2.344  14.767
55377W        W56241  23.485   1.760  15.793
55378W        W56242  25.450   0.282  17.535
55379W        W56243  23.726   2.230  17.094
55380W        W56244  23.833   1.034  16.603
55381W        W56245  24.641   1.316  15.280
55382W        W56246  25.067   1.237  14.969
55383W        W56247  24.910   2.991  15.522
55384W        W56248  24.538   2.613  16.314
55385W        W56249  24.465   1.797  15.278
55386W        W56250  23.921   1.881  16.139
55387W        W56251  24.927   1.721  16.165
55388W        W56252  22.334   0.795  16.794
55389W        W56253  24.876   1.830  17.530
55390W        W56254  25.347   3.341  16.729
55391W        W56255  23.230   3.019  16.102
55392W        W56256  24.476   3.485  17.282
55393W        W56257  24.285   0.773  17.112
55394W        W56258  23.547   3.505  17.135
55395W        W56259  25.161   0.510  15.559
55396W        W56260  25.034   1.595  16.847
55397W        W56261  21.989   1.045  17.079
55398W        W56262  24.799   0.917  16.050
55399W        W56263  25.126   1.041  17.730
55400W        W56264  24.070   2.666  16.092
55401W        W56265  23.444   3.364  15.794
55402W        W56266  22.407   0.428  15.128
55403W        W56267  23.743   0.244  16.582
55404W        W56268  22.453   3.478  14.819
55405W        W56269  23.123   1.868  15.391
55406W        W56270  23.686   2.409  17.607
55407W        W56271  23.494   0.689  15.676
55408W        W56272  24.824   0.345  15.909
55409W        W56273  24.600   3.535  16.398
55410W        W56274  23.952   3.312  16.567
55411W        W56275  23.319   2.230  16.727
55412W        W56276  25.165   2.919  16.938
55413W        W56277  22.702   0.447  15.565
55414W        W56278  23.248   2.727  16.527
55415W        W56279  22.842   0.824  14.615
55416W        W56280  23.700   1.476  16.846
55417W        W56281  24.625   0.280  16.769
55418W        W56282  21.830   2.040  16.839
55419W        W56283  23.484   1.859  14.949
55420W        W56284  22.907   0.340  14.775
55421W        W56285  23.563   1.224  15.729
55422W        W56286  24.460   0.382  17.415
55423W        W56287  23.265   2.150  17.532
55424W        W56288  24.051   2.092  17.898
55425W        W56289  24.539   2.196  17.789
55426W        W56290  23.772   0.315  18.251
55427W        W56291  22.963   0.849  16.526
55428W        W56292  22.544   0.729  15.972
55429W        W56293  22.375   3.374  15.779
55430W        W56294  23.787   2.923  17.680
55431W        W56295  22.767   2.435  15.067
55432W        W56296  24.437   1.862  16.293
55433W        W56297  24.575   1.511  16.652
55434W        W56298  23.759   1.959  16.633
55435W        W56299  24.356   2.518  14.693
55436W        W56300  24.009   0.501  16.141
55437W        W56301  25.555   0.959  15.326
55438W        W56302  22.086   3.337  17.588
55439W        W56303  22.361   2.563  16.980
55440W        W56304  21.712   3.357  15.222
55441W        W56305  23.763   0.622  16.952
55442W        W56306  23.033   2.879  15.115
55443W        W56307  24.971   3.182  15.001
55444W        W56308  23.992   1.795  15.067
55445W        W56309  22.955   0.885  15.652
55446W        W56310  23.751   0.876  14.726
55447W        W56311  24.173   2.564  17.726
55448W        W56312  24.643   0.396  15.412
55449W        W56313  22.069   0.097  14.870
55450W        W56314  23.295   2.523  17.161
55451W        W56315  22.990   2.310  16.325
55452W        W56316  22.930   2.665  14.638
55453W        W56317  22.214   2.974  15.419
55454W        W56318  22.633   1.650  17.766
55455W        W56319  23.285   0.337  18.012
55456W        W56320  23.941   0.468  17.403
55457W        W56321  23.125   0.185  15.754
55458W        W56322  24.257   0.015  15.447
55459W        W56323  22.241   0.289  16.733
55460W        W56324  22.172   1.078  15.957
55461W        W56325  25.126   0.237  16.530
55462W        W56326  22.415   0.875  15.486
55463W        W56327  24.929   0.628  17.023
55464W        W56328  25.250   1.687  14.718
55465W        W56329  22.586   0.520  16.436
55466W        W56330  23.853   0.982  17.362
55467W        W56331  21.916   0.574  14.906
55468W        W56332  22.577   2.069  17.466
55469W        W56333  24.079   1.484  16.446
55470W        W56334  23.820   3.525  14.889
55471W        W56335  22.080   1.853  14.800
55472W        W56336  22.855   2.418  17.715
55473W        W56337  22.267   1.668  17.371
55474W        W56338  23.391   1.852  17.094
55475W        W56339  24.928   0.186  17.351
55476W        W56340  25.405   1.797  17.428
55477W        W56341  25.473   1.831  15.194
55478W        W56342  24.277   2.249  15.142
55479W        W56343  24.791   3.571  14.632
55480W        W56344  23.928   1.653  18.138
55481W        W56345  22.463   2.575  18.015
55482W        W56346  25.463   0.686  17.885
55483W        W56347  24.978   1.270  16.423
55484W        W56348  23.297   3.440  18.170
55485W        W56349  23.401   0.149  14.974
55486W        W56350  24.840   2.724  14.773
55487W        W56351  22.656   0.921  17.763
55488W        W56352  23.239   2.781  17.602
55489W        W56353  25.331   0.761  17.333
55490W        W56354  24.556   3.603  15.083
55491W        W56355  24.635   2.213  16.654
55492W        W56356  22.894   0.611  17.408
55493W        W56357  23.446   1.585  17.849
55494W        W56358  22.681   2.720  15.502
55495W        W56359  24.711   2.129  15.599
55496W        W56360  22.435   0.868  17.309
55497W        W56361  23.666   2.858  15.824
55498W        W56362  25.326   1.436  16.003
55499W        W56363  23.647   0.163  17.702
55500W        W56364  24.548   2.740  16.809
55501W        W56365  24.839   3.075  16.547
55502W        W56366  23.783   3.019  14.625
55503W        W56367  21.998   2.738  17.879
55504W        W56368  22.851   0.964  17.007
55505W        W56369  22.682   0.235  16.026
55506W        W56370  24.532   0.994  16.542
55507W        W56371  23.143   2.188  14.743
55508W        W56372  25.129   2.056  16.527
55509W        W56373  22.471   3.023  17.735
55510W        W56374  24.979   3.644  15.573
55511W        W56375  23.043   0.600  16.080
55512W        W56376  22.622   1.945  16.203
55513W        W56377  23.180   3.606  16.799
55514W        W56378  25.134   3.800  17.918
55515W        W56379  24.248   1.875  16.796
55516W        W56380  22.227   1.366  14.676
55517W        W56381  25.229   3.263  15.820
55518W        W56382  25.118   0.734  15.087
55519W        W56383  23.130   0.162  17.536
55520W        W56384  24.964   2.858  16.071
55521W        W56385  24.880   1.368  15.762
55522W        W56386  23.178   1.108  16.081
55523W        W56387  23.537   1.423  17.349
55524W        W56388  24.481   2.576  17.319
55525W        W56389  23.157   1.061  17.419
55526W        W56390  23.016   3.497  16.093
55527W        W56391  22.394   3.588  17.953
55528W        W56392  22.550   2.934  14.900
55529W        W56393  25.104   2.527  15.674
55530W        W56394  22.706   1.299  17.399
55531W        W56395  25.568   1.366  14.994
55532W        W56396  23.112   2.403  15.471
55533W        W56397  24.357   1.739  17.622
55534W        W56398  24.203   1.249  16.899
55535W        W56399  22.695   1.698  17.076
55536W        W56400  24.876   3.465  16.924
55537W        W56401  24.615   0.362  17.929
55538W        W56402  22.279   0.488  17.715
55539W        W56403  22.855   1.392  16.583
55540W        W56404  23.293   1.114  14.540
55541W        W56405  21.970   2.853  17.385
55542W        W56406  23.296   1.702  16.606
55543W        W56407  23.282   0.694  14.864
55544W        W56408  22.664   1.716  15.741
55545W        W56409  22.159   3.537  17.117
55546W        W56410  24.966   1.709  15.171
55547W        W56411  25.015   0.551  17.692
55548W        W56412  24.599   2.609  15.792
55549W        W56413  21.979   1.692  17.813
55550W        W56414  25.123   0.211  15.072
55551W        W56415  24.722   2.535  15.262
55552W        W56416  23.619   1.550  15.341
55553W        W56417  24.687   0.497  14.900
55554W        W56418  24.733   1.130  16.986
55555W        W56419  22.260   1.571  16.094
55556W        W56420  22.629   2.416  15.949
55557W        W56421  24.424   1.154  15.730
55558W        W56422  23.449   0.674  16.531
55559W        W56423  25.426   2.470  17.044
55560W        W56424  25.480   0.661  16.718
55561W        W56425  22.052   3.266  16.176
55562W        W56426  22.190   2.473  15.578
55563W        W56427  22.322   0.427  18.240
55564W        W56428  23.437   2.952  18.056
55565W        W56429  25.441   1.936  16.100
55566W        W56430  24.739   2.112  14.913
55567W        W56431  24.056   3.612  17.001
55568W        W56432  24.956   2.365  18.049
55569W        W56433  23.563   0.136  15.477
55570W        W56434  24.179   0.984  16.179
55571W        W56435  21.989   2.468  16.603
55572W        W56436  23.183   0.468  15.328
55573W        W56437  23.034   1.951  17.942
55574W        W56438  23.972   0.920  15.702
55575W        W56439  24.201   2.374  16.920
55576W        W56440  22.415   3.059  17.219
55577W        W56441  22.932   2.835  18.030
55578W        W56442  22.809   0.749  15.135
55579W        W56443  24.316   0.901  15.288
55580W        W56444  24.285   3.029  17.489
55581W        W56445  23.057   1.622  16.140
55582W        W56446  22.731   3.401  16.977
55583W        W56447  25.283   3.408  14.659
55584W        W56448  22.158   2.180  17.787
55585W        W56449  24.152   2.268  16.424
55586W        W56450  22.632   2.173  15.501
55587W        W56451  23.085   2.970  16.971
55588W        W56452  23.509   0.387  16.091
55589W        W56453  21.935   2.262  15.116
55590W        W56454  23.630   1.373  14.842
55591W        W56455  22.243   2.028  15.854
55592W        W56456  23.439   0.624  17.461
55593W        W56457  25.234   0.388  14.600
55594W        W56458  25.298   2.022  17.874
55595W        W56459  23.791   3.341  17.994
55596W        W56460  25.456   2.429  17.575
55597W        W56461  25.146   2.840  18.024
55598W        W56462  22.731   3.665  16.522
55599W        W56463  25.509   2.191  15.649
55600W        W56464  24.018   1.417  15.919
55601W        W56465  23.849   0.001  16.034
55602W        W56466  22.814   3.116  15.808
55603W        W56467  23.468   1.022  17.018
55604W        W56468  23.060   0.302  16.528
55605W        W56469  22.074   3.149  14.942
55606W        W56470  23.748   2.287  15.871
55607W        W56471  22.936   3.162  17.428
55608W        W56472  22.198   1.878  15.360
55609W        W56473  22.104   0.706  16.327
55610W        W56474  23.668   2.434  16.376
55611W        W56475  21.957   0.300  15.342
55612W        W56476  24.586   1.587  17.166
55613W        W56477  24.607   1.019  14.849
55614W        W56478  25.000   2.572  16.559
55615W        W56479  23.680   2.942  16.335
55616W        W56480  23.160   3.364  15.337
55617W        W56481  24.338   0.134  14.733
55618W        W56482  22.270   3.349  16.650
55619W        W56483  24.016   1.083  18.029
55620W        W56484  22.243   0.930  18.087
55621W        W56485  22.098   1.355  15.223
55622W        W56486  22.989   1.199  14.949
55623W        W56487  24.382   1.441  18.053
55624W        W56488  22.852   1.948  16.657
55625W        W56489  24.347   0.154  15.941
55626W        W56490  23.489   3.457  16.315
55627W        W56491  24.726   3.031  17.187
55628W        W56492  24.361   3.098  16.286
55629W        W56493  24.290   2.198  15.921
55630W        W56494  23.683   0.553  15.180
55631W        W56495  25.509   0.158  15.727
55632W        W56496  23.146   1.603  14.656
55633W        W56497  25.243   0.972  15.768
55634W        W56498  23.785   2.281  14.947
55635W        W56499  24.955   2.332  17.531
55636W        W56500  24.493   3.179  14.757
55637W        W56501  23.138   0.796  17.877
55638W        W56502  23.127   1.410  17.020
55639W        W56503  25.106   2.827  17.488
55640W        W56504  24.249   0.784  17.665
55641W        W56505  21.845   1.361  17.441
55642W        W56506  24.040   1.648  17.209
55643W        W56507  22.133   2.457  16.105
55644W        W56508  22.391   1.619  16.589
55645W        W56509  24.597   2.097  17.170
55646W        W56510  24.318   3.464  17.791
55647W        W56511  24.311   1.223  17.400
55648W        W56512  24.725   3.313  15.941
55649W        W56513  23.527   2.996  17.243
55650W        W56514  23.011   3.210  16.524
55651W        W56515  24.911   2.503  17.060
55652W        W56516  23.796   2.561  18.081
55653W        W56517  22.494   2.389  16.468
55654W        W56518  24.805   2.223  16.114
55655W        W56519  24.415   3.256  16.802
55656W        W56520  22.618   2.955  16.751
55657W        W56521  23.543   1.092  17.762
55658W        W56522  23.640   3.145  15.374
55659W        W56523  23.294   2.449  17.979
55660W        W56524  23.214   2.904  15.592
55661W        W56525  22.727   1.319  14.500
55662W        W56526  21.881   3.717  21.642
55663W        W56527  22.259   2.623  21.075
55664W        W56528  25.097   2.120  18.897
55665W        W56529  25.442   3.328  20.833
55666W        W56530  22.891   3.303  18.476
55667W        W56531  23.358   1.358  19.246
55668W        W56532  22.805   1.594  19.830
55669W        W56533  23.730   2.027  18.943
55670W        W56534  23.414   3.248  21.396
55671W        W56535  21.987   0.841  21.253
55672W        W56536  22.647   0.183  21.082
55673W        W56537  24.509   0.469  19.970
55674W        W56538  24.018   1.283  18.519
55675W        W56539  24.727   0.766  21.713
55676W        W56540  22.124   0.517  20.830
55677W        W56541  22.065   3.232  21.750
55678W        W56542  23.415   2.592  18.456
55679W        W56543  22.058   1.181  20.289
55680W        W56544  23.182   1.385  21.362
55681W        W56545  25.412   1.010  19.960
55682W        W56546  25.154   2.022  20.698
55683W        W56547  23.693   1.427  19.884
55684W        W56548  24.143   2.759  20.255
55685W        W56549  22.546   2.178  20.423
55686W        W56550  21.801   1.610  20.166
55687W        W56551  23.079   1.780  21.041
55688W        W56552  25.237   1.543  21.417
55689W        W56553  22.776   2.950  19.865
55690W        W56554  23.889   2.681  21.027
55691W        W56555  23.203   1.412  20.136
55692W        W56556  23.433   2.247  19.771
55693W        W56557  24.361   3.152  21.716
55694W        W56558  23.540   2.094  21.793
55695W        W56559  23.553   1.889  21.241
55696W        W56560  21.847   1.154  21.645
55697W        W56561  24.647   2.783  21.430
55698W        W56562  22.356   0.231  19.343
55699W        W56563  22.867   2.610  20.408
55700W        W56564  25.462   2.398  19.858
55701W        W56565  25.015   0.791  20.235
55702W        W56566  25.119   0.907  18.245
55703W        W56567  25.630   1.542  20.624
55704W        W56568  23.431   3.287  20.480
55705W        W56569  25.355   2.590  19.030
55706W        W56570  22.262   3.445  18.987
55707W        W56571  22.642   3.451  19.343
55708W        W56572  22.711   0.449  20.579
55709W        W56573  25.161   1.491  20.864
55710W        W56574  24.600   1.713  19.493
55711W        W56575  24.492   1.479  18.562
55712W        W56576  23.707   2.740  20.531
55713W        W56577  23.734   0.915  19.771
55714W        W56578  24.163   2.984  20.719
55715W        W56579  25.107   1.786  19.308
55716W        W56580  23.694   0.366  19.299
55717W        W56581  22.662   3.116  18.918
55718W        W56582  22.002   0.610  19.486
55719W        W56583  24.514   1.328  19.854
55720W        W56584  22.223   2.978  19.933
55721W        W56585  23.345   3.090  18.548
55722W        W56586  24.870   1.345  18.186
55723W        W56587  22.046   3.033  20.434
55724W        W56588  22.745   2.655  20.891
55725W        W56589  23.350   2.047  19.314
55726W        W56590  23.210   0.621  20.581
55727W        W56591  25.470   0.217  20.082
55728W        W56592  22.307   0.853  18.596
55729W        W56593  22.442   2.983  19.447
55730W        W56594  23.137   2.508  19.406
55731W        W56595  24.994   3.349  21.080
55732W        W56596  23.927   0.953  18.918
55733W        W56597  25.179   3.230  19.784
55734W        W56598  24.751   1.402  21.200
55735W        W56599  25.512   2.766  19.499
55736W        W56600  24.085   2.182  21.096
55737W        W56601  21.646   1.708  19.265
55738W        W56602  22.984   2.195  20.697
55739W        W56603  24.200   1.437  19.023
55740W        W56604  24.189   1.922  19.196
55741W        W56605  22.390   1.306  20.696
55742W        W56606  22.353   1.268  21.336
55743W        W56607  22.276   0.210  19.842
55744W        W56608  24.072   0.536  20.290
55745W        W56609  23.849   0.673  21.565
55746W        W56610  24.237   0.584  18.652
55747W        W56611  25.423   3.260  21.358
55748W        W56612  24.146   0.241  21.510
55749W        W56613  25.129   2.656  21.662
55750W        W56614  24.739   0.789  21.097
55751W        W56615  24.537   0.605  19.412
55752W        W56616  24.845   1.755  21.672
55753W        W56617  22.518   3.403  19.874
55754W        W56618  23.436   0.979  18.781
55755W        W56619  22.768   0.452  21.534
55756W        W56620  24.866   0.949  19.155
55757W        W56621  25.210   1.343  19.052
55758W        W56622  22.945   3.395  21.557
55759W        W56623  22.844   0.080  18.874
55760W        W56624  25.243   0.561  19.792
55761W        W56625  25.572   2.869  18.357
55762W        W56626  22.003   2.076  20.112
55763W        W56627  24.217   0.617  18.146
55764W        W56628  25.450   2.878  20.069
55765W        W56629  25.276   0.296  20.627
55766W        W56630  23.890   1.499  21.320
55767W        W56631  23.747   2.568  18.863
55768W        W56632  24.417   1.916  21.925
55769W        W56633  24.098   0.024  20.071
55770W        W56634  22.549   1.055  20.029
55771W        W56635  22.222   2.166  20.823
55772W        W56636  23.995   3.074  19.450
55773W        W56637  25.284   1.194  20.441
55774W        W56638  23.935   3.383  21.017
55775W        W56639  25.207   2.068  18.392
55776W        W56640  23.729   1.722  19.369
55777W        W56641  25.450   0.304  21.124
55778W        W56642  23.627   2.276  20.842
55779W        W56643  23.936   1.061  20.258
55780W        W56644  24.709   1.450  19.051
55781W        W56645  24.879   1.146  18.660
55782W        W56646  25.020   2.870  19.322
55783W        W56647  24.584   2.649  20.014
55784W        W56648  24.558   1.895  18.834
55785W        W56649  23.888   1.969  19.870
55786W        W56650  25.004   1.734  19.824
55787W        W56651  22.371   0.824  20.473
55788W        W56652  24.946   1.880  21.161
55789W        W56653  25.360   3.324  20.301
55790W        W56654  23.273   2.889  19.733
55791W        W56655  24.491   3.454  20.866
55792W        W56656  24.269   0.820  20.791
55793W        W56657  23.617   3.683  20.740
55794W        W56658  25.141   0.518  19.240
55795W        W56659  25.004   1.654  20.360
55796W        W56660  21.989   1.014  20.775
55797W        W56661  24.805   0.867  19.755
55798W        W56662  25.152   1.075  21.226
55799W        W56663  24.138   2.616  19.731
55800W        W56664  23.458   3.258  19.420
55801W        W56665  22.460   0.382  18.732
55802W        W56666  23.562   0.246  20.488
55803W        W56667  22.391   3.503  18.479
55804W        W56668  23.269   1.773  18.893
55805W        W56669  23.681   2.365  21.381
55806W        W56670  23.532   0.858  19.294
55807W        W56671  24.862   0.263  19.637
55808W        W56672  24.756   3.451  20.012
55809W        W56673  23.921   3.231  20.309
55810W        W56674  23.347   2.330  20.348
55811W        W56675  25.197   2.925  20.637
55812W        W56676  22.799   0.467  19.210
55813W        W56677  23.287   2.856  20.242
55814W        W56678  22.711   0.759  18.250
55815W        W56679  23.677   1.513  20.430
55816W        W56680  24.462   0.223  20.437
55817W        W56681  21.792   2.007  20.599
55818W        W56682  23.586   1.722  18.494
55819W        W56683  22.899   0.290  18.395
55820W        W56684  23.872   1.232  19.374
55821W        W56685  24.436   0.364  20.987
55822W        W56686  23.189   2.272  21.162
55823W        W56687  23.995   1.953  21.559
55824W        W56688  24.495   2.064  21.415
55825W        W56689  23.807   0.331  21.941
55826W        W56690  23.065   0.889  20.143
55827W        W56691  22.508   0.659  19.607
55828W        W56692  22.138   3.383  19.509
55829W        W56693  23.809   2.914  21.474
55830W        W56694  22.884   2.141  19.122
55831W        W56695  24.538   1.818  20.032
55832W        W56696  24.550   1.394  20.354
55833W        W56697  23.828   2.041  20.393
55834W        W56698  24.288   2.431  18.221
55835W        W56699  23.960   0.447  19.789
55836W        W56700  25.545   0.955  19.036
55837W        W56701  22.130   3.435  21.222
55838W        W56702  22.346   2.631  20.562
55839W        W56703  21.539   3.387  18.837
55840W        W56704  23.757   0.720  20.660
55841W        W56705  22.920   2.788  18.568
55842W        W56706  25.292   3.052  18.779
55843W        W56707  24.071   1.777  18.659
55844W        W56708  23.031   0.944  19.198
55845W        W56709  23.804   0.813  18.416
55846W        W56710  24.176   2.531  21.469
55847W        W56711  24.700   0.512  18.926
55848W        W56712  22.036   0.067  18.542
55849W        W56713  23.257   2.636  20.776
55850W        W56714  23.015   2.485  19.945
55851W        W56715  22.865   2.367  18.250
55852W        W56716  21.874   3.104  19.149
55853W        W56717  22.654   1.713  21.351
55854W        W56718  23.259   0.447  21.760
55855W        W56719  23.942   0.464  21.086
55856W        W56720  23.186   0.124  19.321
55857W        W56721  24.200   0.322  19.099
55858W        W56722  22.253   0.337  20.372
55859W        W56723  22.175   1.077  19.653
55860W        W56724  24.965   0.272  20.205
55861W        W56725  22.348   0.720  19.111
55862W        W56726  24.790   0.559  20.635
55863W        W56727  25.342   1.595  18.278
55864W        W56728  22.667   0.559  20.080
55865W        W56729  23.779   0.988  21.128
55866W        W56730  21.888   0.549  18.512
55867W        W56731  22.668   2.174  21.101
55868W        W56732  24.105   1.573  20.159
55869W        W56733  23.693   3.470  18.508
55870W        W56734  21.951   1.983  18.236
55871W        W56735  22.800   2.614  21.385
55872W        W56736  22.247   1.681  21.019
55873W        W56737  23.382   1.878  20.635
55874W        W56738  24.936   0.240  21.028
55875W        W56739  25.480   1.860  21.078
55876W        W56740  25.461   1.751  18.770
55877W        W56741  24.216   2.271  18.745
55878W        W56742  23.999   1.560  21.907
55879W        W56743  22.332   2.559  21.589
55880W        W56744  25.559   0.634  21.622
55881W        W56745  24.984   1.269  20.030
55882W        W56746  23.375   3.601  21.775
55883W        W56747  23.336   0.106  18.703
55884W        W56748  25.162   2.568  18.525
55885W        W56749  22.871   0.946  21.372
55886W        W56750  23.353   2.741  21.286
55887W        W56751  25.232   0.781  20.804
55888W        W56752  24.492   3.004  19.255
55889W        W56753  24.741   2.142  20.389
55890W        W56754  22.929   0.600  21.013
55891W        W56755  23.521   1.599  21.700
55892W        W56756  22.741   2.633  19.074
55893W        W56757  24.702   2.139  19.252
55894W        W56758  22.472   0.869  21.010
55895W        W56759  23.610   2.729  19.369
55896W        W56760  25.378   1.420  19.658
55897W        W56761  23.635   0.221  21.450
55898W        W56762  24.569   2.634  20.515
55899W        W56763  24.927   3.009  20.201
55900W        W56764  23.821   2.951  18.421
55901W        W56765  21.933   2.840  21.419
55902W        W56766  22.835   0.994  20.613
55903W        W56767  22.783   0.198  19.677
55904W        W56768  24.494   0.875  20.307
55905W        W56769  23.259   2.092  18.410
55906W        W56770  25.221   2.066  20.154
55907W        W56771  22.452   3.034  21.358
55908W        W56772  24.870   3.377  19.363
55909W        W56773  23.034   0.658  19.659
55910W        W56774  22.501   2.024  19.933
55911W        W56775  23.155   3.723  20.506
55912W        W56776  25.069   3.678  21.469
55913W        W56777  24.296   1.880  20.535
55914W        W56778  22.124   1.452  18.257
55915W        W56779  25.369   3.243  19.293
55916W        W56780  25.154   0.735  18.754
55917W        W56781  23.150   0.207  21.269
55918W        W56782  25.057   2.696  19.802
55919W        W56783  24.906   1.317  19.509
55920W        W56784  23.265   1.131  19.699
55921W        W56785  23.514   1.444  20.946
55922W        W56786  24.410   2.598  21.011
55923W        W56787  23.221   1.024  20.966
55924W        W56788  23.018   3.386  19.693
55925W        W56789  22.451   3.532  21.601
55926W        W56790  22.511   3.041  18.259
55927W        W56791  25.133   2.344  19.436
55928W        W56792  22.780   1.326  21.029
55929W        W56793  25.407   1.184  18.583
55930W        W56794  23.299   2.306  18.874
55931W        W56795  24.311   1.710  21.077
55932W        W56796  24.138   1.368  20.682
55933W        W56797  22.672   1.771  20.737
55934W        W56798  24.945   3.380  20.576
55935W        W56799  24.658   0.307  21.481
55936W        W56800  22.279   0.434  21.336
55937W        W56801  22.694   1.456  20.318
55938W        W56802  23.118   1.047  18.344
55939W        W56803  21.923   3.036  20.938
55940W        W56804  23.448   1.863  20.116
55941W        W56805  23.334   0.577  18.466
55942W        W56806  22.941   1.662  19.304
55943W        W56807  21.986   3.567  20.751
55944W        W56808  24.971   1.662  18.631
55945W        W56809  25.106   0.582  21.400
55946W        W56810  24.632   2.570  19.508
55947W        W56811  22.026   1.647  21.550
55948W        W56812  25.096   0.232  18.684
55949W        W56813  24.824   2.554  18.955
55950W        W56814  23.708   1.449  18.901
55951W        W56815  24.713   0.579  18.409
55952W        W56816  24.824   1.112  20.695
55953W        W56817  22.293   1.514  19.978
55954W        W56818  22.650   2.531  19.580
55955W        W56819  24.418   1.135  19.390
55956W        W56820  23.551   0.657  20.174
55957W        W56821  25.466   2.481  20.663
55958W        W56822  25.511   0.681  20.356
55959W        W56823  21.966   3.427  19.979
55960W        W56824  22.214   2.561  19.253
55961W        W56825  22.358   0.379  21.880
55962W        W56826  23.519   3.115  21.909
55963W        W56827  25.469   1.919  19.676
55964W        W56828  24.729   2.246  18.504
55965W        W56829  24.104   3.647  20.587
55966W        W56830  24.826   2.253  21.806
55967W        W56831  23.612  28.892  19.094
55968W        W56832  24.249   0.890  19.834
55969W        W56833  21.945   2.587  20.174
55970W        W56834  23.277   0.519  18.999
55971W        W56835  23.125   1.902  21.540
55972W        W56836  24.046   0.746  19.371
55973W        W56837  24.112   2.400  20.631
55974W        W56838  22.438   3.096  20.833
55975W        W56839  23.089   2.927  21.694
55976W        W56840  22.880   0.715  18.735
55977W        W56841  24.437   0.999  18.887
55978W        W56842  24.265   3.053  21.218
55979W        W56843  23.299   1.675  19.670
55980W        W56844  22.725   3.493  20.631
55981W        W56845  25.428   3.379  18.373
55982W        W56846  22.208   2.101  21.341
55983W        W56847  24.268   2.253  20.154
55984W        W56848  22.941   2.071  19.647
55985W        W56849  22.995   3.061  20.653
55986W        W56850  23.441   0.352  19.754
55987W        W56851  21.756   1.970  18.736
55988W        W56852  23.573   1.264  18.254
55989W        W56853  22.093   1.834  19.640
55990W        W56854  23.446   0.553  21.036
55991W        W56855  25.154   0.409  18.197
55992W        W56856  25.272   2.053  21.554
55993W        W56857  23.899   3.411  21.563
55994W        W56858  25.408   2.396  21.169
55995W        W56859  24.966   3.151  21.551
55996W        W56860  22.689   3.789  20.191
55997W        W56861  25.527   2.118  19.206
55998W        W56862  24.138   1.587  19.634
55999W        W56863  23.799  28.974  19.625
56000W        W56864  22.953   3.011  19.353
56001W        W56865  23.422   1.077  20.482
56002W        W56866  23.123   0.297  20.181
56003W        W56867  21.979   3.179  18.626
56004W        W56868  23.838   2.249  19.427
56005W        W56869  22.962   3.049  21.168
56006W        W56870  22.458   2.096  19.405
56007W        W56871  22.167   0.688  20.001
56008W        W56872  23.780   2.447  20.085
56009W        W56873  21.994   0.343  18.986
56010W        W56874  24.699   1.661  20.758
56011W        W56875  24.435   1.016  18.374
56012W        W56876  25.082   2.533  20.296
56013W        W56877  23.759   2.933  19.908
56014W        W56878  23.154   3.299  18.967
56015W        W56879  24.274   0.140  18.337
56016W        W56880  22.301   3.472  20.351
56017W        W56881  24.272   1.087  21.774
56018W        W56882  22.425   0.845  21.618
56019W        W56883  21.957   1.292  19.213
56020W        W56884  23.050   1.311  18.801
56021W        W56885  24.384   1.546  21.558
56022W        W56886  22.956   1.905  20.253
56023W        W56887  24.336   0.143  19.589
56024W        W56888  23.436   3.327  19.972
56025W        W56889  24.709   2.986  20.860
56026W        W56890  24.255   3.109  19.916
56027W        W56891  24.338   2.135  19.650
56028W        W56892  23.748   0.449  18.785
56029W        W56893  25.395   0.136  19.489
56030W        W56894  23.131   1.570  18.292
56031W        W56895  25.270   0.962  19.468
56032W        W56896  23.800   2.195  18.445
56033W        W56897  24.900   2.365  21.295
56034W        W56898  24.704   2.737  18.304
56035W        W56899  23.374   0.854  21.444
56036W        W56900  23.095   1.451  20.639
56037W        W56901  25.126   2.844  21.164
56038W        W56902  24.318   0.712  21.372
56039W        W56903  21.877   1.338  21.160
56040W        W56904  23.867   1.795  20.837
56041W        W56905  22.146   2.379  19.727
56042W        W56906  22.246   1.749  20.443
56043W        W56907  24.581   2.140  20.891
56044W        W56908  24.582   3.459  21.371
56045W        W56909  24.280   1.186  21.175
56046W        W56910  24.706   3.046  19.713
56047W        W56911  23.533   3.061  20.925
56048W        W56912  22.970   3.328  20.200
56049W        W56913  24.961   2.494  20.808
56050W        W56914  23.618   2.605  21.849
56051W        W56915  22.486   2.553  20.069
56052W        W56916  24.825   2.221  19.851
56053W        W56917  24.477   3.204  20.386
56054W        W56918  22.569   3.034  20.330
56055W        W56919  23.759   1.150  21.686
56056W        W56920  23.667   3.108  18.959
56057W        W56921  23.178   2.418  21.659
56058W        W56922  23.251   2.798  18.979
56059W        W56923  22.620   1.282  18.158
56060W        W56924  22.036   3.777  25.328
56061W        W56925  22.379   2.590  24.795
56062W        W56926  25.205   2.082  22.561
56063W        W56927  25.340   3.236  24.593
56064W        W56928  23.036   3.301  22.070
56065W        W56929  23.049   1.488  23.077
56066W        W56930  22.676   1.455  23.463
56067W        W56931  23.489   1.975  22.701
56068W        W56932  23.457   3.263  24.997
56069W        W56933  21.936   0.840  24.833
56070W        W56934  22.533   0.161  24.693
56071W        W56935  24.469   0.481  23.597
56072W        W56936  24.135   1.259  22.289
56073W        W56937  24.721   0.756  25.309
56074W        W56938  22.223   0.551  24.501
56075W        W56939  22.250   3.294  25.434
56076W        W56940  23.193   2.669  22.148
56077W        W56941  22.156   1.156  23.839
56078W        W56942  23.052   1.293  25.215
56079W        W56943  25.410   1.001  23.598
56080W        W56944  25.112   1.843  24.297
56081W        W56945  23.579   1.481  23.575
56082W        W56946  24.157   2.745  23.949
56083W        W56947  22.456   2.090  24.082
56084W        W56948  21.902   1.608  23.914
56085W        W56949  23.041   1.779  25.003
56086W        W56950  25.200   1.532  25.026
56087W        W56951  22.843   2.828  23.521
56088W        W56952  23.970   2.659  24.607
56089W        W56953  23.397   1.166  23.938
56090W        W56954  23.487   2.024  23.602
56091W        W56955  24.181   2.919  25.410
56092W        W56956  23.447   2.111  25.342
56093W        W56957  23.553   1.929  24.869
56094W        W56958  21.921   1.174  25.298
56095W        W56959  24.646   2.754  25.139
56096W        W56960  22.372   0.270  22.934
56097W        W56961  22.948   2.543  24.094
56098W        W56962  25.450   2.367  23.574
56099W        W56963  24.854   0.793  23.813
56100W        W56964  25.209   0.900  21.895
56101W        W56965  25.522   1.519  24.253
56102W        W56966  23.619   3.243  24.133
56103W        W56967  25.441   2.528  22.654
56104W        W56968  22.263   3.574  22.623
56105W        W56969  22.656   3.534  22.983
56106W        W56970  22.732   0.399  24.259
56107W        W56971  25.114   1.361  24.532
56108W        W56972  24.424   1.604  22.965
56109W        W56973  24.578   1.438  22.058
56110W        W56974  23.687   2.702  24.167
56111W        W56975  23.691   0.970  23.538
56112W        W56976  24.111   3.106  24.350
56113W        W56977  25.196   1.758  22.939
56114W        W56978  23.732   0.424  22.961
56115W        W56979  22.486   3.115  22.719
56116W        W56980  21.989   0.565  23.203
56117W        W56981  24.505   1.354  23.411
56118W        W56982  22.292   2.898  23.673
56119W        W56983  23.428   3.264  22.422
56120W        W56984  24.882   1.245  21.676
56121W        W56985  22.134   2.963  24.176
56122W        W56986  22.845   2.733  24.615
56123W        W56987  23.052   2.030  23.201
56124W        W56988  23.250   0.394  24.294
56125W        W56989  25.477   0.249  23.778
56126W        W56990  22.692   2.163  21.626
56127W        W56991  22.387   0.839  22.150
56128W        W56992  22.420   2.861  23.172
56129W        W56993  23.152   2.596  23.136
56130W        W56994  24.880   3.226  24.901
56131W        W56995  23.630   0.956  22.624
56132W        W56996  25.099   3.591  23.451
56133W        W56997  24.701   1.315  24.832
56134W        W56998  25.537   2.831  23.330
56135W        W56999  24.074   2.139  24.736
56136W        W57000  21.895   1.480  23.027
56137W        W57001  22.818   2.235  24.473
56138W        W57002  23.984   1.303  22.787
56139W        W57003  23.950   1.782  22.974
56140W        W57004  22.528   1.279  24.284
56141W        W57005  22.412   1.310  25.129
56142W        W57006  22.247   0.181  23.464
56143W        W57007  24.018   0.482  23.910
56144W        W57008  23.802   0.642  25.195
56145W        W57009  24.265   0.403  22.367
56146W        W57010  25.364   3.087  25.098
56147W        W57011  24.160   0.218  25.195
56148W        W57012  25.138   2.620  25.252
56149W        W57013  24.741   0.767  24.776
56150W        W57014  24.329   0.554  23.029
56151W        W57015  24.830   1.771  25.325
56152W        W57016  22.579   3.293  23.471
56153W        W57017  23.141   1.031  22.796
56154W        W57018  22.835   0.426  25.217
56155W        W57019  24.870   0.915  22.740
56156W        W57020  25.282   1.285  22.735
56157W        W57021  22.966   3.613  25.521
56158W        W57022  22.868   0.206  22.585
56159W        W57023  25.161   0.543  23.477
56160W        W57024  25.487   2.869  21.997
56161W        W57025  22.115   2.025  23.685
56162W        W57026  24.279   0.578  21.877
56163W        W57027  25.407   2.837  23.839
56164W        W57028  25.287   0.255  24.296
56165W        W57029  23.905   1.585  24.974
56166W        W57030  23.558   2.481  22.801
56167W        W57031  24.378   1.940  25.552
56168W        W57032  24.078   0.015  23.692
56169W        W57033  22.622   0.974  23.647
56170W        W57034  22.287   2.140  24.558
56171W        W57035  23.766   3.277  23.269
56172W        W57036  25.147   1.168  24.048
56173W        W57037  23.917   3.358  24.770
56174W        W57038  25.143   1.921  22.072
56175W        W57039  23.483   1.755  23.162
56176W        W57040  25.500   0.302  24.787
56177W        W57041  23.675   2.226  24.446
56178W        W57042  23.895   0.972  24.039
56179W        W57043  24.559   1.287  22.576
56180W        W57044  24.981   1.170  22.279
56181W        W57045  25.142   2.797  22.979
56182W        W57046  24.600   2.676  23.676
56183W        W57047  24.378   1.751  22.444
56184W        W57048  23.974   1.834  23.524
56185W        W57049  24.936   1.728  23.389
56186W        W57050  22.449   0.805  24.109
56187W        W57051  24.870   1.820  24.784
56188W        W57052  25.370   3.302  24.063
56189W        W57053  23.305   3.051  23.380
56190W        W57054  24.442   3.448  24.704
56191W        W57055  24.175   0.806  24.501
56192W        W57056  23.443   3.524  24.558
56193W        W57057  25.161   0.485  22.879
56194W        W57058  24.892   1.590  23.896
56195W        W57059  22.043   1.108  24.364
56196W        W57060  24.728   0.823  23.297
56197W        W57061  25.153   1.038  24.955
56198W        W57062  24.168   2.557  23.383
56199W        W57063  23.331   3.324  22.941
56200W        W57064  22.414   0.401  22.413
56201W        W57065  23.625   0.158  23.983
56202W        W57066  22.376   3.530  22.108
56203W        W57067  23.039   1.809  22.498
56204W        W57068  23.650   2.421  24.934
56205W        W57069  23.397   0.757  23.148
56206W        W57070  24.784   0.301  23.203
56207W        W57071  24.953   3.603  23.952
56208W        W57072  24.070   3.373  23.888
56209W        W57073  23.385   2.280  24.036
56210W        W57074  25.026   2.923  24.206
56211W        W57075  22.886   0.576  22.954
56212W        W57076  23.313   2.755  23.801
56213W        W57077  22.878   0.824  21.900
56214W        W57078  23.660   1.300  24.366
56215W        W57079  24.467   0.265  24.077
56216W        W57080  21.934   2.064  24.185
56217W        W57081  23.467   1.787  22.198
56218W        W57082  22.834   0.338  22.068
56219W        W57083  23.538   1.245  23.101
56220W        W57084  24.446   0.375  24.602
56221W        W57085  23.151   2.283  24.909
56222W        W57086  23.953   2.044  25.223
56223W        W57087  24.463   2.056  25.052
56224W        W57088  23.821   0.296  25.602
56225W        W57089  22.995   0.788  23.972
56226W        W57090  22.494   0.636  23.275
56227W        W57091  22.175   3.347  23.118
56228W        W57092  23.797   2.894  25.050
56229W        W57093  22.642   2.371  22.369
56230W        W57094  24.479   1.789  23.664
56231W        W57095  24.453   1.311  23.923
56232W        W57096  23.833   2.011  23.994
56233W        W57097  23.946   2.035  22.103
56234W        W57098  23.981   0.467  23.405
56235W        W57099  25.525   0.833  22.726
56236W        W57100  22.162   3.433  24.946
56237W        W57101  22.460   2.571  24.285
56238W        W57102  21.785   3.408  22.762
56239W        W57103  23.741   0.551  24.335
56240W        W57104  22.776   2.904  22.333
56241W        W57105  25.281   2.990  22.474
56242W        W57106  23.873   1.673  22.463
56243W        W57107  22.763   1.047  23.149
56244W        W57108  23.896   0.839  22.103
56245W        W57109  24.161   2.509  25.086
56246W        W57110  24.694   0.440  22.667
56247W        W57111  22.028   0.052  22.158
56248W        W57112  23.297   2.549  24.486
56249W        W57113  23.060   2.337  23.618
56250W        W57114  22.748   2.594  21.907
56251W        W57115  22.012   2.948  22.823
56252W        W57116  22.558   1.780  25.297
56253W        W57117  23.326   0.400  25.410
56254W        W57118  23.954   0.389  24.759
56255W        W57119  23.195   0.161  23.039
56256W        W57120  24.082   0.097  22.765
56257W        W57121  22.272   0.301  24.044
56258W        W57122  22.184   1.058  23.319
56259W        W57123  24.968   0.279  23.888
56260W        W57124  22.451   0.802  22.773
56261W        W57125  24.820   0.567  24.286
56262W        W57126  25.291   1.445  21.935
56263W        W57127  22.653   0.455  23.750
56264W        W57128  23.735   0.957  24.760
56265W        W57129  21.948   0.544  22.225
56266W        W57130  22.655   2.155  24.946
56267W        W57131  23.929   1.490  23.946
56268W        W57132  23.749   3.546  22.119
56269W        W57133  22.076   1.701  22.094
56270W        W57134  22.797   2.634  25.131
56271W        W57135  22.398   1.711  24.813
56272W        W57136  23.227   1.913  24.474
56273W        W57137  24.948   0.219  24.671
56274W        W57138  25.416   1.883  24.714
56275W        W57139  25.482   1.656  22.425
56276W        W57140  23.959   2.169  22.620
56277W        W57141  24.798   3.503  21.873
56278W        W57142  23.983   1.603  25.519
56279W        W57143  22.461   2.347  25.420
56280W        W57144  25.578   0.656  25.298
56281W        W57145  24.963   1.220  23.551
56282W        W57146  23.451   3.520  25.419
56283W        W57147  23.326   0.258  22.258
56284W        W57148  25.171   2.459  22.185
56285W        W57149  22.741   0.906  25.058
56286W        W57150  23.267   2.791  24.950
56287W        W57151  25.220   0.692  24.565
56288W        W57152  25.120   3.462  22.312
56289W        W57153  24.722   2.076  24.029
56290W        W57154  22.935   0.504  24.722
56291W        W57155  23.491   1.582  25.293
56292W        W57156  22.739   2.650  22.801
56293W        W57157  24.750   2.009  22.869
56294W        W57158  22.403   1.003  24.703
56295W        W57159  23.659   2.703  23.281
56296W        W57160  25.339   1.401  23.266
56297W        W57161  23.660   0.155  25.111
56298W        W57162  24.601   2.575  24.183
56299W        W57163  25.001   3.136  23.725
56300W        W57164  23.640   2.796  22.354
56301W        W57165  22.207   2.788  25.233
56302W        W57166  22.850   0.922  24.448
56303W        W57167  22.748   0.199  23.305
56304W        W57168  24.395   0.798  24.032
56305W        W57169  23.070   2.149  22.081
56306W        W57170  25.187   1.991  23.790
56307W        W57171  22.575   3.109  25.019
56308W        W57172  25.072   3.677  22.867
56309W        W57173  23.016   0.643  23.459
56310W        W57174  22.658   1.976  23.590
56311W        W57175  23.241   3.612  24.086
56312W        W57176  25.123   3.550  25.219
56313W        W57177  24.281   1.814  24.145
56314W        W57178  22.273   1.272  21.883
56315W        W57179  25.306   3.261  23.112
56316W        W57180  25.168   0.683  22.374
56317W        W57181  23.177   0.102  24.956
56318W        W57182  25.062   2.673  23.466
56319W        W57183  24.865   1.340  23.034
56320W        W57184  23.159   1.151  23.476
56321W        W57185  23.412   1.435  24.805
56322W        W57186  24.469   2.538  24.687
56323W        W57187  23.199   0.969  24.843
56324W        W57188  23.049   3.498  23.345
56325W        W57189  22.568   3.639  25.210
56326W        W57190  22.602   3.100  21.854
56327W        W57191  25.154   2.267  23.117
56328W        W57192  22.796   1.355  24.763
56329W        W57193  25.506   1.123  22.286
56330W        W57194  23.112   2.345  22.584
56331W        W57195  24.326   1.677  24.706
56332W        W57196  24.193   1.312  24.366
56333W        W57197  22.712   1.739  24.396
56334W        W57198  24.893   3.396  24.404
56335W        W57199  24.664   0.286  25.094
56336W        W57200  22.361   0.544  25.006
56337W        W57201  22.897   1.326  23.918
56338W        W57202  23.254   1.167  21.828
56339W        W57203  22.027   2.977  24.711
56340W        W57204  23.424   1.690  24.038
56341W        W57205  23.370   0.777  22.186
56342W        W57206  22.422   1.429  23.022
56343W        W57207  22.139   3.505  24.446
56344W        W57208  24.930   1.643  22.497
56345W        W57209  25.127   0.545  25.060
56346W        W57210  24.674   2.519  23.146
56347W        W57211  22.041   1.672  25.201
56348W        W57212  25.117   0.172  22.340
56349W        W57213  24.905   2.477  22.663
56350W        W57214  23.433   1.462  22.650
56351W        W57215  24.738   0.466  22.140
56352W        W57216  24.701   1.069  24.348
56353W        W57217  22.172   1.563  23.464
56354W        W57218  22.682   2.395  23.250
56355W        W57219  24.392   1.071  23.006
56356W        W57220  23.486   0.646  23.884
56357W        W57221  25.408   2.595  24.330
56358W        W57222  25.328   0.681  24.011
56359W        W57223  21.984   3.301  23.594
56360W        W57224  22.284   2.400  22.875
56361W        W57225  22.401   0.420  25.516
56362W        W57226  23.516   3.012  25.466
56363W        W57227  25.480   1.889  23.360
56364W        W57228  24.737   2.109  22.321
56365W        W57229  23.937   3.631  24.330
56366W        W57230  24.773   2.282  25.417
56367W        W57231  23.548   0.041  22.679
56368W        W57232  24.221   0.931  23.537
56369W        W57233  22.094   2.489  23.920
56370W        W57234  23.309   0.540  22.678
56371W        W57235  22.935   2.161  25.380
56372W        W57236  23.916   0.883  23.082
56373W        W57237  24.152   2.325  24.261
56374W        W57238  22.491   3.088  24.510
56375W        W57239  23.038   3.149  25.282
56376W        W57240  22.874   0.720  22.431
56377W        W57241  24.146   0.839  22.603
56378W        W57242  24.266   2.993  24.885
56379W        W57243  23.109   1.683  23.595
56380W        W57244  22.812   3.397  24.256
56381W        W57245  25.321   3.360  21.860
56382W        W57246  22.163   2.138  25.061
56383W        W57247  24.284   2.246  23.774
56384W        W57248  22.710   2.099  22.815
56385W        W57249  23.161   3.001  24.254
56386W        W57250  23.481   0.335  23.451
56387W        W57251  22.014   2.139  22.409
56388W        W57252  23.620   1.284  22.186
56389W        W57253  22.350   1.963  23.181
56390W        W57254  23.451   0.522  24.792
56391W        W57255  25.207   0.376  21.885
56392W        W57256  25.240   2.045  25.190
56393W        W57257  23.925   3.362  25.288
56394W        W57258  25.379   2.400  24.840
56395W        W57259  24.954   3.091  25.414
56396W        W57260  22.765   3.661  23.809
56397W        W57261  25.615   2.115  22.905
56398W        W57262  24.006   1.358  23.302
56399W        W57263  23.809  28.983  23.222
56400W        W57264  22.889   3.073  23.063
56401W        W57265  23.359   0.886  24.365
56402W        W57266  23.123   0.235  23.816
56403W        W57267  22.010   3.202  22.315
56404W        W57268  23.785   2.208  23.207
56405W        W57269  23.020   3.209  24.719
56406W        W57270  22.301   1.788  22.670
56407W        W57271  22.198   0.656  23.675
56408W        W57272  23.779   2.447  23.719
56409W        W57273  21.925   0.239  22.667
56410W        W57274  24.676   1.578  24.356
56411W        W57275  24.513   0.914  22.215
56412W        W57276  25.053   2.470  23.936
56413W        W57277  23.761   2.986  23.705
56414W        W57278  22.945   3.320  22.594
56415W        W57279  24.303   0.078  21.977
56416W        W57280  22.354   3.384  23.967
56417W        W57281  24.312   1.085  25.386
56418W        W57282  22.365   0.920  25.447
56419W        W57283  22.142   1.249  22.616
56420W        W57284  23.104   1.219  22.315
56421W        W57285  24.387   1.552  25.195
56422W        W57286  22.966   1.982  24.010
56423W        W57287  24.321   0.076  23.236
56424W        W57288  23.495   3.459  23.666
56425W        W57289  24.611   2.988  24.510
56426W        W57290  24.259   3.049  23.534
56427W        W57291  24.352   2.073  23.241
56428W        W57292  23.766   0.471  22.447
56429W        W57293  25.437   0.083  23.060
56430W        W57294  23.047   1.627  21.970
56431W        W57295  25.204   0.933  23.130
56432W        W57296  23.535   2.294  22.288
56433W        W57297  24.875   2.323  24.920
56434W        W57298  24.981   3.004  22.044
56435W        W57299  23.377   0.920  25.357
56436W        W57300  23.134   1.378  24.369
56437W        W57301  25.063   2.783  24.719
56438W        W57302  24.291   0.689  25.016
56439W        W57303  21.997   1.359  24.804
56440W        W57304  23.865   1.750  24.458
56441W        W57305  22.196   2.438  23.392
56442W        W57306  22.440   1.612  23.905
56443W        W57307  24.545   2.082  24.502
56444W        W57308  24.486   3.328  25.224
56445W        W57309  24.202   1.177  24.874
56446W        W57310  24.742   3.039  23.294
56447W        W57311  23.575   2.996  24.581
56448W        W57312  23.045   3.225  23.795
56449W        W57313  24.990   2.329  24.431
56450W        W57314  23.770   2.521  25.424
56451W        W57315  22.572   2.466  23.758
56452W        W57316  24.791   2.208  23.534
56453W        W57317  24.550   3.092  24.006
56454W        W57318  22.663   2.961  24.018
56455W        W57319  23.819   1.165  25.257
56456W        W57320  23.684   2.981  22.838
56457W        W57321  23.236   2.582  25.421
56458W        W57322  23.199   2.861  22.668
56459W        W57323  22.753   1.315  21.687
56460W        W57324  22.022   3.665  28.897
56461W        W57325  22.357   2.573  28.401
56462W        W57326  25.101   2.168  26.237
56463W        W57327  25.218   3.403  28.145
56464W        W57328  23.249   3.314  25.839
56465W        W57329  23.061   1.433  26.580
56466W        W57330  22.686   1.266  26.926
56467W        W57331  23.532   2.042  26.238
56468W        W57332  23.350   3.277  28.161
56469W        W57333  22.053   0.861  28.536
56470W        W57334  22.584   0.099  28.326
56471W        W57335  24.518   0.538  27.226
56472W        W57336  24.151   1.225  25.870
56473W        W57337  24.676   0.825  28.789
56474W        W57338  22.125   0.473  28.151
56475W        W57339  22.124   3.141  28.963
56476W        W57340  23.478   2.357  25.827
56477W        W57341  21.997   1.204  27.586
56478W        W57342  22.811   1.338  28.750
56479W        W57343  25.561   1.132  27.261
56480W        W57344  25.216   2.075  27.992
56481W        W57345  23.599   1.509  27.071
56482W        W57346  24.144   2.868  27.547
56483W        W57347  22.508   2.121  27.719
56484W        W57348  21.794   1.635  27.351
56485W        W57349  22.941   1.720  28.425
56486W        W57350  25.171   1.559  28.710
56487W        W57351  22.723   2.814  27.149
56488W        W57352  23.976   2.644  28.150
56489W        W57353  23.440   1.176  27.416
56490W        W57354  23.382   2.002  27.154
56491W        W57355  24.216   2.967   0.044
56492W        W57356  23.403   2.092  28.887
56493W        W57357  23.550   1.822  28.443
56494W        W57358  21.719   1.308   0.115
56495W        W57359  24.592   2.781  28.718
56496W        W57360  22.264   0.123  26.732
56497W        W57361  22.823   2.522  27.589
56498W        W57362  25.437   2.480  27.120
56499W        W57363  24.926   0.863  27.535
56500W        W57364  25.175   0.905  25.511
56501W        W57365  25.531   1.652  27.925
56502W        W57366  23.392   3.332  27.639
56503W        W57367  25.370   2.629  26.219
56504W        W57368  22.401   3.752  26.222
56505W        W57369  22.721   3.598  26.601
56506W        W57370  22.597   0.391  27.871
56507W        W57371  25.203   1.411  28.218
56508W        W57372  24.445   1.689  26.653
56509W        W57373  24.548   1.485  25.692
56510W        W57374  23.772   2.530  27.677
56511W        W57375  23.743   0.979  27.047
56512W        W57376  24.197   3.093  28.008
56513W        W57377  24.894   1.942  26.697
56514W        W57378  24.067   0.382  26.492
56515W        W57379  22.511   3.234  26.316
56516W        W57380  22.074   0.603  26.752
56517W        W57381  24.568   1.371  27.136
56518W        W57382  22.231   2.933  27.235
56519W        W57383  23.543   3.087  26.223
56520W        W57384  24.841   1.258  25.329
56521W        W57385  22.052   2.995  27.759
56522W        W57386  22.791   2.624  28.097
56523W        W57387  22.980   2.050  26.850
56524W        W57388  23.174   0.497  27.772
56525W        W57389  25.489   0.255  27.175
56526W        W57390  22.585   1.957  25.769
56527W        W57391  22.375   1.075  25.937
56528W        W57392  22.316   3.008  26.731
56529W        W57393  23.397   2.323  26.703
56530W        W57394  24.805   3.220  28.568
56531W        W57395  23.785   1.035  26.174
56532W        W57396  25.178   3.583  27.131
56533W        W57397  24.749   1.361  28.474
56534W        W57398  25.550   2.746  26.687
56535W        W57399  24.054   2.134  28.182
56536W        W57400  21.903   1.805  26.476
56537W        W57401  22.998   2.164  27.936
56538W        W57402  24.128   1.362  26.374
56539W        W57403  23.922   1.797  26.552
56540W        W57404  22.451   1.252  27.877
56541W        W57405  22.206   1.186   0.020
56542W        W57406  22.281   0.490  27.257
56543W        W57407  24.091   0.581  27.535
56544W        W57408  23.791   0.691  28.741
56545W        W57409  24.273   0.407  26.013
56546W        W57410  25.279   3.066  28.708
56547W        W57411  24.156   0.203  28.622
56548W        W57412  25.066   2.610  28.835
56549W        W57413  24.682   0.883  28.266
56550W        W57414  24.468   0.641  26.713
56551W        W57415  24.785   1.802  28.962
56552W        W57416  22.527   3.332  27.048
56553W        W57417  23.282   1.047  26.266
56554W        W57418  22.788   0.428  28.730
56555W        W57419  24.855   0.930  26.475
56556W        W57420  25.180   1.300  26.308
56557W        W57421  22.966   3.369  28.775
56558W        W57422  22.856   0.125  26.161
56559W        W57423  25.258   0.720  27.155
56560W        W57424  25.408   2.880  25.608
56561W        W57425  22.166   2.021  27.099
56562W        W57426  24.276   0.586  25.532
56563W        W57427  25.529   2.928  27.525
56564W        W57428  25.333   0.247  27.899
56565W        W57429  23.763   1.373  28.694
56566W        W57430  23.635   2.564  26.303
56567W        W57431  24.306   1.943   0.069
56568W        W57432  24.164   0.114  27.319
56569W        W57433  22.467   1.005  27.371
56570W        W57434  22.103   2.150  28.083
56571W        W57435  24.008   3.263  27.053
56572W        W57436  25.319   1.226  27.716
56573W        W57437  23.845   3.341  28.291
56574W        W57438  25.109   1.967  25.721
56575W        W57439  23.421   1.792  26.682
56576W        W57440  25.445   0.288  28.406
56577W        W57441  23.533   2.176  28.011
56578W        W57442  23.923   1.060  27.531
56579W        W57443  24.616   1.301  26.197
56580W        W57444  24.996   1.297  25.833
56581W        W57445  25.086   2.936  26.528
56582W        W57446  24.545   2.562  27.336
56583W        W57447  24.376   1.765  26.103
56584W        W57448  23.888   1.936  27.046
56585W        W57449  24.917   1.766  27.206
56586W        W57450  22.255   0.774  27.764
56587W        W57451  24.926   1.851  28.364
56588W        W57452  25.366   3.413  27.592
56589W        W57453  23.229   3.006  27.057
56590W        W57454  24.351   3.441  28.383
56591W        W57455  24.185   0.827  27.998
56592W        W57456  23.586   3.715  28.017
56593W        W57457  25.175   0.535  26.496
56594W        W57458  25.038   1.676  27.719
56595W        W57459  22.009   1.141  28.110
56596W        W57460  24.803   0.921  27.002
56597W        W57461  25.134   1.051  28.608
56598W        W57462  24.109   2.717  27.053
56599W        W57463  23.409   3.314  26.673
56600W        W57464  22.482   0.470  26.014
56601W        W57465  23.661   0.268  27.583
56602W        W57466  22.495   3.714  25.713
56603W        W57467  23.017   1.908  26.368
56604W        W57468  23.674   2.364  28.467
56605W        W57469  23.531   0.724  26.609
56606W        W57470  24.911   0.400  26.926
56607W        W57471  24.678   3.595  27.261
56608W        W57472  23.907   3.323  27.587
56609W        W57473  23.309   2.314  27.563
56610W        W57474  25.144   2.980  27.860
56611W        W57475  22.667   0.424  26.514
56612W        W57476  23.247   2.826  27.558
56613W        W57477  22.884   0.834  25.541
56614W        W57478  23.593   1.266  27.902
56615W        W57479  24.529   0.329  27.688
56616W        W57480  21.968   2.069  27.586
56617W        W57481  23.489   1.805  25.753
56618W        W57482  22.918   0.360  25.727
56619W        W57483  23.645   1.309  26.592
56620W        W57484  24.461   0.400  28.198
56621W        W57485  23.173   2.194  28.418
56622W        W57486  23.933   2.016  28.739
56623W        W57487  24.445   1.964  28.550
56624W        W57488  23.822   0.316   0.083
56625W        W57489  22.972   1.033  27.306
56626W        W57490  22.553   0.760  26.918
56627W        W57491  22.177   3.513  26.624
56628W        W57492  23.605   2.901  28.419
56629W        W57493  22.652   2.252  26.200
56630W        W57494  24.379   1.847  27.203
56631W        W57495  24.544   1.560  27.606
56632W        W57496  23.740   2.038  27.536
56633W        W57497  24.275   2.435  25.585
56634W        W57498  24.025   0.511  26.999
56635W        W57499  25.507   0.900  26.302
56636W        W57500  22.091   3.288  28.458
56637W        W57501  22.324   2.581  27.904
56638W        W57502  21.754   3.536  26.168
56639W        W57503  23.667   0.720  27.856
56640W        W57504  23.242   2.805  25.920
56641W        W57505  25.062   3.001  25.967
56642W        W57506  23.877   1.664  26.046
56643W        W57507  22.901   0.906  26.576
56644W        W57508  23.834   0.828  25.681
56645W        W57509  24.222   2.441  28.577
56646W        W57510  24.709   0.471  26.276
56647W        W57511  22.057   0.161  25.826
56648W        W57512  23.310   2.642  28.065
56649W        W57513  23.130   2.493  27.116
56650W        W57514  22.842   2.502  25.774
56651W        W57515  21.982   3.093  26.349
56652W        W57516  22.384   1.655  28.745
56653W        W57517  23.281   0.525  28.891
56654W        W57518  23.897   0.473  28.260
56655W        W57519  23.120   0.198  26.679
56656W        W57520  24.323  28.935  26.349
56657W        W57521  22.144   0.237  27.687
56658W        W57522  22.207   1.119  26.741
56659W        W57523  25.046   0.351  27.457
56660W        W57524  22.395   0.820  26.381
56661W        W57525  24.915   0.533  27.952
56662W        W57526  25.306   1.538  25.511
56663W        W57527  22.769   0.578  27.397
56664W        W57528  23.777   0.995  28.313
56665W        W57529  22.030   0.678  25.816
56666W        W57530  22.596   2.123  28.253
56667W        W57531  23.971   1.573  27.438
56668W        W57532  23.762   3.349  25.795
56669W        W57533  22.095   2.006  25.587
56670W        W57534  22.825   2.532  28.592
56671W        W57535  22.270   1.667  28.177
56672W        W57536  23.262   1.718  28.028
56673W        W57537  24.897   0.116  28.279
56674W        W57538  25.462   1.876  28.401
56675W        W57539  25.429   1.662  25.995
56676W        W57540  24.044   2.174  26.217
56677W        W57541  24.805   3.541  25.628
56678W        W57542  23.932   1.611   0.121
56679W        W57543  22.455   2.485  28.937
56680W        W57544  25.447   0.674  28.803
56681W        W57545  25.075   1.283  27.255
56682W        W57546  23.461   3.354  28.664
56683W        W57547  23.379   0.193  25.948
56684W        W57548  25.125   2.474  25.782
56685W        W57549  22.514   0.857  28.766
56686W        W57550  23.061   2.962  28.441
56687W        W57551  25.237   0.897  28.121
56688W        W57552  24.546   3.737  26.051
56689W        W57553  24.694   2.102  27.563
56690W        W57554  22.938   0.511  28.224
56691W        W57555  23.277   1.561  28.847
56692W        W57556  22.803   2.807  26.234
56693W        W57557  24.546   2.164  26.404
56694W        W57558  22.515   0.796  28.237
56695W        W57559  23.674   2.849  26.794
56696W        W57560  25.426   1.490  26.906
56697W        W57561  23.635   0.188  28.616
56698W        W57562  24.635   2.874  27.715
56699W        W57563  24.942   3.173  27.415
56700W        W57564  23.783   2.802  25.854
56701W        W57565  22.005   2.682  28.738
56702W        W57566  22.792   0.880  27.803
56703W        W57567  22.705   0.261  26.984
56704W        W57568  24.442   1.037  27.585
56705W        W57569  23.070   2.055  25.887
56706W        W57570  25.221   2.140  27.476
56707W        W57571  22.546   3.015  28.644
56708W        W57572  25.094   3.655  26.587
56709W        W57573  23.079   0.624  26.971
56710W        W57574  22.618   1.772  27.079
56711W        W57575  23.065   3.633  27.903
56712W        W57576  25.136   3.579  28.692
56713W        W57577  24.217   1.934  27.730
56714W        W57578  22.214   1.487  25.639
56715W        W57579  25.423   3.282  26.694
56716W        W57580  25.066   0.806  26.021
56717W        W57581  23.144   0.137  28.496
56718W        W57582  25.283   2.982  27.077
56719W        W57583  24.922   1.418  26.748
56720W        W57584  23.274   1.101  26.899
56721W        W57585  23.337   1.326  28.381
56722W        W57586  24.506   2.718  28.206
56723W        W57587  22.851   1.251  28.206
56724W        W57588  23.042   3.501  26.987
56725W        W57589  22.476   3.544  28.661
56726W        W57590  22.730   3.263  25.847
56727W        W57591  25.121   2.436  26.675
56728W        W57592  22.402   1.245  28.440
56729W        W57593  25.486   1.164  25.861
56730W        W57594  23.142   2.406  26.252
56731W        W57595  24.051   1.660  28.377
56732W        W57596  24.129   1.354  27.898
56733W        W57597  22.740   1.697  27.925
56734W        W57598  24.912   3.576  27.761
56735W        W57599  24.650   0.289  28.743
56736W        W57600  22.282   0.394  28.633
56737W        W57601  22.700   1.451  27.455
56738W        W57602  23.147   1.215  25.771
56739W        W57603  21.925   2.842  28.231
56740W        W57604  23.406   1.664  27.543
56741W        W57605  23.323   0.720  25.836
56742W        W57606  22.610   1.290  26.384
56743W        W57607  22.115   3.505  27.991
56744W        W57608  24.900   1.718  26.145
56745W        W57609  25.023   0.562  28.499
56746W        W57610  24.834   2.760  26.967
56747W        W57611  21.920   1.786  28.937
56748W        W57612  25.162   0.280  26.037
56749W        W57613  24.830   2.595  26.209
56750W        W57614  23.380   1.544  26.182
56751W        W57615  24.746   0.461  25.751
56752W        W57616  24.820   1.232  27.913
56753W        W57617  22.234   1.420  27.171
56754W        W57618  22.800   2.532  26.691
56755W        W57619  24.466   1.163  26.683
56756W        W57620  23.431   0.675  27.354
56757W        W57621  25.428   2.531  27.854
56758W        W57622  25.417   0.714  27.645
56759W        W57623  21.969   3.318  27.051
56760W        W57624  22.323   2.599  26.411
56761W        W57625  22.446   0.288   0.117
56762W        W57626  23.451   3.014   0.052
56763W        W57627  25.328   1.999  26.961
56764W        W57628  24.674   2.182  25.909
56765W        W57629  24.106   3.634  27.942
56766W        W57630  24.643   2.293  28.906
56767W        W57631  23.583   0.174  26.451
56768W        W57632  24.254   0.961  27.110
56769W        W57633  22.251   2.466  27.426
56770W        W57634  23.165   0.528  26.291
56771W        W57635  22.724   2.056  28.747
56772W        W57636  24.017   0.908  26.630
56773W        W57637  24.311   2.453  27.798
56774W        W57638  22.435   3.047  28.130
56775W        W57639  22.935   2.880  28.963
56776W        W57640  22.835   0.864  26.058
56777W        W57641  24.341   0.868  26.240
56778W        W57642  24.145   2.974  28.523
56779W        W57643  23.092   1.550  27.117
56780W        W57644  22.605   3.450  27.812
56781W        W57645  25.315   3.388  25.686
56782W        W57646  22.186   2.132  28.620
56783W        W57647  24.126   2.289  27.344
56784W        W57648  22.479   2.109  26.670
56785W        W57649  22.963   3.072  27.912
56786W        W57650  23.527   0.335  26.969
56787W        W57651  22.093   2.188  26.137
56788W        W57652  23.639   1.301  25.746
56789W        W57653  22.320   1.614  26.702
56790W        W57654  23.414   0.611  28.405
56791W        W57655  25.221   0.361  25.531
56792W        W57656  25.171   2.093  28.782
56793W        W57657  23.947   3.370  28.827
56794W        W57658  25.323   2.392  28.388
56795W        W57659  24.908   3.066   0.064
56796W        W57660  22.685   3.692  27.355
56797W        W57661  25.568   2.234  26.533
56798W        W57662  24.076   1.420  26.915
56799W        W57663  23.920   0.011  26.854
56800W        W57664  22.830   3.083  26.717
56801W        W57665  23.233   0.929  28.062
56802W        W57666  23.136   0.228  27.340
56803W        W57667  22.183   3.357  25.939
56804W        W57668  23.917   2.335  26.711
56805W        W57669  22.806   3.388  28.290
56806W        W57670  22.411   1.777  26.222
56807W        W57671  22.012   0.914  27.163
56808W        W57672  23.657   2.442  27.164
56809W        W57673  22.026   0.395  26.288
56810W        W57674  24.504   1.624  28.119
56811W        W57675  24.607   0.956  25.791
56812W        W57676  25.062   2.654  27.448
56813W        W57677  23.682   2.944  27.319
56814W        W57678  23.048   3.289  26.305
56815W        W57679  24.315   0.025  25.664
56816W        W57680  22.229   3.390  27.482
56817W        W57681  24.136   1.064  28.900
56818W        W57682  22.441   0.782   0.275
56819W        W57683  22.117   1.354  26.289
56820W        W57684  22.858   1.566  26.016
56821W        W57685  24.357   1.513  28.795
56822W        W57686  22.948   1.931  27.467
56823W        W57687  24.432   0.128  26.830
56824W        W57688  23.538   3.459  27.156
56825W        W57689  24.716   3.211  28.075
56826W        W57690  24.480   3.077  27.208
56827W        W57691  24.414   2.270  26.903
56828W        W57692  23.736   0.535  26.110
56829W        W57693  25.437   0.117  26.671
56830W        W57694  23.034   1.688  25.534
56831W        W57695  25.286   1.028  26.753
56832W        W57696  23.909   2.091  25.729
56833W        W57697  24.813   2.359  28.441
56834W        W57698  24.692   2.729  25.675
56835W        W57699  22.989   0.891  28.551
56836W        W57700  23.082   1.317  27.755
56837W        W57701  25.012   2.819  28.331
56838W        W57702  24.251   0.723  28.519
56839W        W57703  21.939   1.372  28.603
56840W        W57704  23.782   1.735  27.946
56841W        W57705  22.308   2.536  26.924
56842W        W57706  22.272   1.667  27.629
56843W        W57707  24.577   2.119  28.068
56844W        W57708  24.467   3.384  28.899
56845W        W57709  24.267   1.203  28.378
56846W        W57710  24.873   3.267  26.885
56847W        W57711  23.681   2.984  27.895
56848W        W57712  22.928   3.242  27.419
56849W        W57713  24.907   2.490  27.925
56850W        W57714  23.821   2.697  28.842
56851W        W57715  22.657   2.271  27.177
56852W        W57716  24.900   2.270  27.106
56853W        W57717  24.443   3.352  27.646
56854W        W57718  22.550   2.959  27.627
56855W        W57719  23.396   1.028  28.826
56856W        W57720  23.910   3.327  26.511
56857W        W57721  23.312   2.607  28.728
56858W        W57722  23.229   2.819  26.545
56859W        W57723  22.683   1.315  25.578
56860W        W57724  21.924   7.354   3.390
56861W        W57725  22.301   6.245   2.827
56862W        W57726  25.042   5.850   0.710
56863W        W57727  25.339   6.876   2.613
56864W        W57728  23.148   7.122   0.252
56865W        W57729  23.151   5.083   1.126
56866W        W57730  22.740   4.880   1.443
56867W        W57731  23.699   5.715   0.705
56868W        W57732  23.449   6.996   2.951
56869W        W57733  21.975   4.426   2.905
56870W        W57734  22.563   3.610   2.737
56871W        W57735  24.457   3.986   1.708
56872W        W57736  24.129   4.795   0.465
56873W        W57737  24.658   4.353   3.216
56874W        W57738  22.024   4.036   2.539
56875W        W57739  22.077   6.866   3.473
56876W        W57740  23.492   5.952   0.290
56877W        W57741  21.995   4.828   2.019
56878W        W57742  23.123   4.877   3.037
56879W        W57743  25.370   4.553   1.867
56880W        W57744  25.018   5.777   2.485
56881W        W57745  23.503   5.175   1.518
56882W        W57746  24.125   6.631   1.917
56883W        W57747  22.452   5.647   2.262
56884W        W57748  21.887   5.327   1.906
56885W        W57749  23.113   5.298   2.722
56886W        W57750  25.039   5.064   3.085
56887W        W57751  22.798   6.552   1.642
56888W        W57752  23.827   6.426   2.592
56889W        W57753  23.498   4.860   1.932
56890W        W57754  23.357   5.677   1.582
56891W        W57755  24.173   6.436   3.334
56892W        W57756  23.544   5.750   3.319
56893W        W57757  23.548   5.581   2.803
56894W        W57758  21.684   4.666   3.398
56895W        W57759  24.624   6.492   3.050
56896W        W57760  22.376   3.912   0.928
56897W        W57761  22.892   6.321   2.097
56898W        W57762  25.269   6.000   1.586
56899W        W57763  24.902   4.190   1.879
56900W        W57764  25.076   4.397   0.063
56901W        W57765  25.503   5.130   2.383
56902W        W57766  23.343   7.095   2.052
56903W        W57767  25.218   6.325   0.840
56904W        W57768  22.586   7.251   0.516
56905W        W57769  22.790   7.129   0.995
56906W        W57770  22.489   3.925   2.323
56907W        W57771  24.978   5.042   2.556
56908W        W57772  24.536   5.365   1.288
56909W        W57773  24.512   5.063   0.262
56910W        W57774  23.742   6.323   2.070
56911W        W57775  23.827   4.760   1.575
56912W        W57776  24.075   6.830   2.389
56913W        W57777  25.018   5.507   1.093
56914W        W57778  23.921   4.089   1.034
56915W        W57779  22.520   6.757   0.635
56916W        W57780  22.113   4.169   1.265
56917W        W57781  24.920   4.708   1.679
56918W        W57782  22.268   6.513   1.594
56919W        W57783  23.545   6.709   0.633
56920W        W57784  24.885   4.865  28.957
56921W        W57785  22.005   6.607   2.189
56922W        W57786  22.823   6.417   2.614
56923W        W57787  23.080   5.597   1.133
56924W        W57788  22.966   4.019   2.115
56925W        W57789  25.436   3.733   1.852
56926W        W57790  22.524   5.595   0.073
56927W        W57791  22.346   4.684   0.465
56928W        W57792  22.343   6.624   1.095
56929W        W57793  23.390   5.998   1.168
56930W        W57794  24.895   6.904   2.888
56931W        W57795  23.791   4.513   0.740
56932W        W57796  25.028   7.167   1.477
56933W        W57797  24.637   4.789   2.919
56934W        W57798  25.441   6.433   1.306
56935W        W57799  24.024   5.771   2.746
56936W        W57800  21.910   5.205   1.099
56937W        W57801  22.836   5.940   2.414
56938W        W57802  24.235   5.039   0.924
56939W        W57803  24.099   5.532   1.037
56940W        W57804  22.327   4.762   2.403
56941W        W57805  22.420   4.781   2.904
56942W        W57806  22.246   3.775   1.575
56943W        W57807  24.005   4.040   2.069
56944W        W57808  23.765   4.249   3.275
56945W        W57809  24.279   4.122   0.615
56946W        W57810  25.330   6.752   3.146
56947W        W57811  24.224   3.751   3.095
56948W        W57812  25.046   6.263   3.278
56949W        W57813  24.691   4.347   2.683
56950W        W57814  24.380   4.206   1.223
56951W        W57815  24.746   5.359   3.401
56952W        W57816  22.530   6.976   1.448
56953W        W57817  23.333   4.775   0.736
56954W        W57818  22.725   3.938   3.120
56955W        W57819  24.924   4.621   0.978
56956W        W57820  25.287   4.946   0.840
56957W        W57821  23.017   7.034   3.237
56958W        W57822  23.116   3.775   0.624
56959W        W57823  25.292   4.134   1.567
56960W        W57824  25.466   6.515   0.176
56961W        W57825  22.234   5.688   1.806
56962W        W57826  24.271   4.180   0.087
56963W        W57827  25.270   6.495   1.808
56964W        W57828  25.257   3.714   2.424
56965W        W57829  23.861   4.902   3.149
56966W        W57830  23.640   6.208   0.717
56967W        W57831  24.269   5.539   3.555
56968W        W57832  24.015   3.741   1.645
56969W        W57833  22.491   4.687   1.873
56970W        W57834  22.171   5.765   2.675
56971W        W57835  24.053   7.008   1.463
56972W        W57836  24.987   4.517   2.271
56973W        W57837  23.902   7.157   2.744
56974W        W57838  25.210   5.711   0.242
56975W        W57839  23.587   5.489   1.136
56976W        W57840  25.384   3.746   2.921
56977W        W57841  23.663   5.956   2.434
56978W        W57842  24.049   4.578   2.004
56979W        W57843  24.736   5.117   0.880
56980W        W57844  24.926   4.864   0.484
56981W        W57845  24.835   6.702   0.899
56982W        W57846  24.763   6.229   1.644
56983W        W57847  24.338   5.434   0.586
56984W        W57848  23.884   5.636   1.523
56985W        W57849  24.796   5.215   1.708
56986W        W57850  22.179   4.345   2.172
56987W        W57851  24.843   5.477   2.866
56988W        W57852  25.301   6.957   2.072
56989W        W57853  23.261   6.475   1.426
56990W        W57854  24.416   7.161   2.631
56991W        W57855  24.085   4.361   2.473
56992W        W57856  23.488   7.378   2.511
56993W        W57857  25.216   4.120   1.048
56994W        W57858  24.591   5.320   2.178
56995W        W57859  21.811   4.638   2.458
56996W        W57860  24.849   4.306   1.371
56997W        W57861  25.086   4.549   3.004
56998W        W57862  24.096   6.351   1.482
56999W        W57863  23.352   6.872   1.098
57000W        W57864  22.516   4.182   0.489
57001W        W57865  23.554   3.735   2.097
57002W        W57866  22.665   6.921   0.110
57003W        W57867  22.830   5.421   0.653
57004W        W57868  23.675   6.099   2.955
57005W        W57869  23.592   4.464   1.224
57006W        W57870  24.891   3.800   1.488
57007W        W57871  24.498   7.271   1.637
57008W        W57872  23.847   7.058   1.967
57009W        W57873  23.298   6.031   1.988
57010W        W57874  25.041   6.563   2.283
57011W        W57875  22.853   4.093   0.935
57012W        W57876  23.274   6.603   1.920
57013W        W57877  22.872   4.215   0.090
57014W        W57878  23.704   4.707   2.370
57015W        W57879  24.428   3.726   2.168
57016W        W57880  21.921   5.715   2.233
57017W        W57881  23.573   5.427   0.249
57018W        W57882  22.949   3.709   0.150
57019W        W57883  23.696   4.966   1.071
57020W        W57884  24.377   3.949   2.626
57021W        W57885  23.226   5.996   2.737
57022W        W57886  23.924   5.429   3.208
57023W        W57887  24.400   5.616   3.059
57024W        W57888  23.814   3.898   3.652
57025W        W57889  22.932   4.409   1.762
57026W        W57890  22.566   4.394   1.404
57027W        W57891  22.270   7.120   0.935
57028W        W57892  23.754   6.598   3.084
57029W        W57893  22.714   5.916   0.426
57030W        W57894  24.329   5.498   1.756
57031W        W57895  24.342   4.977   1.811
57032W        W57896  23.678   5.697   1.991
57033W        W57897  24.322   6.024  28.991
57034W        W57898  23.994   4.263   1.568
57035W        W57899  25.517   4.481   0.829
57036W        W57900  22.030   7.056   2.985
57037W        W57901  22.366   6.179   2.310
57038W        W57902  21.837   7.112   0.667
57039W        W57903  23.583   4.184   2.394
57040W        W57904  23.207   6.366   0.421
57041W        W57905  25.222   6.785   0.559
57042W        W57906  23.860   5.237   0.644
57043W        W57907  22.971   4.590   1.067
57044W        W57908  23.823   4.416   0.226
57045W        W57909  24.053   5.931   3.266
57046W        W57910  24.738   4.098   0.874
57047W        W57911  22.038   4.016   0.300
57048W        W57912  23.325   6.360   2.379
57049W        W57913  23.006   6.055   1.558
57050W        W57914  23.033   6.068   0.047
57051W        W57915  21.979   6.601   0.720
57052W        W57916  22.722   5.188   3.045
57053W        W57917  23.214   3.914   3.339
57054W        W57918  23.880   3.991   2.773
57055W        W57919  23.234   3.749   1.125
57056W        W57920  24.107   3.638   0.752
57057W        W57921  22.040   3.851   2.046
57058W        W57922  22.257   4.798   1.260
57059W        W57923  24.917   3.644   1.975
57060W        W57924  22.485   4.483   0.910
57061W        W57925  24.837   3.982   2.354
57062W        W57926  25.300   5.191   0.225
57063W        W57927  22.507   4.130   1.846
57064W        W57928  23.727   4.495   2.837
57065W        W57929  21.867   4.510   0.350
57066W        W57930  22.675   5.615   2.766
57067W        W57931  23.874   5.230   1.873
57068W        W57932  23.681   7.087   0.287
57069W        W57933  22.036   5.778   0.182
57070W        W57934  22.774   6.067   2.974
57071W        W57935  22.449   5.216   2.561
57072W        W57936  23.256   5.648   2.355
57073W        W57937  24.855   3.732   2.822
57074W        W57938  25.338   5.452   2.750
57075W        W57939  25.339   5.439   0.682
57076W        W57940  24.183   5.936   0.722
57077W        W57941  24.889   7.166   0.285
57078W        W57942  24.062   5.062   3.596
57079W        W57943  22.486   6.299   3.355
57080W        W57944  25.519   4.213   3.384
57081W        W57945  25.146   5.005   2.040
57082W        W57946  23.478   7.123   3.461
57083W        W57947  23.445   3.529   0.241
57084W        W57948  25.053   6.213   0.329
57085W        W57949  22.845   4.438   2.973
57086W        W57950  23.304   6.508   2.855
57087W        W57951  25.200   4.181   2.662
57088W        W57952  24.511   7.390   0.725
57089W        W57953  24.576   5.858   2.054
57090W        W57954  22.905   4.061   2.625
57091W        W57955  23.449   5.249   3.185
57092W        W57956  22.740   6.310   0.769
57093W        W57957  24.592   5.733   0.933
57094W        W57958  22.436   4.304   2.688
57095W        W57959  23.697   6.477   1.151
57096W        W57960  25.449   4.993   1.592
57097W        W57961  23.674   3.750   3.162
57098W        W57962  24.569   6.444   2.059
57099W        W57963  24.864   6.823   1.864
57100W        W57964  24.021   6.264   0.376
57101W        W57965  21.986   6.407   3.224
57102W        W57966  22.712   4.435   2.269
57103W        W57967  22.740   3.908   1.409
57104W        W57968  24.474   4.281   2.156
57105W        W57969  23.085   5.587   0.233
57106W        W57970  25.059   5.546   2.027
57107W        W57971  22.386   6.704   3.056
57108W        W57972  25.019   7.331   0.932
57109W        W57973  23.156   4.216   1.346
57110W        W57974  22.615   5.716   1.451
57111W        W57975  22.956   7.340   2.306
57112W        W57976  25.025   7.235   3.264
57113W        W57977  24.111   5.572   2.245
57114W        W57978  22.518   5.148   0.322
57115W        W57979  25.276   6.899   1.086
57116W        W57980  25.076   4.350   0.574
57117W        W57981  23.084   3.655   2.897
57118W        W57982  24.968   6.630   1.394
57119W        W57983  25.038   5.035   1.290
57120W        W57984  23.243   4.729   1.499
57121W        W57985  23.544   4.991   2.759
57122W        W57986  24.244   6.217   2.851
57123W        W57987  23.250   4.544   2.667
57124W        W57988  23.049   7.001   1.472
57125W        W57989  22.525   7.192   3.177
57126W        W57990  22.705   6.426   0.255
57127W        W57991  24.945   6.037   1.186
57128W        W57992  22.822   4.846   2.598
57129W        W57993  25.391   4.712   0.378
57130W        W57994  23.167   5.887   0.696
57131W        W57995  23.974   5.267   2.738
57132W        W57996  24.113   5.041   2.286
57133W        W57997  22.857   5.310   2.263
57134W        W57998  24.888   7.064   2.399
57135W        W57999  24.671   3.871   3.423
57136W        W58000  22.228   3.914   2.997
57137W        W58001  22.965   4.912   1.921
57138W        W58002  22.785   4.714   0.175
57139W        W58003  21.908   6.598   2.744
57140W        W58004  23.295   5.332   1.964
57141W        W58005  23.352   4.090   0.295
57142W        W58006  22.665   5.303   1.138
57143W        W58007  22.005   7.053   2.474
57144W        W58008  24.855   5.408   0.475
57145W        W58009  25.079   4.058   3.172
57146W        W58010  24.531   6.354   1.202
57147W        W58011  22.230   5.345   2.993
57148W        W58012  25.167   3.836   0.593
57149W        W58013  24.703   6.229   0.744
57150W        W58014  23.338   5.337   0.711
57151W        W58015  24.729   4.039   0.343
57152W        W58016  24.536   4.760   2.376
57153W        W58017  22.288   5.271   1.500
57154W        W58018  22.608   6.219   1.279
57155W        W58019  24.550   4.836   1.300
57156W        W58020  23.504   4.349   1.754
57157W        W58021  25.366   6.178   2.430
57158W        W58022  25.359   4.137   2.158
57159W        W58023  22.009   6.921   1.360
57160W        W58024  22.236   6.140   0.908
57161W        W58025  22.354   3.929   3.505
57162W        W58026  23.326   6.636   3.369
57163W        W58027  25.242   5.473   1.547
57164W        W58028  24.606   5.865   0.412
57165W        W58029  24.003   7.412   2.302
57166W        W58030  24.718   5.866   3.417
57167W        W58031  23.574   3.553   0.749
57168W        W58032  24.448   4.492   1.670
57169W        W58033  22.006   6.155   1.914
57170W        W58034  23.376   4.184   0.846
57171W        W58035  23.086   5.640   3.101
57172W        W58036  24.085   4.614   1.168
57173W        W58037  24.186   6.111   2.343
57174W        W58038  22.380   6.683   2.545
57175W        W58039  22.874   6.548   3.131
57176W        W58040  22.994   4.417   0.556
57177W        W58041  24.454   4.572   0.807
57178W        W58042  24.203   6.751   2.891
57179W        W58043  22.967   5.325   1.570
57180W        W58044  22.476   7.112   2.266
57181W        W58045  25.376   7.030   0.133
57182W        W58046  22.353   5.829   3.155
57183W        W58047  24.101   5.979   1.850
57184W        W58048  22.665   5.824   0.937
57185W        W58049  23.023   6.799   2.341
57186W        W58050  23.601   3.967   1.416
57187W        W58051  21.830   6.099   0.562
57188W        W58052  23.641   4.899   0.331
57189W        W58053  22.220   5.616   1.090
57190W        W58054  23.379   4.089   2.878
57191W        W58055  25.184   3.893   0.091
57192W        W58056  25.174   5.607   3.230
57193W        W58057  23.962   7.052   3.253
57194W        W58058  25.276   5.978   2.892
57195W        W58059  24.884   6.756   3.409
57196W        W58060  22.502   7.399   1.813
57197W        W58061  25.437   5.827   1.110
57198W        W58062  24.071   5.164   1.397
57199W        W58063  23.851   3.582   1.190
57200W        W58064  22.850   6.657   1.143
57201W        W58065  23.224   4.490   2.167
57202W        W58066  23.193   3.847   1.702
57203W        W58067  22.182   6.960   0.299
57204W        W58068  23.894   5.993   1.145
57205W        W58069  22.784   6.923   2.781
57206W        W58070  22.330   5.574   0.576
57207W        W58071  22.085   4.452   1.678
57208W        W58072  23.640   6.123   1.600
57209W        W58073  22.036   4.264   0.764
57210W        W58074  24.468   5.203   2.662
57211W        W58075  24.586   4.536   0.291
57212W        W58076  25.043   6.080   2.050
57213W        W58077  23.695   6.665   1.637
57214W        W58078  23.034   6.816   0.657
57215W        W58079  24.303   3.699   0.266
57216W        W58080  22.183   6.970   1.849
57217W        W58081  24.250   4.636   3.391
57218W        W58082  22.387   4.361   3.222
57219W        W58083  22.341   5.101   0.816
57220W        W58084  22.805   4.897   0.690
57221W        W58085  24.342   5.117   3.169
57222W        W58086  22.881   5.713   1.931
57223W        W58087  24.390   3.688   1.240
57224W        W58088  23.539   7.160   1.551
57225W        W58089  24.574   6.671   2.535
57226W        W58090  24.478   6.728   1.556
57227W        W58091  24.348   5.878   1.381
57228W        W58092  23.781   3.994   0.551
57229W        W58093  25.430   3.712   1.300
57230W        W58094  23.151   5.059   0.321
57231W        W58095  25.313   4.581   1.304
57232W        W58096  23.990   5.731   0.284
57233W        W58097  24.754   5.991   2.926
57234W        W58098  24.564   6.389   0.264
57235W        W58099  23.292   4.448   3.248
57236W        W58100  23.246   4.976   2.351
57237W        W58101  25.058   6.431   2.779
57238W        W58102  24.214   4.324   2.973
57239W        W58103  21.923   4.944   2.878
57240W        W58104  23.651   5.302   2.344
57241W        W58105  22.155   6.024   1.421
57242W        W58106  22.384   5.183   2.031
57243W        W58107  24.500   5.717   2.551
57244W        W58108  24.507   7.102   3.161
57245W        W58109  24.152   4.789   2.743
57246W        W58110  24.612   7.089   1.171
57247W        W58111  23.547   6.842   2.458
57248W        W58112  22.825   7.001   1.915
57249W        W58113  24.712   6.184   2.462
57250W        W58114  23.675   6.233   3.465
57251W        W58115  22.530   6.112   1.802
57252W        W58116  24.797   5.719   1.587
57253W        W58117  24.449   7.027   2.100
57254W        W58118  22.496   6.622   2.051
57255W        W58119  23.555   4.832   3.554
57256W        W58120  23.855   6.964   0.979
57257W        W58121  23.218   6.151   3.231
57258W        W58122  23.221   6.401   0.921
57259W        W58123  22.857   5.214  28.943
57260W        W58124  22.034   7.305   7.102
57261W        W58125  22.396   6.191   6.618
57262W        W58126  24.987   5.770   4.230
57263W        W58127  25.339   6.893   6.320
57264W        W58128  23.070   6.902   3.740
57265W        W58129  23.312   5.159   4.702
57266W        W58130  22.823   5.102   5.257
57267W        W58131  23.826   5.777   4.431
57268W        W58132  23.413   6.913   6.689
57269W        W58133  21.954   4.397   6.626
57270W        W58134  22.554   3.737   6.382
57271W        W58135  24.548   4.062   5.262
57272W        W58136  24.290   4.717   3.959
57273W        W58137  24.663   4.475   6.930
57274W        W58138  22.120   3.998   6.198
57275W        W58139  22.123   6.819   7.184
57276W        W58140  23.385   6.471   3.883
57277W        W58141  22.111   4.751   5.685
57278W        W58142  23.107   4.981   6.829
57279W        W58143  25.370   4.564   5.522
57280W        W58144  23.778   4.942   5.273
57281W        W58145  24.131   6.462   5.606
57282W        W58146  22.493   5.725   5.942
57283W        W58147  21.831   5.202   5.623
57284W        W58148  23.082   5.392   6.439
57285W        W58149  25.271   5.090   6.764
57286W        W58150  22.787   6.394   5.359
57287W        W58151  23.970   6.269   6.372
57288W        W58152  23.354   4.856   5.578
57289W        W58153  23.472   5.700   5.268
57290W        W58154  24.322   6.566   7.098
57291W        W58155  23.610   5.690   7.095
57292W        W58156  23.562   5.547   6.585
57293W        W58157  21.572   4.629   6.897
57294W        W58158  24.698   6.270   6.837
57295W        W58159  22.145   3.780   4.761
57296W        W58160  22.859   6.223   5.871
57297W        W58161  25.283   6.093   5.194
57298W        W58162  24.938   4.253   5.552
57299W        W58163  25.070   4.430   3.543
57300W        W58164  25.571   5.138   6.112
57301W        W58165  23.484   6.733   5.803
57302W        W58166  25.247   6.475   4.178
57303W        W58167  22.136   7.150   4.416
57304W        W58168  22.567   7.236   4.893
57305W        W58169  22.757   3.935   5.940
57306W        W58170  25.183   4.868   6.300
57307W        W58171  24.662   5.301   4.961
57308W        W58172  24.516   5.149   3.812
57309W        W58173  23.738   6.290   5.892
57310W        W58174  23.764   4.436   5.069
57311W        W58175  24.091   6.678   6.087
57312W        W58176  24.977   5.323   4.549
57313W        W58177  24.150   4.102   4.484
57314W        W58178  22.616   6.919   4.464
57315W        W58179  21.878   4.214   4.855
57316W        W58180  24.941   4.799   5.342
57317W        W58181  22.230   6.518   5.454
57318W        W58182  23.474   6.961   4.032
57319W        W58183  24.733   4.829   3.439
57320W        W58184  22.075   6.648   5.930
57321W        W58185  22.835   6.301   6.379
57322W        W58186  23.390   5.698   4.757
57323W        W58187  23.256   4.044   5.912
57324W        W58188  25.562   3.666   5.441
57325W        W58189  22.824   5.908   3.466
57326W        W58190  22.096   4.304   3.788
57327W        W58191  22.405   6.377   4.999
57328W        W58192  23.154   6.095   5.105
57329W        W58193  24.795   6.769   6.728
57330W        W58194  23.931   4.513   4.280
57331W        W58195  25.177   7.108   5.387
57332W        W58196  24.816   4.876   6.644
57333W        W58197  25.664   6.531   5.003
57334W        W58198  24.193   5.793   6.356
57335W        W58199  21.590   5.361   4.763
57336W        W58200  23.023   5.759   6.049
57337W        W58201  24.165   4.983   4.413
57338W        W58202  24.172   5.463   4.643
57339W        W58203  22.428   4.820   6.090
57340W        W58204  22.358   4.779   6.589
57341W        W58205  22.301   3.745   5.240
57342W        W58206  24.035   4.105   5.508
57343W        W58207  23.805   4.256   6.781
57344W        W58208  24.196   4.127   3.976
57345W        W58209  25.330   6.702   6.918
57346W        W58210  24.113   3.814   6.848
57347W        W58211  25.190   6.213   7.009
57348W        W58212  24.826   4.280   6.474
57349W        W58213  24.548   4.257   4.773
57350W        W58214  24.998   5.329   7.208
57351W        W58215  22.546   6.904   5.331
57352W        W58216  23.464   4.560   4.066
57353W        W58217  22.685   4.029   6.798
57354W        W58218  24.980   4.480   4.568
57355W        W58219  25.196   4.893   4.323
57356W        W58220  23.051   7.274   6.839
57357W        W58221  22.817   3.673   4.195
57358W        W58222  25.366   4.099   5.267
57359W        W58223  25.312   6.533   3.643
57360W        W58224  22.103   5.665   5.585
57361W        W58225  24.229   4.127   3.458
57362W        W58226  25.347   6.588   5.435
57363W        W58227  25.342   3.740   6.096
57364W        W58228  23.941   5.075   6.645
57365W        W58229  23.498   6.615   4.410
57366W        W58230  24.483   5.489   7.161
57367W        W58231  24.211   3.661   5.317
57368W        W58232  22.513   4.605   5.396
57369W        W58233  22.169   5.818   6.331
57370W        W58234  23.920   7.091   5.154
57371W        W58235  25.085   4.501   5.968
57372W        W58236  23.942   6.978   6.504
57373W        W58237  25.109   5.649   3.730
57374W        W58238  23.743   5.354   4.926
57375W        W58239  25.402   3.647   6.590
57376W        W58240  23.687   5.873   6.215
57377W        W58241  23.882   4.602   5.667
57378W        W58242  24.681   4.882   4.424
57379W        W58243  24.853   4.767   3.941
57380W        W58244  25.012   6.689   4.592
57381W        W58245  24.564   6.363   5.354
57382W        W58246  24.525   5.354   4.292
57383W        W58247  24.002   5.528   5.325
57384W        W58248  25.036   5.335   5.348
57385W        W58249  22.413   4.343   5.868
57386W        W58250  24.848   5.397   6.723
57387W        W58251  25.439   6.955   5.796
57388W        W58252  23.217   6.627   5.151
57389W        W58253  24.433   7.038   6.325
57390W        W58254  24.187   4.423   6.114
57391W        W58255  23.566   7.122   6.191
57392W        W58256  25.299   4.075   4.735
57393W        W58257  25.174   5.403   6.320
57394W        W58258  21.993   4.516   6.136
57395W        W58259  24.947   4.348   5.060
57396W        W58260  25.216   4.557   6.724
57397W        W58261  24.110   6.300   5.103
57398W        W58262  23.464   7.324   4.963
57399W        W58263  22.471   3.996   3.999
57400W        W58264  23.621   3.748   5.678
57401W        W58265  22.465   7.166   3.956
57402W        W58266  23.486   5.611   4.077
57403W        W58267  23.667   6.037   6.714
57404W        W58268  23.676   4.030   4.694
57405W        W58269  24.970   3.820   5.065
57406W        W58270  24.679   7.226   5.462
57407W        W58271  23.926   6.933   5.654
57408W        W58272  23.440   5.848   5.759
57409W        W58273  25.238   6.509   5.970
57410W        W58274  22.574   3.998   4.531
57411W        W58275  23.287   6.312   5.573
57412W        W58276  22.841   4.267   3.485
57413W        W58277  23.701   4.976   5.983
57414W        W58278  24.544   3.844   5.729
57415W        W58279  21.885   5.521   6.036
57416W        W58280  23.648   5.346   3.657
57417W        W58281  22.833   3.789   3.674
57418W        W58282  23.753   4.875   4.744
57419W        W58283  24.464   3.975   6.225
57420W        W58284  23.167   5.906   6.557
57421W        W58285  24.034   5.617   6.818
57422W        W58286  24.522   5.793   6.740
57423W        W58287  23.729   3.919   7.169
57424W        W58288  23.031   4.423   5.596
57425W        W58289  22.381   4.205   5.000
57426W        W58290  22.242   6.842   4.863
57427W        W58291  23.830   6.548   6.791
57428W        W58292  22.998   6.178   4.135
57429W        W58293  24.524   5.476   5.468
57430W        W58294  24.924   5.437   5.853
57431W        W58295  23.939   5.695   5.805
57432W        W58296  24.325   6.043   3.711
57433W        W58297  24.111   4.070   4.991
57434W        W58298  25.456   4.431   4.374
57435W        W58299  22.122   6.980   6.683
57436W        W58300  22.362   6.234   6.082
57437W        W58301  21.638   7.002   4.324
57438W        W58302  23.778   4.156   5.948
57439W        W58303  23.020   6.680   4.220
57440W        W58304  25.229   7.018   4.230
57441W        W58305  24.071   5.403   4.026
57442W        W58306  23.475   4.477   4.583
57443W        W58307  23.880   4.463   3.742
57444W        W58308  24.166   6.142   6.828
57445W        W58309  24.849   3.968   4.480
57446W        W58310  21.986   3.778   3.872
57447W        W58311  23.299   6.208   6.140
57448W        W58312  22.970   5.870   5.528
57449W        W58313  22.942   6.394   3.628
57450W        W58314  21.954   6.608   4.505
57451W        W58315  22.681   5.327   6.748
57452W        W58316  23.080   3.730   6.767
57453W        W58317  23.964   3.936   6.374
57454W        W58318  23.284   3.721   4.873
57455W        W58319  24.395   3.699   4.291
57456W        W58320  22.282   3.841   5.742
57457W        W58321  22.071   4.650   5.097
57458W        W58322  25.083   3.764   5.592
57459W        W58323  22.106   4.151   4.338
57460W        W58324  24.932   4.024   6.017
57461W        W58325  25.177   5.113   3.577
57462W        W58326  22.636   4.104   5.458
57463W        W58327  23.786   4.620   6.372
57464W        W58328  21.669   4.151   4.035
57465W        W58329  22.670   5.740   6.422
57466W        W58330  24.102   5.134   5.646
57467W        W58331  23.870   7.169   3.794
57468W        W58332  21.906   5.305   3.384
57469W        W58333  22.885   6.364   6.888
57470W        W58334  22.319   5.305   6.347
57471W        W58335  23.432   5.436   6.074
57472W        W58336  24.901   3.732   6.433
57473W        W58337  25.476   5.198   3.984
57474W        W58338  24.312   5.831   4.243
57475W        W58339  24.702   7.179   3.653
57476W        W58340  24.045   5.216   7.145
57477W        W58341  22.454   6.244   7.142
57478W        W58342  25.552   4.072   7.161
57479W        W58343  25.167   4.976   5.786
57480W        W58344  23.363   7.125   7.225
57481W        W58345  23.292   3.756   3.967
57482W        W58346  24.914   6.153   3.821
57483W        W58347  22.829   4.523   6.725
57484W        W58348  23.313   6.407   6.633
57485W        W58349  25.329   4.205   6.336
57486W        W58350  24.790   7.285   4.143
57487W        W58351  24.665   5.888   5.803
57488W        W58352  22.971   4.139   6.388
57489W        W58353  23.565   5.202   6.956
57490W        W58354  22.627   6.389   4.524
57491W        W58355  24.664   5.735   4.621
57492W        W58356  22.471   4.313   6.396
57493W        W58357  23.584   6.302   4.908
57494W        W58358  25.430   5.005   5.254
57495W        W58359  23.592   3.776   6.700
57496W        W58360  24.590   6.426   5.867
57497W        W58361  24.856   6.742   5.544
57498W        W58362  23.775   6.710   3.606
57499W        W58363  22.014   6.400   6.911
57500W        W58364  22.868   4.530   6.078
57501W        W58365  22.791   3.869   5.021
57502W        W58366  24.624   5.020   5.735
57503W        W58367  23.298   5.978   3.726
57504W        W58368  25.189   5.779   5.601
57505W        W58369  22.487   6.668   6.839
57506W        W58370  25.010   7.245   4.648
57507W        W58371  23.295   4.210   5.018
57508W        W58372  22.594   5.522   5.469
57509W        W58373  23.206   7.179   5.848
57510W        W58374  25.090   7.154   6.879
57511W        W58375  24.372   5.453   5.967
57512W        W58376  22.165   4.838   3.337
57513W        W58377  25.323   6.924   4.932
57514W        W58378  25.050   4.308   4.065
57515W        W58379  23.115   3.669   6.267
57516W        W58380  24.988   6.490   5.082
57517W        W58381  25.087   4.921   4.850
57518W        W58382  23.341   4.729   5.055
57519W        W58383  23.477   5.060   6.449
57520W        W58384  24.604   6.170   6.330
57521W        W58385  23.238   4.609   6.438
57522W        W58386  23.008   7.123   5.152
57523W        W58387  22.530   7.158   7.007
57524W        W58388  22.612   6.814   3.520
57525W        W58389  25.085   6.131   4.693
57526W        W58390  22.813   4.939   6.413
57527W        W58391  25.377   4.698   3.859
57528W        W58392  23.415   6.094   4.425
57529W        W58393  24.369   5.325   6.535
57530W        W58394  24.218   4.971   6.123
57531W        W58395  22.759   5.306   6.056
57532W        W58396  24.945   7.115   5.892
57533W        W58397  24.628   3.942   6.838
57534W        W58398  22.187   3.938   6.705
57535W        W58399  22.781   4.907   5.724
57536W        W58400  23.101   4.645   3.705
57537W        W58401  21.981   6.467   6.402
57538W        W58402  23.619   5.331   5.612
57539W        W58403  23.414   4.213   3.698
57540W        W58404  22.993   5.581   5.093
57541W        W58405  22.107   7.164   6.210
57542W        W58406  24.966   5.266   4.038
57543W        W58407  25.157   4.043   6.809
57544W        W58408  24.600   6.185   4.873
57545W        W58409  22.194   5.203   6.847
57546W        W58410  25.286   3.859   4.213
57547W        W58411  24.727   6.209   4.326
57548W        W58412  23.726   5.272   4.404
57549W        W58413  24.705   3.941   3.966
57550W        W58414  24.647   4.656   6.170
57551W        W58415  22.258   5.101   5.323
57552W        W58416  22.625   5.934   5.122
57553W        W58417  24.611   4.748   4.926
57554W        W58418  23.521   4.259   5.501
57555W        W58419  25.575   6.157   6.180
57556W        W58420  25.422   4.137   5.796
57557W        W58421  22.007   6.964   5.309
57558W        W58422  22.283   5.971   4.712
57559W        W58423  22.332   3.948   7.207
57560W        W58424  23.426   6.607   7.115
57561W        W58425  25.069   5.665   4.939
57562W        W58426  24.630   5.652   3.885
57563W        W58427  24.048   7.242   6.044
57564W        W58428  24.898   5.800   7.077
57565W        W58429  23.532   3.586   4.426
57566W        W58430  24.248   4.525   5.250
57567W        W58431  21.932   6.156   5.677
57568W        W58432  23.213   4.003   4.433
57569W        W58433  23.150   5.516   6.931
57570W        W58434  24.154   4.566   4.739
57571W        W58435  24.215   6.101   5.962
57572W        W58436  22.438   6.717   6.318
57573W        W58437  22.954   6.839   7.068
57574W        W58438  22.982   4.178   3.991
57575W        W58439  24.558   4.381   4.262
57576W        W58440  24.338   6.574   6.558
57577W        W58441  23.331   5.215   5.210
57578W        W58442  22.733   7.069   6.061
57579W        W58443  25.237   7.035   3.708
57580W        W58444  22.248   5.721   6.824
57581W        W58445  24.271   5.955   5.478
57582W        W58446  22.913   5.948   4.669
57583W        W58447  23.067   6.674   6.089
57584W        W58448  23.683   3.853   5.183
57585W        W58449  21.865   6.081   4.366
57586W        W58450  23.818   4.939   4.016
57587W        W58451  22.234   5.560   5.068
57588W        W58452  23.488   4.158   6.366
57589W        W58453  25.151   3.914   3.684
57590W        W58454  25.352   5.581   6.917
57591W        W58455  23.832   7.024   7.007
57592W        W58456  25.516   6.038   6.664
57593W        W58457  24.882   6.587   7.217
57594W        W58458  22.761   7.301   5.601
57595W        W58459  25.528   5.870   4.781
57596W        W58460  24.189   5.059   4.975
57597W        W58461  24.005   3.640   4.677
57598W        W58462  22.761   6.718   4.921
57599W        W58463  23.423   4.528   5.967
57600W        W58464  23.162   3.886   5.400
57601W        W58465  21.990   6.830   3.995
57602W        W58466  23.862   5.859   4.947
57603W        W58467  22.898   6.843   6.550
57604W        W58468  22.045   5.512   4.568
57605W        W58469  22.107   4.250   5.441
57606W        W58470  23.772   6.077   5.426
57607W        W58471  21.717   3.861   4.467
57608W        W58472  24.731   5.151   6.226
57609W        W58473  24.593   4.376   3.725
57610W        W58474  25.000   6.247   5.604
57611W        W58475  23.703   6.587   5.336
57612W        W58476  23.123   6.943   4.663
57613W        W58477  24.286   3.673   3.727
57614W        W58478  22.307   7.069   5.751
57615W        W58479  24.047   4.696   6.982
57616W        W58480  22.366   4.392   6.922
57617W        W58481  21.856   4.921   4.674
57618W        W58482  23.327   5.076   3.970
57619W        W58483  24.498   4.978   7.036
57620W        W58484  23.094   5.372   5.655
57621W        W58485  24.494   3.752   4.833
57622W        W58486  23.460   7.046   5.398
57623W        W58487  24.824   6.714   6.214
57624W        W58488  24.353   6.844   5.317
57625W        W58489  24.365   5.740   5.030
57626W        W58490  23.688   4.060   4.154
57627W        W58491  25.622   3.691   4.923
57628W        W58492  23.073   5.125   3.497
57629W        W58493  25.404   4.539   4.999
57630W        W58494  23.852   5.813   3.747
57631W        W58495  25.015   5.913   6.597
57632W        W58496  24.876   6.748   3.939
57633W        W58497  23.260   4.229   6.827
57634W        W58498  23.173   4.985   6.046
57635W        W58499  25.146   6.406   6.498
57636W        W58500  24.295   4.267   6.604
57637W        W58501  21.875   4.907   6.587
57638W        W58502  23.917   5.381   6.231
57639W        W58503  22.095   6.027   5.209
57640W        W58504  22.312   5.245   5.816
57641W        W58505  24.712   5.664   6.277
57642W        W58506  24.337   7.016   6.839
57643W        W58507  24.335   4.767   6.569
57644W        W58508  24.809   6.968   5.041
57645W        W58509  23.609   6.621   6.288
57646W        W58510  23.005   6.807   5.579
57647W        W58511  25.079   6.013   6.086
57648W        W58512  23.792   6.192   7.200
57649W        W58513  22.451   6.073   5.583
57650W        W58514  24.784   5.898   5.289
57651W        W58515  24.443   6.931   5.817
57652W        W58516  22.582   6.637   5.811
57653W        W58517  23.558   4.705   6.830
57654W        W58518  23.587   6.835   4.866
57655W        W58519  23.284   6.094   7.074
57656W        W58520  23.115   6.423   4.689
57657W        W58521  22.712   4.760   3.351
57658W        W58522  21.959   7.389  10.714
57659W        W58523  22.326   6.227  10.146
57660W        W58524  25.134   5.658   7.962
57661W        W58525  25.297   6.966  10.120
57662W        W58526  22.983   6.946   7.584
57663W        W58527  23.199   5.337   8.913
57664W        W58528  22.853   4.948   8.956
57665W        W58529  23.919   5.670   7.885
57666W        W58530  23.441   7.026  10.303
57667W        W58531  21.975   4.333  10.296
57668W        W58532  22.681   3.556  10.128
57669W        W58533  24.518   4.111   9.047
57670W        W58534  24.202   4.822   7.456
57671W        W58535  24.726   4.390  10.621
57672W        W58536  22.024   4.055   9.837
57673W        W58537  22.124   6.953  10.905
57674W        W58538  23.479   6.379   7.585
57675W        W58539  21.953   4.720   9.332
57676W        W58540  23.146   4.914  10.345
57677W        W58541  25.400   4.598   9.078
57678W        W58542  25.229   5.712   9.697
57679W        W58543  23.688   5.141   8.976
57680W        W58544  24.263   6.416   9.313
57681W        W58545  22.695   5.830   9.401
57682W        W58546  21.891   5.281   9.312
57683W        W58547  23.206   5.422  10.229
57684W        W58548  25.260   5.198  10.415
57685W        W58549  22.784   6.693   8.930
57686W        W58550  24.034   6.339  10.232
57687W        W58551  23.232   4.483   9.426
57688W        W58552  23.545   5.675   9.073
57689W        W58553  24.220   6.565  10.761
57690W        W58554  23.836   5.638  10.926
57691W        W58555  23.699   5.556  10.207
57692W        W58556  21.651   4.607  10.684
57693W        W58557  24.696   6.419  10.582
57694W        W58558  22.321   3.842   8.389
57695W        W58559  22.951   6.273   9.283
57696W        W58560  25.261   6.129   8.872
57697W        W58561  24.684   4.510   9.362
57698W        W58562  25.103   4.360   7.207
57699W        W58563  25.656   5.138   9.651
57700W        W58564  23.674   6.919   9.458
57701W        W58565  25.338   6.111   7.808
57702W        W58566  22.283   7.196   8.015
57703W        W58567  22.701   7.212   8.373
57704W        W58568  22.528   3.886   9.757
57705W        W58569  25.197   5.092   9.898
57706W        W58570  24.646   5.306   8.608
57707W        W58571  24.655   5.113   7.518
57708W        W58572  23.826   6.399   9.583
57709W        W58573  23.654   4.399   8.688
57710W        W58574  24.257   6.564   9.811
57711W        W58575  25.117   5.418   8.417
57712W        W58576  24.203   4.028   8.159
57713W        W58577  22.671   6.839   8.013
57714W        W58578  21.994   4.192   8.602
57715W        W58579  24.551   4.810   8.942
57716W        W58580  22.261   6.703   8.993
57717W        W58581  23.469   6.879   7.713
57718W        W58582  25.002   4.842   7.122
57719W        W58583  22.096   6.705   9.556
57720W        W58584  22.932   6.536   9.723
57721W        W58585  23.355   5.829   8.584
57722W        W58586  22.853   4.101   9.441
57723W        W58587  25.542   3.768   9.145
57724W        W58588  22.759   5.868   6.904
57725W        W58589  22.299   4.417   7.431
57726W        W58590  22.487   6.764   8.515
57727W        W58591  23.287   6.357   8.441
57728W        W58592  24.861   6.894  10.383
57729W        W58593  23.914   4.624   7.837
57730W        W58594  25.086   7.038   8.973
57731W        W58595  24.799   5.124  10.221
57732W        W58596  25.498   6.514   8.617
57733W        W58597  24.190   5.815  10.135
57734W        W58598  21.822   5.300   8.474
57735W        W58599  22.984   6.000   9.784
57736W        W58600  24.333   4.954   7.944
57737W        W58601  24.269   5.402   8.266
57738W        W58602  22.382   4.819   9.657
57739W        W58603  22.291   4.786  10.169
57740W        W58604  22.178   3.746   8.886
57741W        W58605  23.989   4.179   9.203
57742W        W58606  23.813   4.202  10.466
57743W        W58607  24.259   4.297   7.616
57744W        W58608  25.351   6.784  10.619
57745W        W58609  24.207   3.735  10.340
57746W        W58610  25.179   6.242  10.728
57747W        W58611  24.796   4.312  10.112
57748W        W58612  24.500   4.340   8.582
57749W        W58613  24.901   5.369  10.806
57750W        W58614  22.544   7.155   8.873
57751W        W58615  23.411   4.433   7.674
57752W        W58616  22.819   3.937  10.440
57753W        W58617  24.903   4.524   8.314
57754W        W58618  25.233   4.972   8.190
57755W        W58619  22.984   7.151  10.573
57756W        W58620  22.737   3.645   7.882
57757W        W58621  25.359   4.135   8.843
57758W        W58622  25.378   6.476   7.417
57759W        W58623  22.196   5.805   9.324
57760W        W58624  24.231   4.241   7.104
57761W        W58625  25.383   6.582   9.123
57762W        W58626  25.330   3.802   9.656
57763W        W58627  24.076   5.020  10.304
57764W        W58628  23.938   6.176   7.721
57765W        W58629  24.362   5.648  10.933
57766W        W58630  24.190   3.705   9.104
57767W        W58631  22.690   4.560   9.233
57768W        W58632  22.442   5.790   9.852
57769W        W58633  24.105   6.901   8.733
57770W        W58634  25.188   4.622   9.582
57771W        W58635  23.992   7.054  10.248
57772W        W58636  25.279   5.718   7.434
57773W        W58637  23.822   5.434   8.554
57774W        W58638  25.470   3.807  10.166
57775W        W58639  23.755   6.016   9.949
57776W        W58640  23.689   4.641   9.174
57777W        W58641  24.832   4.818   7.904
57778W        W58642  25.210   4.711   7.571
57779W        W58643  25.121   6.465   8.254
57780W        W58644  24.761   6.210   9.072
57781W        W58645  24.725   5.312   8.022
57782W        W58646  24.032   5.554   9.083
57783W        W58647  25.085   5.330   8.928
57784W        W58648  22.310   4.329   9.500
57785W        W58649  25.036   5.568  10.138
57786W        W58650  25.346   7.010   9.414
57787W        W58651  23.306   6.675   8.871
57788W        W58652  24.509   7.158  10.034
57789W        W58653  24.373   4.409   9.809
57790W        W58654  23.617   7.272   9.884
57791W        W58655  25.222   4.118   8.335
57792W        W58656  25.187   5.286   9.429
57793W        W58657  21.958   4.551   9.812
57794W        W58658  24.928   4.447   8.882
57795W        W58659  25.138   4.683  10.211
57796W        W58660  24.232   6.239   8.825
57797W        W58661  23.526   6.903   8.429
57798W        W58662  22.355   3.980   7.750
57799W        W58663  23.699   3.734   9.315
57800W        W58664  22.381   7.179   7.503
57801W        W58665  23.497   5.565   8.147
57802W        W58666  23.835   5.946  10.491
57803W        W58667  23.685   3.994   8.349
57804W        W58668  24.892   3.964   8.709
57805W        W58669  24.549   7.133   9.053
57806W        W58670  24.133   6.909   9.249
57807W        W58671  23.392   6.000   9.436
57808W        W58672  25.217   6.608   9.709
57809W        W58673  22.754   4.055   8.189
57810W        W58674  23.384   6.514   9.358
57811W        W58675  22.794   4.309   7.209
57812W        W58676  23.705   4.854   9.652
57813W        W58677  24.602   3.777   9.455
57814W        W58678  21.970   5.587   9.729
57815W        W58679  23.699   5.356   7.512
57816W        W58680  22.848   3.772   7.246
57817W        W58681  23.816   4.900   8.519
57818W        W58682  24.482   3.928   9.935
57819W        W58683  23.316   5.979  10.209
57820W        W58684  24.104   5.482  10.519
57821W        W58685  24.606   5.602  10.439
57822W        W58686  23.869   4.032  10.943
57823W        W58687  22.977   4.157   8.956
57824W        W58688  22.537   4.282   8.601
57825W        W58689  22.176   7.173   8.505
57826W        W58690  23.776   6.677  10.516
57827W        W58691  23.299   6.092   7.986
57828W        W58692  24.556   5.418   9.099
57829W        W58693  24.548   5.014   9.419
57830W        W58694  23.849   5.725   9.547
57831W        W58695  24.465   6.026   7.243
57832W        W58696  24.064   4.091   8.704
57833W        W58697  25.372   4.504   8.035
57834W        W58698  22.138   7.109  10.317
57835W        W58699  22.380   6.247   9.626
57836W        W58700  21.788   7.152   8.153
57837W        W58701  23.723   4.341   9.623
57838W        W58702  23.128   6.595   7.969
57839W        W58703  24.989   6.542   7.746
57840W        W58704  24.217   5.339   7.630
57841W        W58705  23.554   4.472   8.178
57842W        W58706  23.810   4.383   7.354
57843W        W58707  24.342   6.041  10.577
57844W        W58708  24.730   4.039   8.223
57845W        W58709  21.956   3.696   7.552
57846W        W58710  23.380   6.336   9.831
57847W        W58711  23.433   6.187   8.946
57848W        W58712  23.011   6.441   7.398
57849W        W58713  22.054   6.718   8.234
57850W        W58714  22.720   5.310  10.367
57851W        W58715  23.327   3.942  10.612
57852W        W58716  23.966   4.030   9.975
57853W        W58717  23.079   3.686   8.343
57854W        W58718  24.574   3.892   7.763
57855W        W58719  22.166   3.818   9.407
57856W        W58720  22.233   4.567   8.919
57857W        W58721  25.044   3.920   9.205
57858W        W58722  22.257   4.302   8.152
57859W        W58723  24.906   4.147   9.645
57860W        W58724  25.456   5.137   7.318
57861W        W58725  22.468   4.115   9.074
57862W        W58726  23.905   4.561  10.071
57863W        W58727  21.876   4.191   7.640
57864W        W58728  22.816   5.814  10.239
57865W        W58729  24.052   5.120   9.350
57866W        W58730  23.797   7.202   7.511
57867W        W58731  21.935   5.445   7.220
57868W        W58732  22.852   6.342  10.187
57869W        W58733  22.327   5.292  10.025
57870W        W58734  23.388   5.644   9.807
57871W        W58735  24.972   3.775  10.018
57872W        W58736  25.544   5.474  10.049
57873W        W58737  25.596   5.469   7.751
57874W        W58738  24.421   5.757   7.892
57875W        W58739  24.688   7.075   7.204
57876W        W58740  24.034   5.057  10.872
57877W        W58741  22.561   6.325  10.615
57878W        W58742  25.595   4.270  10.768
57879W        W58743  24.995   4.889   9.175
57880W        W58744  23.447   6.950  10.816
57881W        W58745  23.208   3.682   7.659
57882W        W58746  24.941   6.121   7.465
57883W        W58747  22.881   4.479  10.238
57884W        W58748  23.335   6.518  10.292
57885W        W58749  25.305   4.252   9.943
57886W        W58750  24.779   7.020   7.725
57887W        W58751  24.830   5.765   9.383
57888W        W58752  22.962   4.070   9.955
57889W        W58753  23.630   5.232  10.605
57890W        W58754  22.770   6.384   8.286
57891W        W58755  24.705   5.727   8.324
57892W        W58756  22.435   4.329   9.995
57893W        W58757  23.773   6.433   8.584
57894W        W58758  25.460   5.079   8.669
57895W        W58759  23.701   3.709  10.335
57896W        W58760  24.671   6.273   9.580
57897W        W58761  24.908   6.664   9.297
57898W        W58762  23.862   6.679   7.398
57899W        W58763  22.087   6.561  10.555
57900W        W58764  22.823   4.535   9.727
57901W        W58765  22.709   3.797   8.714
57902W        W58766  24.171   4.626   9.381
57903W        W58767  23.550   5.865   7.571
57904W        W58768  25.314   5.726   9.179
57905W        W58769  22.539   6.804  10.436
57906W        W58770  24.924   7.297   8.243
57907W        W58771  23.195   4.208   8.491
57908W        W58772  23.054   5.825   9.033
57909W        W58773  23.106   7.399   9.746
57910W        W58774  25.124   7.240  10.656
57911W        W58775  24.328   5.525   9.561
57912W        W58776  22.041   4.758   7.062
57913W        W58777  25.214   6.942   8.472
57914W        W58778  24.911   4.316   7.797
57915W        W58779  23.197   3.652  10.182
57916W        W58780  25.003   6.568   8.771
57917W        W58781  24.961   4.917   8.640
57918W        W58782  23.236   4.597   8.911
57919W        W58783  23.599   5.018  10.134
57920W        W58784  24.519   6.237  10.111
57921W        W58785  23.323   4.596   9.939
57922W        W58786  23.076   7.156   8.868
57923W        W58787  22.488   7.254  10.675
57924W        W58788  22.570   6.710   7.383
57925W        W58789  25.163   5.959   8.399
57926W        W58790  22.758   4.957  10.002
57927W        W58791  25.600   4.953   7.799
57928W        W58792  23.742   6.027   8.232
57929W        W58793  24.380   5.351  10.055
57930W        W58794  24.240   4.903   9.823
57931W        W58795  22.834   5.455   9.845
57932W        W58796  24.957   7.090   9.760
57933W        W58797  24.684   3.908  10.418
57934W        W58798  22.298   3.888  10.277
57935W        W58799  22.808   5.040   9.479
57936W        W58800  23.232   4.602   7.205
57937W        W58801  21.986   6.651  10.059
57938W        W58802  23.585   5.316   9.449
57939W        W58803  23.268   4.077   7.322
57940W        W58804  22.696   5.408   9.109
57941W        W58805  22.183   7.201   9.815
57942W        W58806  25.133   5.211   7.711
57943W        W58807  25.186   4.187  10.453
57944W        W58808  24.714   6.196   8.553
57945W        W58809  22.060   5.175  10.464
57946W        W58810  25.121   3.856   7.874
57947W        W58811  24.844   6.089   7.986
57948W        W58812  23.869   5.168   8.039
57949W        W58813  24.668   4.116   7.323
57950W        W58814  24.764   4.777   9.829
57951W        W58815  22.359   5.002   9.168
57952W        W58816  22.901   6.230   8.765
57953W        W58817  24.455   4.843   8.433
57954W        W58818  23.475   4.156   9.112
57955W        W58819  25.546   6.109   9.738
57956W        W58820  25.500   4.220   9.418
57957W        W58821  21.998   7.150   8.980
57958W        W58822  22.376   6.274   8.626
57959W        W58823  22.416   3.882  10.798
57960W        W58824  23.772   6.633  11.058
57961W        W58825  25.491   5.636   8.695
57962W        W58826  24.786   5.622   7.572
57963W        W58827  24.078   7.036   9.744
57964W        W58828  24.799   5.898  10.833
57965W        W58829  23.518   3.576   8.061
57966W        W58830  24.104   4.596   8.853
57967W        W58831  21.980   6.278   9.257
57968W        W58832  23.282   4.046   8.008
57969W        W58833  23.400   5.717  10.646
57970W        W58834  24.050   4.482   8.340
57971W        W58835  24.216   6.056   9.688
57972W        W58836  22.480   6.679   9.934
57973W        W58837  23.004   6.644  10.656
57974W        W58838  22.875   4.094   7.671
57975W        W58839  24.471   4.464   8.046
57976W        W58840  24.378   6.719  10.291
57977W        W58841  23.275   4.967   9.276
57978W        W58842  22.734   7.052   9.707
57979W        W58843  25.189   6.974   7.391
57980W        W58844  22.075   5.729  10.214
57981W        W58845  24.371   5.912   9.211
57982W        W58846  22.547   5.824   8.853
57983W        W58847  23.290   6.891   9.783
57984W        W58848  23.372   3.798   8.747
57985W        W58849  21.983   6.200   8.292
57986W        W58850  23.693   4.869   7.323
57987W        W58851  22.193   5.442   8.924
57988W        W58852  23.464   4.108  10.087
57989W        W58853  25.111   3.865   7.330
57990W        W58854  25.232   5.695  10.602
57991W        W58855  23.978   7.047  10.808
57992W        W58856  25.422   5.983  10.220
57993W        W58857  24.914   6.745  10.907
57994W        W58858  22.824   7.352   9.291
57995W        W58859  25.594   5.813   8.169
57996W        W58860  24.189   5.147   8.801
57997W        W58861  23.850   3.614   8.706
57998W        W58862  23.008   6.803   8.469
57999W        W58863  23.337   4.008   9.595
58000W        W58864  23.159   3.719   9.206
58001W        W58865  22.006   6.870   7.718
58002W        W58866  23.848   5.916   8.721
58003W        W58867  22.952   6.857  10.151
58004W        W58868  22.193   5.711   8.456
58005W        W58869  21.946   4.204   9.135
58006W        W58870  23.879   6.076   9.195
58007W        W58871  21.913   3.915   8.095
58008W        W58872  24.783   5.340   9.733
58009W        W58873  24.671   4.608   7.445
58010W        W58874  25.165   6.186   9.390
58011W        W58875  23.805   6.568   9.070
58012W        W58876  23.156   7.112   8.091
58013W        W58877  24.188   3.820   7.392
58014W        W58878  22.357   7.110   9.344
58015W        W58879  24.248   4.597  10.721
58016W        W58880  22.463   4.318  10.499
58017W        W58881  22.046   4.715   8.446
58018W        W58882  23.485   4.937   7.785
58019W        W58883  24.473   5.121  10.618
58020W        W58884  23.106   5.482   9.410
58021W        W58885  24.435   3.769   8.586
58022W        W58886  23.644   7.058   8.943
58023W        W58887  24.762   6.649   9.939
58024W        W58888  24.519   6.646   8.943
58025W        W58889  24.345   5.723   8.708
58026W        W58890  23.787   4.089   7.810
58027W        W58891  25.535   3.750   8.517
58028W        W58892  23.235   5.122   7.333
58029W        W58893  25.337   4.586   8.562
58030W        W58894  24.044   5.745   7.362
58031W        W58895  24.903   6.011  10.350
58032W        W58896  24.296   6.939   7.516
58033W        W58897  23.345   4.448  10.460
58034W        W58898  23.229   5.110   9.788
58035W        W58899  25.138   6.474  10.266
58036W        W58900  24.301   4.255  10.306
58037W        W58901  21.779   4.817  10.201
58038W        W58902  23.922   5.302   9.834
58039W        W58903  22.031   5.951   8.867
58040W        W58904  22.397   5.367   9.527
58041W        W58905  24.650   5.806   9.881
58042W        W58906  24.489   7.025  10.702
58043W        W58907  24.497   4.720  10.269
58044W        W58908  24.709   6.969   8.589
58045W        W58909  23.733   6.706   9.981
58046W        W58910  23.051   6.890   9.323
58047W        W58911  25.046   6.150   9.889
58048W        W58912  23.965   6.152  10.944
58049W        W58913  22.470   6.240   9.122
58050W        W58914  24.868   5.771   8.823
58051W        W58915  24.539   6.909   9.542
58052W        W58916  22.582   6.660   9.395
58053W        W58917  23.768   4.715  10.559
58054W        W58918  23.946   6.884   7.903
58055W        W58919  23.520   6.283  10.710
58056W        W58920  23.628   6.511   8.071
58057W        W58921  22.600   4.868   7.031
58058W        W58922  21.935   7.540  14.281
58059W        W58923  22.315   6.308  13.784
58060W        W58924  25.172   5.667  11.795
58061W        W58925  25.317   7.136  13.660
58062W        W58926  23.017   6.982  11.079
58063W        W58927  23.301   5.183  12.246
58064W        W58928  22.877   5.027  12.613
58065W        W58929  23.907   5.738  11.829
58066W        W58930  23.394   6.961  13.925
58067W        W58931  21.937   4.362  13.953
58068W        W58932  22.602   3.605  13.770
58069W        W58933  24.540   4.086  12.866
58070W        W58934  24.211   4.847  11.327
58071W        W58935  24.624   4.482  14.305
58072W        W58936  22.058   3.987  13.569
58073W        W58937  22.150   6.871  14.463
58074W        W58938  23.614   6.383  11.496
58075W        W58939  21.930   4.795  13.035
58076W        W58940  23.112   4.870  14.099
58077W        W58941  25.324   4.712  12.784
58078W        W58942  25.260   5.814  13.616
58079W        W58943  23.642   5.127  12.636
58080W        W58944  24.212   6.491  13.002
58081W        W58945  22.494   5.663  13.248
58082W        W58946  21.783   5.283  13.001
58083W        W58947  23.132   5.359  13.970
58084W        W58948  25.232   5.123  14.217
58085W        W58949  22.837   6.402  12.676
58086W        W58950  23.983   6.286  13.667
58087W        W58951  23.262   4.948  12.958
58088W        W58952  23.674   5.644  12.704
58089W        W58953  24.195   6.630  14.415
58090W        W58954  23.694   5.763  14.518
58091W        W58955  23.603   5.569  13.987
58092W        W58956  21.600   4.582  14.338
58093W        W58957  24.704   6.488  14.064
58094W        W58958  22.241   3.823  12.089
58095W        W58959  22.884   6.106  13.138
58096W        W58960  25.338   6.035  12.650
58097W        W58961  24.943   4.416  12.944
58098W        W58962  25.130   4.485  10.935
58099W        W58963  25.562   5.018  13.415
58100W        W58964  23.525   6.857  13.064
58101W        W58965  25.220   6.509  11.627
58102W        W58966  22.536   7.284  11.700
58103W        W58967  22.687   7.156  12.179
58104W        W58968  22.553   3.944  13.359
58105W        W58969  25.076   4.962  13.676
58106W        W58970  24.623   5.352  12.502
58107W        W58971  24.546   5.192  11.124
58108W        W58972  23.750   6.274  13.189
58109W        W58973  23.782   4.433  12.435
58110W        W58974  24.084   6.739  13.425
58111W        W58975  24.774   5.172  11.975
58112W        W58976  24.183   4.085  11.717
58113W        W58977  22.501   6.777  11.857
58114W        W58978  21.901   4.213  12.146
58115W        W58979  24.614   4.760  12.766
58116W        W58980  22.284   6.474  12.773
58117W        W58981  23.376   6.870  11.451
58118W        W58982  24.921   4.866  10.652
58119W        W58983  22.094   6.585  13.230
58120W        W58984  22.792   6.377  13.584
58121W        W58985  23.346   5.745  12.321
58122W        W58986  22.986   4.078  13.082
58123W        W58987  25.508   3.806  12.844
58124W        W58988  23.044   6.122  10.624
58125W        W58989  22.439   4.377  11.000
58126W        W58990  22.439   6.487  12.289
58127W        W58991  23.152   6.237  12.281
58128W        W58992  24.884   6.960  13.868
58129W        W58993  23.858   4.676  11.668
58130W        W58994  25.013   6.918  12.416
58131W        W58995  24.748   4.998  14.046
58132W        W58996  25.558   6.346  12.287
58133W        W58997  24.138   5.795  13.720
58134W        W58998  21.900   5.229  12.185
58135W        W58999  22.838   5.873  13.581
58136W        W59000  24.293   4.952  11.833
58137W        W59001  24.270   5.385  12.110
58138W        W59002  22.282   4.777  13.427
58139W        W59003  22.326   4.767  13.938
58140W        W59004  22.224   3.771  12.595
58141W        W59005  23.989   4.216  12.877
58142W        W59006  23.748   4.221  14.097
58143W        W59007  24.249   4.323  11.231
58144W        W59008  25.380   6.971  14.145
58145W        W59009  24.155   3.810  14.119
58146W        W59010  25.157   6.339  14.387
58147W        W59011  24.719   4.499  13.787
58148W        W59012  24.575   4.200  12.106
58149W        W59013  24.820   5.399  14.363
58150W        W59014  22.588   6.876  12.622
58151W        W59015  23.417   4.575  11.414
58152W        W59016  22.779   3.967  14.119
58153W        W59017  24.897   4.637  11.950
58154W        W59018  25.192   4.961  11.668
58155W        W59019  22.946   7.199  14.143
58156W        W59020  22.960   3.726  11.475
58157W        W59021  25.295   4.216  12.613
58158W        W59022  25.383   6.550  11.100
58159W        W59023  22.128   5.645  12.869
58160W        W59024  24.355   4.078  10.785
58161W        W59025  25.332   6.708  12.767
58162W        W59026  25.334   3.765  13.355
58163W        W59027  23.950   5.127  14.108
58164W        W59028  23.978   6.257  11.872
58165W        W59029  24.403   5.618  14.588
58166W        W59030  24.168   3.707  12.868
58167W        W59031  22.429   4.732  12.904
58168W        W59032  22.332   5.777  13.727
58169W        W59033  24.078   6.889  12.432
58170W        W59034  25.205   4.639  13.318
58171W        W59035  23.911   7.021  13.821
58172W        W59036  25.175   5.709  11.129
58173W        W59037  23.765   5.430  12.230
58174W        W59038  25.407   3.780  13.858
58175W        W59039  23.660   5.904  13.575
58176W        W59040  23.707   4.683  12.891
58177W        W59041  24.699   4.927  11.529
58178W        W59042  25.037   4.972  11.145
58179W        W59043  24.899   6.565  12.046
58180W        W59044  24.494   6.178  12.722
58181W        W59045  24.454   5.418  11.636
58182W        W59046  24.110   5.379  12.611
58183W        W59047  24.850   5.483  12.961
58184W        W59048  22.161   4.338  13.199
58185W        W59049  24.931   5.439  13.856
58186W        W59050  25.334   7.101  13.130
58187W        W59051  23.317   6.662  12.553
58188W        W59052  24.418   7.073  13.684
58189W        W59053  24.266   4.416  13.508
58190W        W59054  23.567   7.162  13.485
58191W        W59055  25.138   4.183  12.104
58192W        W59056  25.143   5.367  13.375
58193W        W59057  21.786   4.573  13.495
58194W        W59058  24.867   4.464  12.441
58195W        W59059  25.098   4.626  14.117
58196W        W59060  24.143   6.365  12.388
58197W        W59061  23.404   6.975  12.122
58198W        W59062  22.530   3.983  11.316
58199W        W59063  23.656   3.675  13.045
58200W        W59064  22.548   7.209  11.179
58201W        W59065  23.418   5.532  11.862
58202W        W59066  23.697   6.071  14.066
58203W        W59067  23.742   4.227  11.938
58204W        W59068  24.884   3.921  12.481
58205W        W59069  24.533   7.194  12.645
58206W        W59070  24.009   6.974  12.935
58207W        W59071  23.392   5.886  13.089
58208W        W59072  25.123   6.715  13.398
58209W        W59073  22.667   3.980  11.826
58210W        W59074  23.270   6.410  13.000
58211W        W59075  22.928   4.332  10.758
58212W        W59076  23.652   4.885  13.362
58213W        W59077  24.536   3.759  13.276
58214W        W59078  21.988   5.615  13.363
58215W        W59079  23.648   5.571  11.406
58216W        W59080  22.912   3.827  10.943
58217W        W59081  23.775   4.903  12.155
58218W        W59082  24.498   3.979  13.752
58219W        W59083  23.214   5.933  13.928
58220W        W59084  24.070   5.631  14.193
58221W        W59085  24.553   5.754  14.058
58222W        W59086  23.796   3.878  14.510
58223W        W59087  22.933   4.542  12.820
58224W        W59088  22.358   4.247  12.383
58225W        W59089  22.228   6.966  12.256
58226W        W59090  23.757   6.592  14.095
58227W        W59091  23.140   6.173  11.525
58228W        W59092  24.391   5.699  12.892
58229W        W59093  24.448   5.169  12.988
58230W        W59094  23.889   5.722  13.157
58231W        W59095  24.464   6.210  11.057
58232W        W59096  24.079   4.036  12.271
58233W        W59097  25.401   4.487  11.775
58234W        W59098  22.089   7.123  14.007
58235W        W59099  22.390   6.160  13.306
58236W        W59100  22.046   7.260  11.869
58237W        W59101  23.745   4.367  13.323
58238W        W59102  22.867   6.625  11.435
58239W        W59103  24.917   6.863  11.421
58240W        W59104  24.096   5.362  11.284
58241W        W59105  23.391   4.580  11.988
58242W        W59106  23.840   4.582  11.065
58243W        W59107  24.204   6.163  14.153
58244W        W59108  24.700   4.044  11.625
58245W        W59109  22.053   3.759  11.169
58246W        W59110  23.269   6.209  13.471
58247W        W59111  23.027   5.900  12.698
58248W        W59112  23.261   6.502  11.101
58249W        W59113  21.963   6.744  11.886
58250W        W59114  22.661   5.166  14.036
58251W        W59115  23.285   3.892  14.347
58252W        W59116  23.971   3.990  13.665
58253W        W59117  23.112   3.724  12.022
58254W        W59118  24.382   3.824  11.267
58255W        W59119  22.131   3.828  13.094
58256W        W59120  22.048   4.665  12.539
58257W        W59121  25.015   3.908  12.992
58258W        W59122  22.161   4.144  11.672
58259W        W59123  24.750   4.205  13.359
58260W        W59124  25.406   5.249  10.905
58261W        W59125  22.511   4.139  12.868
58262W        W59126  23.859   4.624  13.767
58263W        W59127  21.747   4.143  11.326
58264W        W59128  22.759   5.694  14.058
58265W        W59129  23.949   5.169  13.052
58266W        W59130  23.876   7.109  11.323
58267W        W59131  21.763   5.379  10.880
58268W        W59132  22.808   6.344  14.108
58269W        W59133  22.300   5.244  13.666
58270W        W59134  23.281   5.581  13.546
58271W        W59135  24.929   3.712  13.688
58272W        W59136  25.443   5.344  13.807
58273W        W59137  25.439   5.345  11.427
58274W        W59138  24.385   5.915  11.811
58275W        W59139  24.799   7.226  11.079
58276W        W59140  23.966   5.318  14.592
58277W        W59141  22.449   6.439  14.488
58278W        W59142  25.541   4.198  14.443
58279W        W59143  24.974   5.001  13.038
58280W        W59144  23.379   7.183  14.402
58281W        W59145  23.386   3.829  11.166
58282W        W59146  24.960   6.251  11.212
58283W        W59147  22.804   4.483  13.989
58284W        W59148  23.289   6.442  13.919
58285W        W59149  25.196   4.199  13.606
58286W        W59150  24.552   7.232  11.542
58287W        W59151  24.807   5.981  13.072
58288W        W59152  22.952   4.164  13.617
58289W        W59153  23.493   5.213  14.351
58290W        W59154  22.782   6.335  11.904
58291W        W59155  24.743   5.678  12.090
58292W        W59156  22.417   4.320  13.699
58293W        W59157  23.649   6.458  12.224
58294W        W59158  25.575   5.095  12.482
58295W        W59159  23.649   3.724  14.030
58296W        W59160  24.738   6.484  13.073
58297W        W59161  24.904   6.938  12.913
58298W        W59162  24.121   6.421  11.382
58299W        W59163  22.022   6.426  14.195
58300W        W59164  22.685   4.467  13.275
58301W        W59165  22.700   3.842  12.351
58302W        W59166  24.192   4.674  13.052
58303W        W59167  23.506   6.007  11.146
58304W        W59168  25.268   5.755  13.067
58305W        W59169  22.436   6.733  14.057
58306W        W59170  24.981   7.068  11.897
58307W        W59171  23.350   4.152  12.284
58308W        W59172  22.612   5.446  12.795
58309W        W59173  23.201   7.266  13.158
58310W        W59174  25.015   7.312  14.224
58311W        W59175  24.288   5.487  13.349
58312W        W59176  22.149   4.689  10.658
58313W        W59177  25.371   6.769  12.070
58314W        W59178  24.989   4.497  11.444
58315W        W59179  23.135   3.696  13.840
58316W        W59180  24.956   6.392  12.589
58317W        W59181  25.004   4.995  12.483
58318W        W59182  23.345   4.710  12.500
58319W        W59183  23.529   5.068  13.833
58320W        W59184  24.493   6.167  13.726
58321W        W59185  23.337   4.595  13.734
58322W        W59186  23.093   7.136  12.491
58323W        W59187  22.471   7.371  14.297
58324W        W59188  22.585   6.737  10.956
58325W        W59189  25.103   6.090  12.187
58326W        W59190  22.756   4.846  13.634
58327W        W59191  25.508   4.785  11.168
58328W        W59192  23.488   6.057  11.909
58329W        W59193  24.362   5.322  13.856
58330W        W59194  24.182   4.978  13.473
58331W        W59195  22.785   5.369  13.574
58332W        W59196  24.859   7.190  13.377
58333W        W59197  24.635   3.928  14.270
58334W        W59198  22.248   3.901  14.034
58335W        W59199  22.773   5.053  13.140
58336W        W59200  23.386   4.823  10.878
58337W        W59201  21.972   6.695  13.718
58338W        W59202  23.492   5.371  13.134
58339W        W59203  23.425   4.305  10.960
58340W        W59204  22.859   5.537  12.345
58341W        W59205  22.146   7.233  13.500
58342W        W59206  24.926   5.377  11.444
58343W        W59207  25.098   4.115  14.128
58344W        W59208  24.602   6.186  12.213
58345W        W59209  22.150   5.196  14.173
58346W        W59210  25.203   4.023  11.618
58347W        W59211  24.872   6.106  11.729
58348W        W59212  23.892   5.238  11.746
58349W        W59213  24.755   4.158  11.115
58350W        W59214  24.650   4.708  13.302
58351W        W59215  22.158   5.166  12.650
58352W        W59216  22.671   6.031  12.343
58353W        W59217  24.527   4.835  12.272
58354W        W59218  23.410   4.272  12.813
58355W        W59219  25.470   6.301  13.538
58356W        W59220  25.437   4.232  13.127
58357W        W59221  22.015   6.935  12.714
58358W        W59222  22.080   6.254  11.997
58359W        W59223  22.361   3.928  14.571
58360W        W59224  23.128   6.732  14.298
58361W        W59225  25.231   5.495  12.595
58362W        W59226  24.655   5.809  11.340
58363W        W59227  24.072   7.259  13.361
58364W        W59228  24.843   5.904  14.469
58365W        W59229  23.469   3.610  11.633
58366W        W59230  24.332   4.407  12.531
58367W        W59231  21.974   6.119  12.998
58368W        W59232  23.300   4.101  11.700
58369W        W59233  23.216   5.670  14.368
58370W        W59234  24.148   4.522  12.070
58371W        W59235  24.293   6.047  13.263
58372W        W59236  22.445   6.766  13.550
58373W        W59237  22.678   6.913  14.477
58374W        W59238  23.018   4.211  11.273
58375W        W59239  24.475   4.501  11.661
58376W        W59240  24.249   6.642  13.910
58377W        W59241  23.209   5.413  12.706
58378W        W59242  22.772   7.096  13.351
58379W        W59243  25.291   7.050  11.110
58380W        W59244  22.377   6.018  14.198
58381W        W59245  24.000   6.052  12.780
58382W        W59246  22.995   5.863  11.952
58383W        W59247  23.138   6.732  13.395
58384W        W59248  23.694   3.899  12.591
58385W        W59249  21.997   5.917  11.603
58386W        W59250  23.701   5.028  11.287
58387W        W59251  22.312   5.599  12.386
58388W        W59252  23.459   4.086  13.687
58389W        W59253  25.209   3.967  10.951
58390W        W59254  25.243   5.662  14.192
58391W        W59255  23.888   7.058  14.329
58392W        W59256  25.479   6.090  14.015
58393W        W59257  24.938   6.816  14.374
58394W        W59258  22.766   7.312  12.869
58395W        W59259  25.488   5.758  12.230
58396W        W59260  24.096   4.865  12.574
58397W        W59261  23.637   3.741  12.110
58398W        W59262  22.914   6.700  12.246
58399W        W59263  23.233   4.522  13.247
58400W        W59264  23.160   3.823  12.649
58401W        W59265  22.214   6.917  11.442
58402W        W59266  23.829   5.953  12.292
58403W        W59267  22.901   6.802  13.835
58404W        W59268  22.411   5.863  11.942
58405W        W59269  21.969   4.201  12.729
58406W        W59270  23.500   6.135  12.641
58407W        W59271  21.774   3.824  11.774
58408W        W59272  24.675   5.192  13.464
58409W        W59273  24.631   4.663  11.070
58410W        W59274  25.235   6.307  13.071
58411W        W59275  23.785   6.552  12.728
58412W        W59276  22.985   6.948  11.806
58413W        W59277  24.183   3.607  10.849
58414W        W59278  22.358   7.004  13.073
58415W        W59279  24.107   4.676  14.401
58416W        W59280  22.384   4.338  14.238
58417W        W59281  22.017   4.737  12.018
58418W        W59282  23.437   5.021  11.741
58419W        W59283  24.391   5.113  14.394
58420W        W59284  22.984   5.568  13.135
58421W        W59285  24.420   3.679  12.392
58422W        W59286  23.605   7.108  12.598
58423W        W59287  24.626   6.632  13.550
58424W        W59288  24.525   6.684  12.628
58425W        W59289  24.313   5.810  12.393
58426W        W59290  23.748   4.174  11.417
58427W        W59291  25.403   3.780  12.329
58428W        W59292  23.122   5.267  10.721
58429W        W59293  25.333   4.633  12.279
58430W        W59294  24.110   5.878  11.357
58431W        W59295  24.962   6.047  13.975
58432W        W59296  24.365   6.867  11.179
58433W        W59297  23.259   4.367  14.194
58434W        W59298  23.185   5.069  13.459
58435W        W59299  25.190   6.539  13.898
58436W        W59300  24.235   4.313  14.018
58437W        W59301  21.797   4.880  13.938
58438W        W59302  23.825   5.378  13.551
58439W        W59303  22.107   6.059  12.487
58440W        W59304  22.274   5.208  13.147
58441W        W59305  24.709   5.743  13.516
58442W        W59306  24.462   7.047  14.198
58443W        W59307  24.309   4.801  13.935
58444W        W59308  24.544   6.959  12.175
58445W        W59309  23.609   6.635  13.565
58446W        W59310  23.013   6.858  12.913
58447W        W59311  24.954   6.231  13.500
58448W        W59312  23.814   6.271  14.533
58449W        W59313  22.502   5.990  12.822
58450W        W59314  24.843   5.841  12.570
58451W        W59315  24.465   6.935  13.154
58452W        W59316  22.651   6.576  13.126
58453W        W59317  23.619   4.732  14.208
58454W        W59318  23.766   6.789  11.797
58455W        W59319  23.305   6.219  14.405
58456W        W59320  23.277   6.537  11.868
58457W        W59321  22.658   4.815  10.547
58458W        W59322  21.911   7.430  17.967
58459W        W59323  22.438   6.261  17.626
58460W        W59324  25.123   5.701  15.290
58461W        W59325  25.336   6.976  17.296
58462W        W59326  23.115   6.930  14.777
58463W        W59327  23.311   5.030  15.640
58464W        W59328  22.661   4.694  16.158
58465W        W59329  23.856   5.733  15.474
58466W        W59330  23.413   7.011  17.645
58467W        W59331  21.903   4.310  17.512
58468W        W59332  22.566   3.503  17.476
58469W        W59333  24.536   4.094  16.363
58470W        W59334  24.233   4.968  14.887
58471W        W59335  24.565   4.572  17.877
58472W        W59336  22.035   4.051  17.088
58473W        W59337  22.084   6.932  18.125
58474W        W59338  23.357   6.376  14.943
58475W        W59339  21.909   4.869  16.658
58476W        W59340  23.064   4.955  17.717
58477W        W59341  25.364   4.639  16.437
58478W        W59342  25.082   5.699  17.233
58479W        W59343  23.725   5.061  16.257
58480W        W59344  24.135   6.494  16.581
58481W        W59345  22.479   5.666  16.943
58482W        W59346  21.732   5.383  16.566
58483W        W59347  22.981   5.377  17.334
58484W        W59348  25.248   5.161  17.820
58485W        W59349  22.738   6.652  16.322
58486W        W59350  23.924   6.359  17.299
58487W        W59351  23.445   4.774  16.605
58488W        W59352  23.621   5.664  16.311
58489W        W59353  24.202   6.591  18.152
58490W        W59354  23.517   5.798  18.066
58491W        W59355  23.601   5.588  17.601
58492W        W59356  21.932   4.664  17.879
58493W        W59357  24.651   6.371  17.917
58494W        W59358  22.330   3.869  15.650
58495W        W59359  22.930   6.540  16.938
58496W        W59360  25.297   6.089  16.157
58497W        W59361  24.899   4.383  16.604
58498W        W59362  25.076   4.425  14.600
58499W        W59363  25.439   4.988  16.970
58500W        W59364  23.521   7.114  16.760
58501W        W59365  25.359   6.416  15.185
58502W        W59366  22.264   7.108  15.292
58503W        W59367  22.609   7.085  15.690
58504W        W59368  22.569   3.876  17.119
58505W        W59369  25.118   5.174  17.330
58506W        W59370  24.638   5.418  15.965
58507W        W59371  24.675   5.260  14.850
58508W        W59372  23.768   6.221  16.809
58509W        W59373  23.739   4.504  16.237
58510W        W59374  24.286   6.708  17.148
58511W        W59375  25.099   5.380  15.722
58512W        W59376  24.154   4.069  15.553
58513W        W59377  22.505   6.653  15.435
58514W        W59378  21.937   4.214  15.786
58515W        W59379  24.542   5.026  16.296
58516W        W59380  22.206   6.610  16.402
58517W        W59381  23.460   6.857  15.140
58518W        W59382  24.854   4.892  14.534
58519W        W59383  22.007   6.674  16.900
58520W        W59384  22.895   6.299  17.392
58521W        W59385  23.455   5.735  15.815
58522W        W59386  22.932   4.063  16.792
58523W        W59387  25.457   3.772  16.489
58524W        W59388  22.834   5.999  14.498
58525W        W59389  22.319   4.396  14.766
58526W        W59390  22.403   6.552  15.923
58527W        W59391  23.275   6.210  15.900
58528W        W59392  24.887   6.777  17.683
58529W        W59393  23.863   4.495  15.369
58530W        W59394  25.146   7.112  16.258
58531W        W59395  24.771   5.046  17.672
58532W        W59396  25.643   6.465  16.000
58533W        W59397  24.119   5.872  17.411
58534W        W59398  21.635   5.347  15.824
58535W        W59399  22.895   6.011  16.966
58536W        W59400  24.155   4.944  15.435
58537W        W59401  24.231   5.413  15.646
58538W        W59402  22.251   4.803  17.055
58539W        W59403  22.343   4.750  17.553
58540W        W59404  22.361   3.726  16.168
58541W        W59405  23.983   4.219  16.627
58542W        W59406  23.709   4.315  17.605
58543W        W59407  24.039   4.492  14.892
58544W        W59408  25.364   6.830  17.894
58545W        W59409  24.032   3.892  17.665
58546W        W59410  25.178   6.330  17.983
58547W        W59411  24.726   4.402  17.411
58548W        W59412  24.579   4.194  15.847
58549W        W59413  24.891   5.355  18.130
58550W        W59414  22.401   7.019  16.154
58551W        W59415  23.482   4.560  15.032
58552W        W59416  22.680   3.976  17.686
58553W        W59417  24.832   4.510  15.510
58554W        W59418  25.154   4.905  15.566
58555W        W59419  22.928   7.086  17.831
58556W        W59420  22.827   3.713  15.140
58557W        W59421  25.216   4.166  16.247
58558W        W59422  25.522   6.639  14.719
58559W        W59423  22.173   5.704  16.498
58560W        W59424  24.224   4.184  14.517
58561W        W59425  25.475   6.466  16.493
58562W        W59426  25.295   3.762  17.027
58563W        W59427  23.910   5.161  17.717
58564W        W59428  23.740   6.244  15.537
58565W        W59429  24.418   5.561  18.177
58566W        W59430  24.122   3.762  16.422
58567W        W59431  22.438   4.856  16.584
58568W        W59432  22.184   5.976  17.284
58569W        W59433  24.196   6.907  16.167
58570W        W59434  25.102   4.581  17.041
58571W        W59435  23.879   6.870  17.460
58572W        W59436  25.110   5.552  14.767
58573W        W59437  23.738   5.294  15.761
58574W        W59438  25.472   3.717  17.519
58575W        W59439  23.677   5.900  17.186
58576W        W59440  23.965   4.742  16.653
58577W        W59441  24.632   4.923  15.237
58578W        W59442  25.049   4.707  15.039
58579W        W59443  25.017   6.708  15.442
58580W        W59444  24.507   6.129  16.462
58581W        W59445  24.687   5.415  15.416
58582W        W59446  24.056   5.499  16.122
58583W        W59447  24.911   5.379  16.405
58584W        W59448  22.166   4.404  16.701
58585W        W59449  24.876   5.552  17.668
58586W        W59450  25.461   6.974  16.757
58587W        W59451  23.245   6.624  16.225
58588W        W59452  24.593   7.102  17.409
58589W        W59453  24.187   4.484  17.065
58590W        W59454  23.615   7.268  17.240
58591W        W59455  25.100   4.126  15.724
58592W        W59456  25.061   5.351  16.871
58593W        W59457  21.789   4.519  17.020
58594W        W59458  24.773   4.566  16.141
58595W        W59459  25.148   4.705  17.553
58596W        W59460  24.208   6.361  16.090
58597W        W59461  23.406   6.938  15.866
58598W        W59462  22.361   3.931  15.100
58599W        W59463  23.666   3.778  16.706
58600W        W59464  22.372   7.215  14.778
58601W        W59465  23.397   5.476  15.371
58602W        W59466  23.657   6.100  17.664
58603W        W59467  23.705   4.231  15.778
58604W        W59468  24.871   3.819  16.060
58605W        W59469  24.641   7.129  16.389
58606W        W59470  24.144   6.996  16.682
58607W        W59471  23.361   5.875  16.741
58608W        W59472  25.309   6.532  16.973
58609W        W59473  22.750   4.119  15.503
58610W        W59474  23.404   6.581  16.699
58611W        W59475  22.830   4.320  14.490
58612W        W59476  23.699   5.057  16.964
58613W        W59477  24.489   3.807  16.808
58614W        W59478  21.940   5.668  16.974
58615W        W59479  23.745   5.517  15.002
58616W        W59480  22.857   3.807  14.632
58617W        W59481  23.732   4.770  15.791
58618W        W59482  24.390   4.005  17.264
58619W        W59483  23.206   5.876  17.407
58620W        W59484  24.007   5.742  17.896
58621W        W59485  24.492   5.894  17.762
58622W        W59486  23.597   3.844  18.013
58623W        W59487  23.012   4.470  16.455
58624W        W59488  22.421   4.307  15.913
58625W        W59489  22.070   7.064  15.767
58626W        W59490  23.742   6.606  17.880
58627W        W59491  22.911   6.123  15.046
58628W        W59492  24.443   5.598  16.434
58629W        W59493  24.583   5.216  16.765
58630W        W59494  23.807   5.602  16.784
58631W        W59495  24.667   6.389  14.570
58632W        W59496  24.107   4.143  16.076
58633W        W59497  25.342   4.446  15.414
58634W        W59498  22.076   7.122  17.594
58635W        W59499  22.441   6.400  17.125
58636W        W59500  21.740   7.159  15.365
58637W        W59501  23.659   4.498  17.001
58638W        W59502  22.954   6.644  15.171
58639W        W59503  25.389   6.931  15.141
58640W        W59504  24.255   5.442  15.115
58641W        W59505  23.341   4.505  15.549
58642W        W59506  23.667   4.377  14.571
58643W        W59507  24.138   6.261  17.761
58644W        W59508  24.654   4.022  15.368
58645W        W59509  21.967   3.696  14.895
58646W        W59510  23.342   6.277  17.104
58647W        W59511  23.056   6.248  16.527
58648W        W59512  22.918   6.475  14.675
58649W        W59513  21.914   6.674  15.463
58650W        W59514  22.602   5.186  17.618
58651W        W59515  23.114   3.743  17.813
58652W        W59516  23.878   4.062  17.174
58653W        W59517  23.288   3.854  15.785
58654W        W59518  24.217   4.021  15.031
58655W        W59519  22.281   3.871  16.684
58656W        W59520  22.094   4.652  16.231
58657W        W59521  24.965   3.854  16.584
58658W        W59522  22.238   4.323  15.386
58659W        W59523  24.875   4.084  17.033
58660W        W59524  25.291   5.052  14.729
58661W        W59525  22.573   4.205  16.420
58662W        W59526  23.851   4.766  17.385
58663W        W59527  21.865   4.190  14.976
58664W        W59528  22.686   5.814  17.402
58665W        W59529  24.102   5.231  16.575
58666W        W59530  23.680   7.197  14.807
58667W        W59531  21.681   5.101  14.412
58668W        W59532  22.899   6.037  17.841
58669W        W59533  22.234   5.306  17.277
58670W        W59534  23.417   5.484  17.097
58671W        W59535  24.932   3.739  17.421
58672W        W59536  25.492   5.504  17.483
58673W        W59537  25.533   5.426  15.064
58674W        W59538  24.418   5.860  15.457
58675W        W59539  24.725   7.224  14.626
58676W        W59540  23.996   5.265  18.208
58677W        W59541  22.514   6.360  18.124
58678W        W59542  25.503   4.184  18.000
58679W        W59543  24.969   4.903  16.621
58680W        W59544  23.378   7.273  18.099
58681W        W59545  23.307   3.690  14.896
58682W        W59546  25.122   6.078  14.870
58683W        W59547  22.779   4.497  17.717
58684W        W59548  23.337   6.510  17.563
58685W        W59549  25.258   4.188  17.372
58686W        W59550  24.921   7.143  15.095
58687W        W59551  24.770   5.786  16.783
58688W        W59552  22.935   4.222  17.300
58689W        W59553  23.502   5.260  18.010
58690W        W59554  22.881   6.275  15.541
58691W        W59555  24.877   5.835  15.726
58692W        W59556  22.417   4.309  17.334
58693W        W59557  23.703   6.510  15.980
58694W        W59558  25.521   5.062  16.034
58695W        W59559  23.527   3.835  17.513
58696W        W59560  24.601   6.492  16.813
58697W        W59561  24.999   6.768  16.630
58698W        W59562  23.556   6.720  14.585
58699W        W59563  22.024   6.458  17.907
58700W        W59564  22.638   4.475  16.885
58701W        W59565  22.810   3.974  16.017
58702W        W59566  24.495   4.704  16.712
58703W        W59567  23.304   5.834  14.859
58704W        W59568  25.256   5.790  16.609
58705W        W59569  22.431   6.775  17.723
58706W        W59570  25.155   7.200  15.561
58707W        W59571  23.278   4.289  16.058
58708W        W59572  23.146   5.824  16.243
58709W        W59573  25.077   7.257  17.893
58710W        W59574  24.291   5.600  16.939
58711W        W59575  22.082   4.719  14.395
58712W        W59576  25.382   6.841  15.804
58713W        W59577  25.037   4.202  15.089
58714W        W59578  23.043   3.689  17.302
58715W        W59579  25.119   6.584  16.154
58716W        W59580  25.020   5.014  16.082
58717W        W59581  23.291   4.797  16.116
58718W        W59582  23.468   5.117  17.444
58719W        W59583  24.521   6.325  17.400
58720W        W59584  23.316   4.613  17.401
58721W        W59585  22.958   7.082  16.147
58722W        W59586  22.435   7.275  17.955
58723W        W59587  22.491   6.736  14.923
58724W        W59588  25.259   6.305  15.690
58725W        W59589  22.807   4.763  17.285
58726W        W59590  25.517   4.891  15.176
58727W        W59591  23.312   6.012  15.378
58728W        W59592  24.354   5.410  17.668
58729W        W59593  24.207   5.016  17.051
58730W        W59594  22.653   5.147  16.981
58731W        W59595  25.028   7.264  16.761
58732W        W59596  24.568   4.017  17.746
58733W        W59597  22.191   3.866  17.551
58734W        W59598  22.964   4.984  16.546
58735W        W59599  23.242   4.721  14.581
58736W        W59600  21.997   6.558  17.410
58737W        W59601  23.404   5.299  16.607
58738W        W59602  23.239   4.185  14.764
58739W        W59603  22.598   5.351  16.488
58740W        W59604  22.054   7.289  17.098
58741W        W59605  25.081   5.207  15.171
58742W        W59606  25.021   4.303  17.835
58743W        W59607  24.755   6.271  15.967
58744W        W59608  22.085   5.160  17.753
58745W        W59609  25.072   3.696  15.061
58746W        W59610  24.896   6.177  15.331
58747W        W59611  23.680   5.018  15.248
58748W        W59612  24.666   4.050  14.776
58749W        W59613  24.698   4.858  17.167
58750W        W59614  22.134   5.204  16.272
58751W        W59615  22.788   6.198  16.088
58752W        W59616  24.617   4.929  15.756
58753W        W59617  23.454   4.253  16.599
58754W        W59618  25.400   6.035  17.056
58755W        W59619  25.349   4.201  16.781
58756W        W59620  21.845   7.064  16.225
58757W        W59621  22.447   6.063  15.724
58758W        W59622  22.233   3.968  18.276
58759W        W59623  23.293   6.778  18.078
58760W        W59624  25.320   5.553  16.154
58761W        W59625  24.694   5.766  15.006
58762W        W59626  24.143   7.204  17.166
58763W        W59627  24.864   5.883  18.102
58764W        W59628  23.577   3.677  15.356
58765W        W59629  24.266   4.583  16.270
58766W        W59630  22.052   6.188  16.678
58767W        W59631  23.223   4.053  15.276
58768W        W59632  23.116   5.549  17.806
58769W        W59633  24.208   4.546  15.763
58770W        W59634  24.266   6.122  16.955
58771W        W59635  22.350   6.894  17.226
58772W        W59636  22.894   6.561  17.842
58773W        W59637  22.775   4.205  14.987
58774W        W59638  24.376   4.465  15.284
58775W        W59639  24.345   6.727  17.664
58776W        W59640  23.295   5.322  16.091
58777W        W59641  22.724   7.182  17.000
58778W        W59642  25.277   7.088  14.661
58779W        W59643  22.290   5.644  17.682
58780W        W59644  24.036   5.945  16.458
58781W        W59645  22.943   5.814  15.763
58782W        W59646  23.323   6.824  17.150
58783W        W59647  23.659   3.961  16.226
58784W        W59648  21.947   6.194  15.732
58785W        W59649  23.734   4.880  14.708
58786W        W59650  22.711   5.846  16.509
58787W        W59651  23.371   4.042  17.067
58788W        W59652  25.158   3.922  14.615
58789W        W59653  25.318   5.661  17.941
58790W        W59654  24.041   7.041  17.937
58791W        W59655  25.468   6.015  17.581
58792W        W59656  24.931   6.774  18.184
58793W        W59657  22.636   7.287  16.508
58794W        W59658  25.429   5.796  15.719
58795W        W59659  24.150   5.015  15.970
58796W        W59660  23.838   3.733  15.808
58797W        W59661  22.912   6.683  15.829
58798W        W59662  23.146   4.517  16.937
58799W        W59663  23.177   3.890  16.372
58800W        W59664  21.960   6.871  14.956
58801W        W59665  23.873   5.982  15.967
58802W        W59666  22.844   6.813  17.382
58803W        W59667  22.518   5.680  16.073
58804W        W59668  22.079   4.142  16.274
58805W        W59669  23.546   6.184  16.347
58806W        W59670  21.874   3.878  15.394
58807W        W59671  24.639   5.349  17.249
58808W        W59672  24.572   4.563  14.819
58809W        W59673  25.003   6.249  16.568
58810W        W59674  23.738   6.823  16.390
58811W        W59675  23.084   7.036  15.479
58812W        W59676  24.287   3.684  14.630
58813W        W59677  22.163   7.087  16.615
58814W        W59678  24.051   4.723  17.980
58815W        W59679  22.296   4.293  17.849
58816W        W59680  22.088   4.706  15.722
58817W        W59681  23.356   5.207  14.854
58818W        W59682  24.441   5.054  18.056
58819W        W59683  22.979   5.511  16.816
58820W        W59684  24.365   3.714  15.955
58821W        W59685  23.443   7.245  16.276
58822W        W59686  24.874   6.708  17.185
58823W        W59687  24.612   6.622  16.316
58824W        W59688  24.395   5.877  15.992
58825W        W59689  23.695   4.070  15.007
58826W        W59690  25.398   3.747  15.939
58827W        W59691  22.981   5.206  14.461
58828W        W59692  25.254   4.579  15.935
58829W        W59693  23.744   6.036  15.039
58830W        W59694  24.950   6.066  17.595
58831W        W59695  25.022   6.656  14.869
58832W        W59696  23.227   4.229  17.746
58833W        W59697  23.181   5.023  17.014
58834W        W59698  25.250   6.479  17.483
58835W        W59699  24.208   4.384  17.565
58836W        W59700  21.871   4.842  17.402
58837W        W59701  23.935   5.406  17.262
58838W        W59702  22.285   6.132  16.214
58839W        W59703  22.191   5.266  16.780
58840W        W59704  24.601   5.845  17.268
58841W        W59705  24.579   7.102  17.942
58842W        W59706  24.316   4.891  17.541
58843W        W59707  24.827   6.936  15.900
58844W        W59708  23.809   6.735  16.961
58845W        W59709  23.038   6.954  16.643
58846W        W59710  24.922   6.198  17.088
58847W        W59711  23.828   6.192  18.175
58848W        W59712  22.553   6.295  16.640
58849W        W59713  24.864   5.844  16.241
58850W        W59714  24.603   7.026  16.897
58851W        W59715  22.529   6.787  16.762
58852W        W59716  23.559   4.773  17.828
58853W        W59717  23.789   6.796  15.553
58854W        W59718  23.328   6.279  18.019
58855W        W59719  23.322   6.550  15.525
58856W        W59720  22.631   4.785  14.377
58857W        W59721  21.968   7.318  21.735
58858W        W59722  22.436   6.335  21.225
58859W        W59723  25.038   5.780  18.963
58860W        W59724  25.287   7.031  21.030
58861W        W59725  23.018   7.054  18.414
58862W        W59726  23.504   5.005  19.513
58863W        W59727  23.054   4.870  19.957
58864W        W59728  23.471   5.675  19.452
58865W        W59729  23.392   6.921  21.308
58866W        W59730  21.918   4.432  21.218
58867W        W59731  22.669   3.472  21.137
58868W        W59732  24.616   3.939  19.945
58869W        W59733  24.164   4.952  18.600
58870W        W59734  24.683   4.460  21.430
58871W        W59735  21.981   4.114  20.813
58872W        W59736  22.143   6.835  21.799
58873W        W59737  23.492   6.499  18.465
58874W        W59738  21.833   4.835  20.282
58875W        W59739  23.226   4.836  21.197
58876W        W59740  25.435   4.603  19.915
58877W        W59741  25.162   5.766  20.712
58878W        W59742  23.684   4.968  20.001
58879W        W59743  24.204   6.565  20.256
58880W        W59744  22.493   5.863  20.523
58881W        W59745  21.637   5.315  20.318
58882W        W59746  23.148   5.350  21.105
58883W        W59747  25.301   5.181  21.388
58884W        W59748  22.816   6.689  20.019
58885W        W59749  24.032   6.344  21.062
58886W        W59750  23.397   4.630  20.250
58887W        W59751  23.530   5.790  19.946
58888W        W59752  24.300   6.573  21.730
58889W        W59753  23.657   5.624  21.720
58890W        W59754  23.630   5.558  21.182
58891W        W59755  21.516   4.637  21.466
58892W        W59756  24.758   6.417  21.530
58893W        W59757  22.286   3.847  19.357
58894W        W59758  22.989   6.483  20.471
58895W        W59759  25.259   6.097  19.808
58896W        W59760  24.987   4.320  20.003
58897W        W59761  25.164   4.397  18.326
58898W        W59762  25.574   5.035  20.558
58899W        W59763  23.686   6.894  20.484
58900W        W59764  25.310   6.239  18.965
58901W        W59765  22.392   7.281  18.960
58902W        W59766  22.723   7.221  19.362
58903W        W59767  22.409   3.816  20.870
58904W        W59768  25.203   5.137  20.870
58905W        W59769  24.527   5.227  19.497
58906W        W59770  24.644   5.162  18.519
58907W        W59771  23.850   6.374  20.574
58908W        W59772  23.902   4.506  19.877
58909W        W59773  24.163   6.774  20.733
58910W        W59774  24.936   5.566  19.410
58911W        W59775  23.791   4.245  18.989
58912W        W59776  22.475   6.798  19.142
58913W        W59777  21.972   4.228  19.614
58914W        W59778  24.583   4.884  19.888
58915W        W59779  22.300   6.662  20.118
58916W        W59780  23.388   6.940  18.741
58917W        W59781  24.951   4.824  18.100
58918W        W59782  22.107   6.761  20.587
58919W        W59783  22.940   6.373  21.025
58920W        W59784  23.041   5.761  19.748
58921W        W59785  22.709   4.152  20.551
58922W        W59786  25.496   3.628  19.919
58923W        W59787  23.095   5.983  18.359
58924W        W59788  22.148   4.491  18.318
58925W        W59789  22.438   6.584  19.641
58926W        W59790  23.378   6.159  19.651
58927W        W59791  24.840   6.910  21.250
58928W        W59792  24.209   4.559  18.980
58929W        W59793  25.118   7.142  19.785
58930W        W59794  24.819   5.074  21.201
58931W        W59795  25.451   6.389  19.440
58932W        W59796  24.175   5.861  21.001
58933W        W59797  21.758   5.468  19.436
58934W        W59798  23.000   5.989  20.608
58935W        W59799  24.189   5.071  19.127
58936W        W59800  24.153   5.561  19.379
58937W        W59801  22.526   4.945  20.654
58938W        W59802  22.294   4.759  21.075
58939W        W59803  22.246   3.866  19.889
58940W        W59804  24.267   4.107  20.321
58941W        W59805  23.775   4.213  21.323
58942W        W59806  23.990   4.465  18.508
58943W        W59807  25.281   6.861  21.531
58944W        W59808  24.131   3.814  21.254
58945W        W59809  25.257   6.312  21.612
58946W        W59810  24.762   4.341  20.940
58947W        W59811  24.756   4.242  19.534
58948W        W59812  24.909   5.400  21.636
58949W        W59813  22.544   7.071  19.832
58950W        W59814  23.461   4.455  18.619
58951W        W59815  22.640   3.949  21.377
58952W        W59816  24.957   4.554  19.154
58953W        W59817  25.339   4.875  18.998
58954W        W59818  22.963   7.088  21.569
58955W        W59819  22.755   3.619  18.863
58956W        W59820  25.401   4.105  19.789
58957W        W59821  25.429   6.570  18.381
58958W        W59822  22.086   5.760  20.202
58959W        W59823  24.177   4.232  18.059
58960W        W59824  25.502   6.532  19.952
58961W        W59825  25.385   3.768  20.578
58962W        W59826  23.969   5.137  21.253
58963W        W59827  23.578   6.110  19.157
58964W        W59828  24.500   5.584  21.872
58965W        W59829  24.253   3.596  20.106
58966W        W59830  22.366   4.839  20.180
58967W        W59831  22.165   6.037  20.876
58968W        W59832  24.164   6.956  19.717
58969W        W59833  25.161   4.626  20.563
58970W        W59834  23.985   7.061  21.156
58971W        W59835  25.204   5.630  18.444
58972W        W59836  23.801   5.386  19.720
58973W        W59837  25.431   3.784  21.109
58974W        W59838  23.695   5.965  20.883
58975W        W59839  24.197   4.735  20.230
58976W        W59840  24.637   5.369  19.016
58977W        W59841  25.013   4.797  18.611
58978W        W59842  25.022   6.611  19.186
58979W        W59843  24.769   6.243  19.899
58980W        W59844  24.254   5.449  18.696
58981W        W59845  24.050   5.715  20.004
58982W        W59846  24.950   5.240  19.811
58983W        W59847  22.298   4.482  20.566
58984W        W59848  25.000   5.539  21.146
58985W        W59849  25.429   7.054  20.356
58986W        W59850  23.288   6.637  19.798
58987W        W59851  24.466   7.147  20.972
58988W        W59852  24.317   4.492  20.677
58989W        W59853  23.564   7.210  20.904
58990W        W59854  25.222   4.121  19.305
58991W        W59855  25.137   5.328  20.368
58992W        W59856  21.835   4.624  20.746
58993W        W59857  24.986   4.699  19.649
58994W        W59858  25.132   4.662  21.082
58995W        W59859  24.194   6.397  19.767
58996W        W59860  23.562   7.034  19.595
58997W        W59861  22.339   3.931  18.807
58998W        W59862  23.707   3.704  20.216
58999W        W59863  22.566   7.315  18.473
59000W        W59864  23.389   5.661  18.947
59001W        W59865  23.751   6.017  21.382
59002W        W59866  23.689   4.200  19.505
59003W        W59867  25.040   3.759  19.660
59004W        W59868  24.598   7.248  19.901
59005W        W59869  24.098   7.059  20.248
59006W        W59870  23.495   5.972  20.417
59007W        W59871  25.179   6.687  20.647
59008W        W59872  22.746   4.029  19.180
59009W        W59873  23.453   6.470  20.270
59010W        W59874  22.707   4.248  18.162
59011W        W59875  23.790   4.921  20.499
59012W        W59876  24.620   3.730  20.428
59013W        W59877  21.914   5.626  20.657
59014W        W59878  23.764   5.301  18.669
59015W        W59879  22.803   3.746  18.240
59016W        W59880  23.890   4.677  19.377
59017W        W59881  24.423   3.979  20.819
59018W        W59882  23.217   5.907  21.080
59019W        W59883  24.091   5.615  21.445
59020W        W59884  24.580   5.743  21.361
59021W        W59885  23.819   3.895  21.726
59022W        W59886  23.016   4.297  20.010
59023W        W59887  22.486   4.272  19.587
59024W        W59888  22.180   7.019  19.488
59025W        W59889  23.857   6.644  21.452
59026W        W59890  23.166   6.265  18.822
59027W        W59891  24.487   5.449  19.955
59028W        W59892  24.623   5.109  20.325
59029W        W59893  23.995   5.886  20.483
59030W        W59894  24.337   6.069  18.216
59031W        W59895  24.017   3.988  19.865
59032W        W59896  25.741   4.527  18.987
59033W        W59897  22.135   7.091  21.310
59034W        W59898  22.539   6.367  20.707
59035W        W59899  21.910   7.143  19.079
59036W        W59900  23.833   4.402  20.411
59037W        W59901  22.925   6.741  18.879
59038W        W59902  25.325   6.917  18.892
59039W        W59903  23.901   5.747  18.945
59040W        W59904  23.417   4.535  19.207
59041W        W59905  23.649   4.355  18.125
59042W        W59906  24.240   6.118  21.489
59043W        W59907  24.786   4.345  18.714
59044W        W59908  21.909   3.691  18.617
59045W        W59909  23.372   6.333  20.764
59046W        W59910  23.120   6.119  20.109
59047W        W59911  22.970   6.510  18.377
59048W        W59912  21.953   6.636  19.147
59049W        W59913  22.694   5.105  21.100
59050W        W59914  23.136   3.856  21.404
59051W        W59915  23.922   4.106  20.827
59052W        W59916  23.108   3.683  19.289
59053W        W59917  23.966   3.775  19.382
59054W        W59918  22.244   3.973  20.404
59055W        W59919  22.001   4.723  19.804
59056W        W59920  25.088   3.811  20.169
59057W        W59921  21.938   4.130  19.090
59058W        W59922  24.898   4.158  20.487
59059W        W59923  25.317   5.133  18.332
59060W        W59924  22.500   4.311  20.104
59061W        W59925  23.921   4.681  20.952
59062W        W59926  21.816   4.198  18.581
59063W        W59927  22.667   5.929  20.995
59064W        W59928  24.104   5.226  20.199
59065W        W59929  23.945   7.307  18.704
59066W        W59930  21.689   5.458  18.002
59067W        W59931  22.882   6.064  21.448
59068W        W59932  22.352   5.505  20.909
59069W        W59933  23.381   5.562  20.709
59070W        W59934  24.929   3.818  20.885
59071W        W59935  25.505   5.547  21.033
59072W        W59936  25.613   5.233  18.751
59073W        W59937  24.322   5.968  18.727
59074W        W59938  24.814   7.256  18.385
59075W        W59939  24.032   5.270  21.815
59076W        W59940  22.551   6.363  21.732
59077W        W59941  25.541   4.229  21.677
59078W        W59942  25.066   4.873  20.134
59079W        W59943  23.487   7.119  21.774
59080W        W59944  23.221   3.689  18.621
59081W        W59945  25.070   6.121  18.513
59082W        W59946  22.978   4.447  20.893
59083W        W59947  23.413   6.388  21.272
59084W        W59948  25.276   4.205  20.837
59085W        W59949  24.814   7.035  18.919
59086W        W59950  24.797   5.921  20.361
59087W        W59951  22.917   3.912  20.940
59088W        W59952  23.497   5.174  21.480
59089W        W59953  22.730   6.353  19.205
59090W        W59954  24.551   5.839  19.182
59091W        W59955  22.490   4.293  21.015
59092W        W59956  23.734   6.500  19.529
59093W        W59957  25.382   5.038  19.602
59094W        W59958  23.607   3.720  21.262
59095W        W59959  24.695   6.457  20.354
59096W        W59960  25.031   6.799  20.167
59097W        W59961  23.721   6.970  18.334
59098W        W59962  21.982   6.403  21.511
59099W        W59963  22.857   4.627  20.391
59100W        W59964  22.749   3.838  19.676
59101W        W59965  24.676   4.583  20.315
59102W        W59966  23.559   5.998  18.593
59103W        W59967  25.286   5.794  20.209
59104W        W59968  22.538   6.804  21.472
59105W        W59969  25.088   7.289  19.268
59106W        W59970  23.170   4.133  19.534
59107W        W59971  22.609   5.758  20.037
59108W        W59972  23.339   7.338  20.471
59109W        W59973  25.039   7.321  21.513
59110W        W59974  24.387   5.566  20.477
59111W        W59975  21.923   5.031  18.227
59112W        W59976  25.390   6.902  19.407
59113W        W59977  25.299   4.326  18.823
59114W        W59978  23.191   3.473  20.972
59115W        W59979  25.057   6.609  19.694
59116W        W59980  24.960   5.061  19.283
59117W        W59981  23.405   4.560  19.737
59118W        W59982  23.562   5.103  20.919
59119W        W59983  24.550   6.248  21.109
59120W        W59984  23.449   4.607  20.767
59121W        W59985  23.073   7.118  19.781
59122W        W59986  22.492   7.278  21.660
59123W        W59987  22.611   6.859  18.194
59124W        W59988  24.968   6.101  19.393
59125W        W59989  23.043   4.966  20.747
59126W        W59990  25.522   4.708  18.548
59127W        W59991  23.080   5.985  19.272
59128W        W59992  24.375   5.390  21.029
59129W        W59993  24.255   5.029  20.682
59130W        W59994  22.836   5.491  20.717
59131W        W59995  24.913   7.137  20.716
59132W        W59996  24.633   3.963  21.291
59133W        W59997  22.146   3.974  21.293
59134W        W59998  22.835   5.167  20.309
59135W        W59999  23.159   4.584  18.112
59136W        W60000  21.956   6.514  21.006
59137W        W60001  23.687   5.482  20.304
59138W        W60002  23.209   4.077  18.257
59139W        W60003  22.547   5.264  19.897
59140W        W60004  22.172   7.233  20.814
59141W        W60005  25.083   5.279  18.792
59142W        W60006  25.125   4.187  21.342
59143W        W60007  24.600   6.451  19.451
59144W        W60008  22.237   5.223  21.327
59145W        W60009  25.212   3.808  18.898
59146W        W60010  24.766   6.227  18.928
59147W        W60011  23.739   5.313  19.184
59148W        W60012  24.692   4.195  18.220
59149W        W60013  24.733   4.831  20.761
59150W        W60014  22.047   5.240  20.031
59151W        W60015  22.871   6.281  19.700
59152W        W60016  24.492   4.708  19.411
59153W        W60017  23.533   4.155  20.025
59154W        W60018  25.438   6.226  20.717
59155W        W60019  25.430   4.228  20.311
59156W        W60020  21.951   7.025  19.942
59157W        W60021  22.221   6.245  19.342
59158W        W60022  22.313   3.977  21.811
59159W        W60023  23.438   6.615  21.752
59160W        W60024  25.343   5.571  19.747
59161W        W60025  24.717   5.676  18.579
59162W        W60026  24.041   7.298  20.704
59163W        W60027  24.896   5.930  21.718
59164W        W60028  23.565   3.634  19.036
59165W        W60029  24.412   4.403  19.895
59166W        W60030  22.158   6.255  20.395
59167W        W60031  23.280   4.074  18.979
59168W        W60032  23.191   5.631  21.524
59169W        W60033  24.201   4.265  19.443
59170W        W60034  24.349   6.232  20.652
59171W        W60035  22.417   6.798  20.979
59172W        W60036  22.991   6.568  21.517
59173W        W60037  22.853   4.075  18.648
59174W        W60038  24.616   4.859  18.923
59175W        W60039  24.356   6.711  21.243
59176W        W60040  23.313   5.324  19.889
59177W        W60041  22.908   7.246  20.733
59178W        W60042  25.312   7.068  18.384
59179W        W60043  22.231   5.807  21.328
59180W        W60044  24.356   6.084  20.162
59181W        W60045  22.582   5.905  19.512
59182W        W60046  23.242   6.840  20.738
59183W        W60047  23.503   3.737  19.626
59184W        W60048  21.787   6.083  19.074
59185W        W60049  23.689   4.862  18.341
59186W        W60050  22.187   5.630  19.724
59187W        W60051  23.404   4.097  20.946
59188W        W60052  25.336   3.911  18.403
59189W        W60053  25.326   5.723  21.500
59190W        W60054  23.976   7.138  21.653
59191W        W60055  25.536   6.121  21.208
59192W        W60056  24.820   6.863  21.780
59193W        W60057  22.827   7.270  20.223
59194W        W60058  25.429   5.872  19.342
59195W        W60059  24.119   4.981  19.718
59196W        W60060  23.891   3.449  19.786
59197W        W60061  22.875   6.754  19.496
59198W        W60062  23.223   4.221  20.480
59199W        W60063  23.166   3.789  19.998
59200W        W60064  22.331   6.882  18.635
59201W        W60065  23.881   5.978  19.586
59202W        W60066  22.908   6.879  21.107
59203W        W60067  22.148   5.745  19.226
59204W        W60068  21.977   4.346  20.159
59205W        W60069  23.837   6.192  20.073
59206W        W60070  21.831   3.636  19.175
59207W        W60071  24.776   5.350  20.731
59208W        W60072  24.529   4.662  18.392
59209W        W60073  25.175   6.300  20.278
59210W        W60074  23.789   6.721  19.987
59211W        W60075  23.202   7.021  19.229
59212W        W60076  24.064   3.740  18.188
59213W        W60077  22.312   7.149  20.295
59214W        W60078  24.149   4.781  21.630
59215W        W60079  22.352   4.398  21.507
59216W        W60080  22.018   4.620  19.279
59217W        W60081  23.758   4.813  18.891
59218W        W60082  24.435   5.220  21.499
59219W        W60083  23.112   5.617  20.263
59220W        W60084  24.406   3.504  19.615
59221W        W60085  23.622   7.202  20.064
59222W        W60086  24.670   6.677  20.823
59223W        W60087  24.582   6.725  19.916
59224W        W60088  24.422   5.914  19.676
59225W        W60089  23.660   3.990  18.523
59226W        W60090  25.542   3.725  19.398
59227W        W60091  23.352   5.518  18.449
59228W        W60092  25.417   4.578  19.396
59229W        W60093  23.953   5.738  18.406
59230W        W60094  25.010   6.037  21.218
59231W        W60095  24.992   6.610  18.664
59232W        W60096  23.257   4.354  21.352
59233W        W60097  23.338   5.130  20.375
59234W        W60098  25.155   6.519  21.139
59235W        W60099  24.259   4.326  21.158
59236W        W60100  21.829   4.960  21.138
59237W        W60101  23.928   5.443  20.762
59238W        W60102  22.267   6.137  19.864
59239W        W60103  22.380   5.380  20.399
59240W        W60104  24.658   5.822  20.853
59241W        W60105  24.484   7.171  21.506
59242W        W60106  24.381   4.823  21.152
59243W        W60107  24.735   6.966  19.470
59244W        W60108  23.688   6.697  20.954
59245W        W60109  23.214   6.916  20.232
59246W        W60110  24.930   6.240  20.750
59247W        W60111  23.849   6.256  21.826
59248W        W60112  22.632   6.248  20.199
59249W        W60113  24.882   5.753  19.881
59250W        W60114  24.572   6.961  20.386
59251W        W60115  22.651   6.849  20.514
59252W        W60116  23.681   4.705  21.414
59253W        W60117  23.693   6.840  19.140
59254W        W60118  23.349   6.103  21.705
59255W        W60119  23.260   6.505  19.276
59256W        W60120  22.466   4.782  18.036
59257W        W60121  21.985   7.353  25.340
59258W        W60122  22.278   6.258  24.997
59259W        W60123  24.974   5.705  22.590
59260W        W60124  25.270   6.984  24.700
59261W        W60125  23.075   6.936  22.039
59262W        W60126  23.427   5.127  23.162
59263W        W60127  22.891   4.832  23.652
59264W        W60128  24.010   5.449  22.737
59265W        W60129  23.388   6.963  24.963
59266W        W60130  21.921   4.313  25.018
59267W        W60131  22.621   3.551  24.713
59268W        W60132  24.518   4.093  23.594
59269W        W60133  24.105   4.770  22.192
59270W        W60134  24.718   4.353  25.261
59271W        W60135  22.080   4.061  24.470
59272W        W60136  22.201   6.929  25.561
59273W        W60137  23.531   6.430  22.222
59274W        W60138  22.026   4.881  23.927
59275W        W60139  22.908   4.919  25.112
59276W        W60140  25.289   4.534  23.787
59277W        W60141  25.151   5.837  24.705
59278W        W60142  23.745   5.171  23.566
59279W        W60143  23.852   6.571  24.030
59280W        W60144  22.396   5.786  24.446
59281W        W60145  21.751   5.308  23.994
59282W        W60146  23.088   5.396  24.942
59283W        W60147  25.105   5.096  25.080
59284W        W60148  22.689   6.361  23.663
59285W        W60149  24.146   6.231  24.887
59286W        W60150  23.228   4.868  24.055
59287W        W60151  23.495   5.636  23.691
59288W        W60152  24.498   6.869  25.360
59289W        W60153  23.345   5.669  25.352
59290W        W60154  23.575   5.551  24.907
59291W        W60155  21.909   4.754  25.372
59292W        W60156  24.858   6.783  24.991
59293W        W60157  22.255   3.861  23.059
59294W        W60158  22.901   6.242  24.114
59295W        W60159  25.334   6.108  23.552
59296W        W60160  24.672   4.474  23.934
59297W        W60161  25.048   4.402  21.835
59298W        W60162  25.489   5.129  24.433
59299W        W60163  23.186   7.162  23.937
59300W        W60164  25.102   6.630  22.591
59301W        W60165  22.154   7.212  22.636
59302W        W60166  22.609   7.207  23.013
59303W        W60167  22.526   3.832  24.287
59304W        W60168  25.108   4.822  24.632
59305W        W60169  24.732   5.348  23.379
59306W        W60170  24.480   5.047  21.968
59307W        W60171  23.785   6.151  24.331
59308W        W60172  23.894   4.683  23.427
59309W        W60173  24.063   6.564  24.506
59310W        W60174  25.042   5.377  22.969
59311W        W60175  24.203   4.146  22.715
59312W        W60176  22.346   6.781  22.884
59313W        W60177  21.891   4.233  23.150
59314W        W60178  24.743   4.928  23.690
59315W        W60179  22.232   6.576  23.811
59316W        W60180  23.531   6.949  22.287
59317W        W60181  24.858   4.872  21.665
59318W        W60182  22.025   6.701  24.298
59319W        W60183  22.699   6.250  24.627
59320W        W60184  23.180   5.609  23.295
59321W        W60185  22.965   4.051  24.098
59322W        W60186  25.429   3.752  23.811
59323W        W60187  22.706   5.556  21.333
59324W        W60188  22.199   4.458  22.008
59325W        W60189  22.101   6.679  23.329
59326W        W60190  23.367   6.083  23.473
59327W        W60191  24.710   7.010  24.561
59328W        W60192  23.822   4.462  22.524
59329W        W60193  25.009   7.102  23.601
59330W        W60194  24.692   4.770  24.940
59331W        W60195  25.539   6.565  23.354
59332W        W60196  23.981   5.786  24.668
59333W        W60197  21.547   5.455  23.065
59334W        W60198  22.923   5.815  24.435
59335W        W60199  24.274   4.998  22.646
59336W        W60200  24.264   5.473  23.201
59337W        W60201  22.413   4.811  24.268
59338W        W60202  22.411   4.924  25.288
59339W        W60203  22.273   3.724  23.553
59340W        W60204  23.996   4.317  23.803
59341W        W60205  23.810   4.202  25.172
59342W        W60206  24.202   4.245  22.188
59343W        W60207  25.351   6.693  25.143
59344W        W60208  24.166   3.766  25.050
59345W        W60209  25.174   6.160  25.243
59346W        W60210  24.786   4.301  24.737
59347W        W60211  24.515   4.338  23.094
59348W        W60212  24.920   5.345  25.514
59349W        W60213  22.439   7.053  23.507
59350W        W60214  23.428   4.504  22.171
59351W        W60215  22.850   4.087  25.142
59352W        W60216  24.926   4.549  22.919
59353W        W60217  25.316   4.858  22.798
59354W        W60218  23.013   7.231  25.237
59355W        W60219  22.739   3.756  22.421
59356W        W60220  25.346   4.119  23.455
59357W        W60221  25.243   6.649  22.040
59358W        W60222  22.097   5.743  23.919
59359W        W60223  24.243   4.194  21.642
59360W        W60224  25.312   6.791  23.900
59361W        W60225  25.308   3.721  24.348
59362W        W60226  23.761   5.056  24.866
59363W        W60227  23.679   6.340  22.733
59364W        W60228  24.340   5.535  25.507
59365W        W60229  23.898   3.773  23.544
59366W        W60230  22.443   4.612  23.759
59367W        W60231  22.052   5.803  24.852
59368W        W60232  23.929   6.910  23.314
59369W        W60233  25.053   4.457  24.265
59370W        W60234  23.822   7.012  24.660
59371W        W60235  25.139   5.621  22.061
59372W        W60236  23.724   5.548  23.192
59373W        W60237  25.448   3.709  24.854
59374W        W60238  23.451   5.732  24.457
59375W        W60239  23.726   4.770  23.906
59376W        W60240  24.810   4.993  22.687
59377W        W60241  24.860   4.787  22.209
59378W        W60242  24.772   6.710  23.008
59379W        W60243  24.646   6.258  23.761
59380W        W60244  24.537   5.428  22.742
59381W        W60245  23.988   5.632  23.618
59382W        W60246  24.933   5.388  23.856
59383W        W60247  22.122   4.398  24.095
59384W        W60248  24.742   5.454  25.036
59385W        W60249  25.012   7.165  24.147
59386W        W60250  23.139   6.604  23.522
59387W        W60251  24.245   7.293  24.691
59388W        W60252  24.192   4.447  24.477
59389W        W60253  23.628   7.453  24.480
59390W        W60254  25.264   4.172  22.907
59391W        W60255  25.067   5.465  24.353
59392W        W60256  22.071   4.562  24.587
59393W        W60257  24.889   4.477  23.453
59394W        W60258  25.171   4.581  25.084
59395W        W60259  24.154   6.402  23.605
59396W        W60260  23.399   6.959  23.251
59397W        W60261  22.281   4.006  22.333
59398W        W60262  23.629   3.937  23.956
59399W        W60263  22.646   7.016  22.523
59400W        W60264  23.497   5.448  22.736
59401W        W60265  23.606   6.103  24.824
59402W        W60266  23.707   4.151  22.950
59403W        W60267  24.894   4.013  23.232
59404W        W60268  24.555   7.229  23.857
59405W        W60269  23.753   7.073  24.152
59406W        W60270  23.348   5.981  24.030
59407W        W60271  25.053   6.660  24.361
59408W        W60272  22.684   4.058  22.857
59409W        W60273  23.243   6.662  24.035
59410W        W60274  22.867   4.278  21.694
59411W        W60275  23.629   4.867  24.397
59412W        W60276  24.460   3.580  24.188
59413W        W60277  21.913   5.633  24.374
59414W        W60278  23.733   5.398  22.230
59415W        W60279  22.843   3.779  21.883
59416W        W60280  23.954   5.072  23.089
59417W        W60281  24.414   3.946  24.591
59418W        W60282  23.123   5.925  24.920
59419W        W60283  23.987   5.403  25.160
59420W        W60284  24.350   5.783  25.033
59421W        W60285  23.816   3.862  25.572
59422W        W60286  22.899   4.317  23.613
59423W        W60287  22.401   4.282  23.331
59424W        W60288  22.074   7.154  23.140
59425W        W60289  23.759   6.583  24.927
59426W        W60290  23.210   6.178  22.561
59427W        W60291  24.445   5.512  23.764
59428W        W60292  24.556   5.153  24.125
59429W        W60293  23.817   5.701  24.096
59430W        W60294  24.472   6.115  21.945
59431W        W60295  24.076   4.206  23.302
59432W        W60296  25.166   4.468  22.470
59433W        W60297  22.079   6.993  24.990
59434W        W60298  22.193   6.251  24.492
59435W        W60299  21.637   7.179  22.509
59436W        W60300  23.727   4.367  24.259
59437W        W60301  23.143   6.681  22.482
59438W        W60302  24.904   7.066  22.363
59439W        W60303  24.243   5.367  22.285
59440W        W60304  23.593   4.655  23.003
59441W        W60305  23.818   4.414  21.839
59442W        W60306  24.608   6.340  25.137
59443W        W60307  24.771   4.095  22.721
59444W        W60308  21.871   3.692  22.228
59445W        W60309  23.250   6.203  24.478
59446W        W60310  22.959   5.898  23.706
59447W        W60311  23.037   6.411  22.021
59448W        W60312  21.817   6.799  22.816
59449W        W60313  22.595   5.343  25.062
59450W        W60314  23.333   4.009  25.334
59451W        W60315  23.898   4.042  24.669
59452W        W60316  23.102   3.762  22.825
59453W        W60317  24.702   3.773  22.297
59454W        W60318  22.082   3.825  24.028
59455W        W60319  22.052   4.659  23.434
59456W        W60320  25.004   4.097  23.823
59457W        W60321  22.223   4.294  22.762
59458W        W60322  24.854   3.976  24.307
59459W        W60323  25.182   5.107  21.971
59460W        W60324  22.490   4.105  23.846
59461W        W60325  23.742   4.528  24.770
59462W        W60326  21.805   4.203  22.230
59463W        W60327  22.605   5.826  24.908
59464W        W60328  24.051   5.231  23.986
59465W        W60329  23.920   7.275  22.183
59466W        W60330  21.960   5.485  21.684
59467W        W60331  22.772   6.262  25.162
59468W        W60332  22.239   5.356  24.701
59469W        W60333  23.280   5.246  24.486
59470W        W60334  24.922   3.757  24.768
59471W        W60335  25.477   5.451  24.824
59472W        W60336  25.223   5.257  22.478
59473W        W60337  24.242   5.894  22.893
59474W        W60338  24.745   7.343  21.934
59475W        W60339  24.006   5.058  25.533
59476W        W60340  22.358   6.313  25.541
59477W        W60341  25.591   4.195  25.422
59478W        W60342  25.072   4.961  24.127
59479W        W60343  23.510   7.161  25.434
59480W        W60344  23.251   3.736  22.269
59481W        W60345  24.938   6.092  22.229
59482W        W60346  22.414   4.477  25.021
59483W        W60347  23.222   6.467  24.918
59484W        W60348  25.265   4.157  24.629
59485W        W60349  24.446   7.363  22.360
59486W        W60350  24.701   5.801  24.084
59487W        W60351  22.903   3.988  24.626
59488W        W60352  23.464   5.164  25.279
59489W        W60353  22.782   6.485  22.800
59490W        W60354  24.699   5.765  23.077
59491W        W60355  22.531   4.335  24.476
59492W        W60356  23.650   6.493  23.401
59493W        W60357  25.270   5.024  23.641
59494W        W60358  23.644   3.741  25.004
59495W        W60359  24.358   6.496  24.099
59496W        W60360  24.774   6.753  23.940
59497W        W60361  23.881   6.759  21.976
59498W        W60362  21.973   6.566  25.288
59499W        W60363  22.828   4.541  24.089
59500W        W60364  22.730   3.893  23.354
59501W        W60365  24.243   4.751  23.979
59502W        W60366  23.561   5.911  22.151
59503W        W60367  25.204   5.833  23.996
59504W        W60368  22.492   6.698  25.206
59505W        W60369  24.966   7.287  22.860
59506W        W60370  23.164   4.153  23.166
59507W        W60371  22.626   5.663  24.020
59508W        W60372  23.301   7.050  24.448
59509W        W60373  25.152   7.216  25.160
59510W        W60374  24.279   5.572  24.286
59511W        W60375  22.001   4.787  21.596
59512W        W60376  25.237   6.899  23.108
59513W        W60377  24.768   4.265  22.240
59514W        W60378  23.103   3.648  25.005
59515W        W60379  25.039   6.579  23.511
59516W        W60380  24.992   4.944  23.223
59517W        W60381  23.385   4.720  23.513
59518W        W60382  23.311   4.827  24.814
59519W        W60383  22.898   4.488  24.821
59520W        W60384  22.961   7.122  23.458
59521W        W60385  22.503   7.217  25.212
59522W        W60386  22.595   6.744  22.083
59523W        W60387  25.170   6.382  23.054
59524W        W60388  22.511   4.911  24.765
59525W        W60389  25.440   4.658  22.053
59526W        W60390  23.437   5.950  22.984
59527W        W60391  24.277   5.344  24.757
59528W        W60392  24.155   4.967  24.433
59529W        W60393  22.727   5.353  24.531
59530W        W60394  24.588   7.444  24.322
59531W        W60395  24.660   3.833  25.208
59532W        W60396  22.361   3.979  24.889
59533W        W60397  22.764   5.135  24.050
59534W        W60398  23.246   4.714  21.714
59535W        W60399  21.874   6.543  24.775
59536W        W60400  23.553   5.257  24.045
59537W        W60401  23.356   4.122  21.813
59538W        W60402  22.766   5.414  23.600
59539W        W60403  22.222   7.202  24.523
59540W        W60404  24.763   5.336  22.271
59541W        W60405  25.149   4.070  25.128
59542W        W60406  24.723   6.250  23.259
59543W        W60407  22.073   5.343  25.236
59544W        W60408  25.185   3.952  22.441
59545W        W60409  24.794   6.168  22.748
59546W        W60410  23.764   4.989  22.594
59547W        W60411  24.715   4.017  21.790
59548W        W60412  24.629   4.714  24.407
59549W        W60413  22.227   5.296  23.679
59550W        W60414  22.414   6.289  23.235
59551W        W60415  24.493   4.913  23.109
59552W        W60416  23.332   4.377  23.906
59553W        W60417  25.407   6.193  24.402
59554W        W60418  25.444   4.167  24.123
59555W        W60419  21.947   7.057  23.660
59556W        W60420  22.066   6.341  22.863
59557W        W60421  22.414   4.129  25.418
59558W        W60422  23.517   6.644  25.371
59559W        W60423  25.284   5.538  23.515
59560W        W60424  24.510   5.803  22.372
59561W        W60425  24.076   7.488  24.195
59562W        W60426  24.740   5.843  25.374
59563W        W60427  23.595   3.711  22.662
59564W        W60428  24.384   4.587  23.513
59565W        W60429  21.877   6.225  24.080
59566W        W60430  23.337   4.169  22.589
59567W        W60431  22.829   5.794  25.391
59568W        W60432  24.102   4.601  22.945
59569W        W60433  24.332   6.086  24.422
59570W        W60434  22.389   6.700  24.700
59571W        W60435  23.006   6.711  25.320
59572W        W60436  22.991   4.175  22.195
59573W        W60437  24.513   4.551  22.583
59574W        W60438  24.310   6.816  24.883
59575W        W60439  23.233   5.204  23.647
59576W        W60440  22.774   7.091  24.319
59577W        W60441  25.228   7.156  21.971
59578W        W60442  22.280   5.839  25.322
59579W        W60443  24.237   5.978  23.936
59580W        W60444  22.924   6.184  23.238
59581W        W60445  22.990   6.640  24.473
59582W        W60446  23.588   4.225  23.474
59583W        W60447  21.439   6.190  22.205
59584W        W60448  23.682   4.915  21.915
59585W        W60449  22.458   5.883  23.571
59586W        W60450  23.363   4.156  24.833
59587W        W60451  25.202   3.881  21.930
59588W        W60452  25.194   5.648  25.199
59589W        W60453  23.950   7.024  25.181
59590W        W60454  25.580   5.969  24.943
59591W        W60455  24.999   6.782  25.498
59592W        W60456  22.683   7.337  23.867
59593W        W60457  25.183   5.875  23.122
59594W        W60458  24.256   5.082  23.541
59595W        W60459  23.489   3.746  23.211
59596W        W60460  22.718   6.711  23.253
59597W        W60461  23.242   4.466  24.421
59598W        W60462  23.206   3.901  23.640
59599W        W60463  21.984   6.834  22.315
59600W        W60464  23.878   6.035  23.278
59601W        W60465  22.845   6.925  24.864
59602W        W60466  21.748   5.862  22.479
59603W        W60467  22.004   4.173  23.645
59604W        W60468  23.773   6.106  23.781
59605W        W60469  21.872   3.920  22.704
59606W        W60470  24.734   5.175  24.610
59607W        W60471  24.516   4.542  21.904
59608W        W60472  25.106   6.329  23.967
59609W        W60473  23.581   6.896  23.714
59610W        W60474  23.036   6.955  22.894
59611W        W60475  24.309   3.690  21.745
59612W        W60476  22.318   7.027  24.034
59613W        W60477  24.296   4.636  25.408
59614W        W60478  22.306   4.578  25.667
59615W        W60479  21.995   4.729  22.934
59616W        W60480  23.308   5.294  21.935
59617W        W60481  24.424   5.112  25.231
59618W        W60482  23.117   5.517  24.055
59619W        W60483  24.572   3.463  23.639
59620W        W60484  23.399   7.410  23.531
59621W        W60485  24.590   6.503  24.605
59622W        W60486  24.151   6.903  23.786
59623W        W60487  24.366   5.930  23.440
59624W        W60488  23.690   4.051  22.220
59625W        W60489  25.506   3.751  23.139
59626W        W60490  22.973   5.135  21.542
59627W        W60491  25.348   4.587  23.243
59628W        W60492  24.054   5.787  21.998
59629W        W60493  24.350   7.013  21.993
59630W        W60494  23.248   4.500  25.214
59631W        W60495  22.920   4.873  24.473
59632W        W60496  25.124   6.387  24.788
59633W        W60497  24.293   4.286  24.959
59634W        W60498  22.028   4.942  24.923
59635W        W60499  23.819   5.353  24.466
59636W        W60500  22.001   6.163  23.574
59637W        W60501  22.290   5.318  24.188
59638W        W60502  24.656   5.714  24.602
59639W        W60503  24.638   7.258  25.034
59640W        W60504  24.179   4.783  24.917
59641W        W60505  24.543   6.740  23.483
59642W        W60506  23.549   6.609  24.458
59643W        W60507  22.780   6.828  23.848
59644W        W60508  24.882   6.149  24.393
59645W        W60509  23.858   5.895  25.214
59646W        W60510  22.400   6.133  24.033
59647W        W60511  24.866   5.832  23.574
59648W        W60512  24.271   6.989  24.278
59649W        W60513  22.536   6.589  24.230
59650W        W60514  23.732   4.711  25.266
59651W        W60515  23.595   6.853  22.796
59652W        W60516  23.236   6.188  25.377
59653W        W60517  23.268   6.497  23.015
59654W        W60518  22.771   4.640  21.327
59655W        W60519  22.002   7.236  28.820
59656W        W60520  22.433   6.277  28.429
59657W        W60521  25.127   5.620  26.183
59658W        W60522  25.332   6.944  28.169
59659W        W60523  23.058   7.063  25.709
59660W        W60524  23.135   4.994  26.597
59661W        W60525  22.630   5.013  26.787
59662W        W60526  23.639   5.617  26.129
59663W        W60527  23.436   7.058  28.306
59664W        W60528  22.148   4.552  28.554
59665W        W60529  22.543   3.820  28.176
59666W        W60530  24.480   4.062  27.226
59667W        W60531  24.172   4.748  25.918
59668W        W60532  24.638   4.411  28.775
59669W        W60533  22.121   4.103  28.078
59670W        W60534  22.225   6.706  28.838
59671W        W60535  23.214   5.823  25.837
59672W        W60536  22.105   4.851  27.531
59673W        W60537  23.079   4.816  28.735
59674W        W60538  25.328   4.734  27.324
59675W        W60539  25.135   5.751  28.046
59676W        W60540  23.475   5.031  27.081
59677W        W60541  24.086   6.542  27.672
59678W        W60542  22.470   5.782  27.779
59679W        W60543  21.837   5.309  27.423
59680W        W60544  23.005   5.255  28.414
59681W        W60545  25.263   5.155  28.706
59682W        W60546  22.785   6.545  27.156
59683W        W60547  23.861   6.313  28.109
59684W        W60548  23.295   4.729  27.482
59685W        W60549  23.381   5.672  27.184
59686W        W60550  24.144   6.520  28.956
59687W        W60551  23.420   5.745  28.829
59688W        W60552  23.627   5.475  28.420
59689W        W60553  21.949   4.828  28.970
59690W        W60554  24.638   6.374  28.754
59691W        W60555  22.392   3.979  26.713
59692W        W60556  23.021   6.393  27.624
59693W        W60557  25.290   6.141  27.025
59694W        W60558  24.609   4.383  27.600
59695W        W60559  25.128   4.417  25.582
59696W        W60560  25.523   5.164  27.928
59697W        W60561  23.492   7.037  27.606
59698W        W60562  25.332   6.466  26.408
59699W        W60563  22.406   7.386  26.207
59700W        W60564  22.776   7.142  26.560
59701W        W60565  22.768   4.021  27.732
59702W        W60566  25.174   4.831  28.116
59703W        W60567  24.465   5.245  26.775
59704W        W60568  24.500   5.118  25.777
59705W        W60569  23.886   6.079  27.647
59706W        W60570  23.502   4.517  26.996
59707W        W60571  24.302   6.820  28.031
59708W        W60572  24.956   5.420  26.672
59709W        W60573  24.058   4.057  26.444
59710W        W60574  22.521   6.891  26.182
59711W        W60575  21.997   4.288  26.795
59712W        W60576  24.484   4.996  27.235
59713W        W60577  22.262   6.549  27.214
59714W        W60578  23.479   7.002  26.012
59715W        W60579  24.804   4.832  25.444
59716W        W60580  22.032   6.640  27.800
59717W        W60581  22.834   6.464  28.119
59718W        W60582  23.117   5.778  26.763
59719W        W60583  23.281   4.095  27.797
59720W        W60584  25.544   3.845  27.361
59721W        W60585  22.485   5.427  25.547
59722W        W60586  22.295   4.806  26.126
59723W        W60587  22.457   6.561  26.699
59724W        W60588  23.301   6.273  26.796
59725W        W60589  24.884   6.784  28.552
59726W        W60590  23.840   4.542  26.237
59727W        W60591  25.152   7.158  26.994
59728W        W60592  24.833   4.981  28.454
59729W        W60593  25.623   6.489  26.845
59730W        W60594  24.104   5.763  28.248
59731W        W60595  21.779   5.485  26.524
59732W        W60596  22.920   5.981  27.931
59733W        W60597  24.137   4.926  26.426
59734W        W60598  23.933   5.381  26.526
59735W        W60599  22.542   4.879  27.840
59736W        W60600  22.436   4.905  28.857
59737W        W60601  22.230   3.762  27.127
59738W        W60602  24.102   4.170  27.566
59739W        W60603  23.652   4.257  28.769
59740W        W60604  24.245   4.153  25.943
59741W        W60605  25.393   6.715  28.669
59742W        W60606  24.203   3.812  28.716
59743W        W60607  25.161   6.267  28.788
59744W        W60608  24.810   4.481  28.283
59745W        W60609  24.470   4.221  26.747
59746W        W60610  24.885   5.392  28.955
59747W        W60611  22.506   6.961  27.012
59748W        W60612  23.333   4.634  26.259
59749W        W60613  22.823   3.916  28.664
59750W        W60614  24.873   4.529  26.553
59751W        W60615  25.129   4.974  26.469
59752W        W60616  22.982   7.109  28.750
59753W        W60617  22.902   3.726  26.063
59754W        W60618  25.296   4.235  27.140
59755W        W60619  25.354   6.330  25.701
59756W        W60620  22.195   5.700  27.316
59757W        W60621  24.269   4.119  25.435
59758W        W60622  25.397   6.550  27.352
59759W        W60623  25.368   3.866  27.860
59760W        W60624  23.678   4.784  28.826
59761W        W60625  23.337   5.992  26.348
59762W        W60626  24.415   5.534   0.084
59763W        W60627  24.163   3.686  27.351
59764W        W60628  22.549   4.698  27.310
59765W        W60629  22.136   5.925  28.190
59766W        W60630  24.006   7.080  26.940
59767W        W60631  25.083   4.500  27.735
59768W        W60632  24.007   7.099  28.347
59769W        W60633  25.127   5.844  25.695
59770W        W60634  23.451   5.384  26.707
59771W        W60635  25.453   3.847  28.373
59772W        W60636  23.642   5.821  28.011
59773W        W60637  23.813   4.740  27.362
59774W        W60638  24.638   4.887  26.253
59775W        W60639  25.075   4.658  26.049
59776W        W60640  24.955   6.829  26.470
59777W        W60641  24.465   6.085  27.458
59778W        W60642  24.426   5.355  26.267
59779W        W60643  23.831   5.418  27.052
59780W        W60644  24.937   5.393  27.209
59781W        W60645  22.364   4.396  27.706
59782W        W60646  24.920   5.483  28.441
59783W        W60647  25.400   7.037  27.584
59784W        W60648  23.294   6.621  27.213
59785W        W60649  24.533   7.149  28.426
59786W        W60650  24.333   4.425  28.037
59787W        W60651  23.721   7.343  27.979
59788W        W60652  25.224   4.157  26.574
59789W        W60653  24.943   5.278  27.965
59790W        W60654  22.094   4.684  28.052
59791W        W60655  24.808   4.474  27.110
59792W        W60656  25.199   4.614  28.597
59793W        W60657  24.101   6.353  27.192
59794W        W60658  23.302   7.014  26.590
59795W        W60659  22.494   4.187  25.954
59796W        W60660  23.691   3.799  27.521
59797W        W60661  22.563   7.235  25.745
59798W        W60662  23.144   5.489  26.309
59799W        W60663  23.691   5.996  28.470
59800W        W60664  23.574   4.222  26.555
59801W        W60665  24.894   3.977  26.939
59802W        W60666  24.750   7.319  27.254
59803W        W60667  24.020   7.066  27.651
59804W        W60668  23.347   5.973  27.627
59805W        W60669  25.138   6.620  27.793
59806W        W60670  22.768   4.108  26.406
59807W        W60671  23.547   6.466  27.662
59808W        W60672  22.763   4.533  25.421
59809W        W60673  23.630   4.990  27.793
59810W        W60674  24.500   3.876  27.711
59811W        W60675  21.977   5.650  27.801
59812W        W60676  23.363   5.314  25.784
59813W        W60677  22.915   4.094  25.666
59814W        W60678  23.650   4.846  26.632
59815W        W60679  24.507   4.067  28.372
59816W        W60680  23.207   5.773  28.324
59817W        W60681  23.985   5.625  28.767
59818W        W60682  24.479   5.698  28.600
59819W        W60683  23.821   3.851   0.059
59820W        W60684  23.055   4.286  27.321
59821W        W60685  22.614   4.455  26.847
59822W        W60686  22.247   7.075  26.588
59823W        W60687  23.764   6.607  28.555
59824W        W60688  22.458   5.861  25.842
59825W        W60689  24.422   5.517  27.249
59826W        W60690  24.490   5.253  27.710
59827W        W60691  23.709   5.583  27.563
59828W        W60692  24.287   6.063  25.470
59829W        W60693  23.919   4.101  27.074
59830W        W60694  25.485   4.558  26.353
59831W        W60695  22.012   6.936  28.418
59832W        W60696  22.388   6.270  27.914
59833W        W60697  21.855   7.412  26.302
59834W        W60698  23.853   4.508  27.840
59835W        W60699  23.199   6.566  25.796
59836W        W60700  25.339   6.989  26.134
59837W        W60701  23.979   5.219  26.017
59838W        W60702  22.767   4.683  26.397
59839W        W60703  23.885   4.399  25.659
59840W        W60704  24.190   6.198  28.516
59841W        W60705  24.784   4.182  26.188
59842W        W60706  22.018   3.857  25.854
59843W        W60707  23.334   6.250  28.125
59844W        W60708  23.057   6.085  27.205
59845W        W60709  22.839   6.198  25.729
59846W        W60710  22.178   6.515  26.268
59847W        W60711  22.515   5.355  28.600
59848W        W60712  23.329   3.852  28.847
59849W        W60713  23.971   4.085  28.165
59850W        W60714  23.197   3.811  26.569
59851W        W60715  24.026   3.688  26.071
59852W        W60716  22.288   3.874  27.652
59853W        W60717  22.171   4.753  26.916
59854W        W60718  24.975   4.003  27.467
59855W        W60719  22.336   4.389  26.418
59856W        W60720  24.889   4.073  27.981
59857W        W60721  25.266   4.936  25.623
59858W        W60722  22.533   4.172  27.274
59859W        W60723  23.782   4.585  28.349
59860W        W60724  22.000   4.335  26.043
59861W        W60725  22.627   5.794  28.315
59862W        W60726  24.036   5.198  27.476
59863W        W60727  23.863   7.384  26.033
59864W        W60728  22.017   5.588  25.733
59865W        W60729  22.941   6.171  28.533
59866W        W60730  22.316   5.407  28.136
59867W        W60731  23.350   5.403  27.986
59868W        W60732  24.816   3.674  28.301
59869W        W60733  25.473   5.470  28.334
59870W        W60734  25.413   5.425  25.782
59871W        W60735  24.167   5.699  25.969
59872W        W60736  24.786   7.267  25.540
59873W        W60737  24.019   5.190   0.097
59874W        W60738  22.540   6.077  28.888
59875W        W60739  25.477   4.178  28.802
59876W        W60740  24.912   4.967  27.532
59877W        W60741  23.475   6.974  28.821
59878W        W60742  23.347   3.825  25.808
59879W        W60743  24.831   6.287  25.624
59880W        W60744  22.671   4.472  28.675
59881W        W60745  23.204   6.640  28.473
59882W        W60746  25.301   4.312  28.179
59883W        W60747  24.870   7.232  26.054
59884W        W60748  24.773   5.695  27.611
59885W        W60749  22.961   4.131  28.201
59886W        W60750  23.375   5.226  28.815
59887W        W60751  22.726   6.419  26.247
59888W        W60752  24.692   5.792  26.418
59889W        W60753  22.524   4.400  28.189
59890W        W60754  23.631   6.689  26.817
59891W        W60755  25.419   5.119  26.946
59892W        W60756  23.728   3.785  28.528
59893W        W60757  24.610   6.550  27.681
59894W        W60758  24.933   6.839  27.372
59895W        W60759  24.110   6.531  25.300
59896W        W60760  22.013   6.214  28.763
59897W        W60761  22.895   4.508  27.769
59898W        W60762  22.868   3.987  26.932
59899W        W60763  24.263   4.756  27.628
59900W        W60764  22.834   5.478  25.906
59901W        W60765  25.232   5.797  27.409
59902W        W60766  22.717   6.644  28.650
59903W        W60767  25.118   7.318  26.503
59904W        W60768  23.107   4.391  26.681
59905W        W60769  22.664   5.737  27.066
59906W        W60770  23.129   7.251  27.907
59907W        W60771  25.189   7.182  28.667
59908W        W60772  24.218   5.689  27.712
59909W        W60773  22.167   5.081  25.712
59910W        W60774  25.442   6.930  26.627
59911W        W60775  25.279   4.181  26.034
59912W        W60776  23.208   3.715  28.383
59913W        W60777  25.124   6.634  26.924
59914W        W60778  24.910   4.957  26.941
59915W        W60779  23.010   4.762  27.053
59916W        W60780  23.442   4.981  28.318
59917W        W60781  24.626   6.454  28.239
59918W        W60782  22.979   4.643  28.273
59919W        W60783  23.007   7.038  27.026
59920W        W60784  22.482   7.107  28.586
59921W        W60785  22.671   6.704  25.723
59922W        W60786  24.933   6.218  26.657
59923W        W60787  22.550   4.903  28.353
59924W        W60788  25.483   5.012  26.103
59925W        W60789  22.842   5.916  26.203
59926W        W60790  23.979   5.107  28.542
59927W        W60791  24.086   4.905  28.071
59928W        W60792  22.807   5.426  27.953
59929W        W60793  24.983   7.287  27.720
59930W        W60794  24.686   3.872  28.853
59931W        W60795  22.322   4.058  28.589
59932W        W60796  22.796   5.132  27.451
59933W        W60797  23.168   4.845  25.591
59934W        W60798  21.967   6.435  28.278
59935W        W60799  23.291   5.265  27.495
59936W        W60800  23.370   4.370  25.725
59937W        W60801  22.612   5.179  26.271
59938W        W60802  22.089   7.157  27.963
59939W        W60803  24.981   5.171  25.996
59940W        W60804  25.027   4.099  28.561
59941W        W60805  24.653   6.447  27.111
59942W        W60806  22.106   5.315  28.943
59943W        W60807  25.078   3.706  26.062
59944W        W60808  25.044   6.123  26.129
59945W        W60809  23.526   5.132  26.246
59946W        W60810  24.729   4.053  25.683
59947W        W60811  24.642   4.843  27.975
59948W        W60812  22.286   5.209  27.132
59949W        W60813  22.777   6.161  26.762
59950W        W60814  24.470   4.736  26.769
59951W        W60815  23.585   4.289  27.443
59952W        W60816  25.407   6.192  27.857
59953W        W60817  25.539   4.300  27.611
59954W        W60818  21.963   6.946  27.019
59955W        W60819  22.388   6.045  26.445
59956W        W60820  22.470   3.870   0.065
59957W        W60821  23.633   6.563   0.128
59958W        W60822  25.350   5.628  26.940
59959W        W60823  24.691   5.622  25.891
59960W        W60824  24.304   7.350  28.007
59961W        W60825  24.818   5.909  28.946
59962W        W60826  23.529   3.606  26.233
59963W        W60827  24.254   4.513  27.180
59964W        W60828  22.069   6.161  27.505
59965W        W60829  23.209   4.150  26.171
59966W        W60830  22.907   5.681  28.735
59967W        W60831  24.004   4.488  26.729
59968W        W60832  24.325   6.151  27.954
59969W        W60833  22.409   6.746  28.164
59970W        W60834  23.108   6.649  29.000
59971W        W60835  22.907   4.531  25.932
59972W        W60836  24.360   4.471  26.321
59973W        W60837  24.290   6.709  28.522
59974W        W60838  23.018   5.319  27.013
59975W        W60839  22.600   7.131  27.860
59976W        W60840  25.313   7.175  25.658
59977W        W60841  22.197   5.744  28.661
59978W        W60842  24.023   5.848  27.226
59979W        W60843  22.682   5.588  26.567
59980W        W60844  23.233   6.742  27.957
59981W        W60845  23.390   4.009  27.020
59982W        W60846  22.006   6.025  26.078
59983W        W60847  23.634   4.833  25.831
59984W        W60848  22.221   5.602  26.786
59985W        W60849  23.473   4.162  28.281
59986W        W60850  25.213   3.892  25.603
59987W        W60851  25.261   5.738  28.728
59988W        W60852  23.998   7.021  28.864
59989W        W60853  25.483   6.013  28.340
59990W        W60854  24.982   6.681   0.060
59991W        W60855  22.669   7.270  27.384
59992W        W60856  25.370   5.943  26.525
59993W        W60857  24.041   4.965  26.954
59994W        W60858  23.716   3.748  26.726
59995W        W60859  22.960   6.649  26.673
59996W        W60860  23.377   4.570  27.976
59997W        W60861  23.181   3.763  27.416
59998W        W60862  22.051   7.002  26.048
59999W        W60863  23.665   5.855  26.788
60000W        W60864  22.877   6.983  28.265
60001W        W60865  22.238   5.570  26.244
60002W        W60866  22.066   4.388  27.288
60003W        W60867  23.595   6.181  27.217
60004W        W60868  21.962   3.957  26.396
60005W        W60869  24.423   5.264  28.246
60006W        W60870  24.623   4.534  25.826
60007W        W60871  24.990   6.254  27.437
60008W        W60872  23.793   6.755  27.302
60009W        W60873  23.017   6.858  26.186
60010W        W60874  24.284   3.635  25.594
60011W        W60875  22.221   7.011  27.474
60012W        W60876  24.210   4.715  28.951
60013W        W60877  22.320   4.395   0.041
60014W        W60878  22.163   5.128  26.546
60015W        W60879  23.055   5.019  26.074
60016W        W60880  24.454   5.156  28.755
60017W        W60881  22.934   5.660  27.501
60018W        W60882  24.241   3.748  26.845
60019W        W60883  23.506   7.144  27.082
60020W        W60884  24.811   6.905  28.052
60021W        W60885  24.319   6.820  27.275
60022W        W60886  24.252   5.712  26.779
60023W        W60887  23.710   4.091  26.047
60024W        W60888  25.548   3.803  26.822
60025W        W60889  22.974   5.301  25.443
60026W        W60890  25.295   4.638  26.822
60027W        W60891  23.799   5.538  25.620
60028W        W60892  24.877   6.013  28.430
60029W        W60893  25.016   6.622  25.992
60030W        W60894  23.158   4.313  28.661
60031W        W60895  23.071   4.984  27.893
60032W        W60896  25.154   6.431  28.276
60033W        W60897  24.134   4.320  28.611
60034W        W60898  22.080   5.063  28.481
60035W        W60899  23.912   5.370  27.991
60036W        W60900  22.280   6.095  26.972
60037W        W60901  22.339   5.307  27.633
60038W        W60902  24.603   5.719  28.088
60039W        W60903  24.535   6.930  28.921
60040W        W60904  24.379   4.743  28.451
60041W        W60905  24.683   6.940  26.911
60042W        W60906  23.759   6.801  28.004
60043W        W60907  22.995   6.909  27.529
60044W        W60908  24.858   6.149  27.910
60045W        W60909  23.830   6.101  28.936
60046W        W60910  22.584   6.141  27.421
60047W        W60911  24.815   5.890  27.086
60048W        W60912  24.536   7.070  27.647
60049W        W60913  22.562   6.655  27.637
60050W        W60914  23.295   4.567   0.130
60051W        W60915  23.790   7.051  26.442
60052W        W60916  23.393   6.279  28.766
60053W        W60917  23.382   6.546  26.354
60054W        W60918  22.671   4.967  25.741
60055W        W60919  22.041  11.029   3.452
60056W        W60920  22.414   9.798   2.865
60057W        W60921  24.928   9.544   0.744
60058W        W60922  25.338  10.591   2.661
60059W        W60923  23.151  10.608   0.332
60060W        W60924  23.017   8.786   1.100
60061W        W60925  22.696   8.629   1.529
60062W        W60926  23.643   9.343   0.726
60063W        W60927  23.346  10.653   2.891
60064W        W60928  21.983   8.100   2.800
60065W        W60929  22.573   7.385   2.690
60066W        W60930  24.417   7.804   1.623
60067W        W60931  24.086   8.353   0.459
60068W        W60932  24.606   8.196   3.243
60069W        W60933  22.035   7.669   2.533
60070W        W60934  22.137  10.525   3.525
60071W        W60935  23.478   9.703   0.351
60072W        W60936  21.984   8.518   1.997
60073W        W60937  23.167   8.620   3.092
60074W        W60938  25.228   8.219   1.795
60075W        W60939  25.111   9.357   2.517
60076W        W60940  23.589   8.874   1.553
60077W        W60941  24.041  10.051   1.993
60078W        W60942  22.417   9.423   2.130
60079W        W60943  21.780   8.964   1.885
60080W        W60944  23.125   9.149   2.999
60081W        W60945  25.256   8.785   3.183
60082W        W60946  22.723  10.264   1.675
60083W        W60947  24.000  10.035   2.835
60084W        W60948  23.397   8.569   1.914
60085W        W60949  23.384   9.340   1.658
60086W        W60950  24.705  10.076   3.612
60087W        W60951  23.571   9.421   3.475
60088W        W60952  23.623   9.268   2.975
60089W        W60953  21.933   8.344   3.256
60090W        W60954  24.737  10.106   3.103
60091W        W60955  22.536   7.582   0.920
60092W        W60956  22.895  10.070   2.140
60093W        W60957  25.139   9.802   1.469
60094W        W60958  24.875   7.820   1.873
60095W        W60959  25.155   8.022   0.084
60096W        W60960  25.566   8.804   2.362
60097W        W60961  23.556  10.613   2.193
60098W        W60962  25.028  10.185   0.533
60099W        W60963  22.500  10.907   0.575
60100W        W60964  22.715  10.793   1.022
60101W        W60965  22.511   7.649   2.264
60102W        W60966  25.094   8.768   2.575
60103W        W60967  24.589   8.962   1.369
60104W        W60968  24.504   8.683   0.376
60105W        W60969  23.768   9.826   2.398
60106W        W60970  23.738   8.390   1.554
60107W        W60971  24.105  10.339   2.435
60108W        W60972  24.973   9.216   1.160
60109W        W60973  23.937   7.875   0.943
60110W        W60974  22.584  10.399   0.714
60111W        W60975  22.017   7.861   1.213
60112W        W60976  24.761   8.492   1.781
60113W        W60977  22.206  10.211   1.649
60114W        W60978  23.559  10.381   0.695
60115W        W60979  24.879   8.446  28.958
60116W        W60980  21.970  10.272   2.248
60117W        W60981  22.760  10.107   2.628
60118W        W60982  22.947   9.278   1.308
60119W        W60983  23.046   7.836   2.086
60120W        W60984  25.392   7.379   1.802
60121W        W60985  22.556   9.134   0.206
60122W        W60986  22.368   8.257   0.315
60123W        W60987  22.295  10.187   1.131
60124W        W60988  23.280   9.687   1.301
60125W        W60989  24.888  10.581   2.928
60126W        W60990  23.644   8.268   0.728
60127W        W60991  25.138  10.722   1.569
60128W        W60992  24.806   8.604   3.006
60129W        W60993  25.533  10.107   1.243
60130W        W60994  24.011   9.521   2.754
60131W        W60995  21.982   8.932   1.153
60132W        W60996  22.782   9.623   2.436
60133W        W60997  24.288   8.782   0.956
60134W        W60998  23.935   9.104   1.103
60135W        W60999  22.224   8.457   2.452
60136W        W61000  22.368   8.441   2.944
60137W        W61001  22.256   7.418   1.356
60138W        W61002  24.004   7.877   1.976
60139W        W61003  23.772   7.938   3.170
60140W        W61004  24.317   7.871   0.606
60141W        W61005  25.376  10.511   3.167
60142W        W61006  24.188   7.497   3.032
60143W        W61007  25.179  10.010   3.354
60144W        W61008  24.756   7.909   2.841
60145W        W61009  24.422   7.977   1.136
60146W        W61010  24.911   9.070   3.453
60147W        W61011  22.454  10.631   1.429
60148W        W61012  23.163   8.321   0.881
60149W        W61013  22.748   7.679   3.077
60150W        W61014  24.915   8.263   0.990
60151W        W61015  25.291   8.590   0.882
60152W        W61016  23.027  10.864   3.241
60153W        W61017  23.017   7.477   0.697
60154W        W61018  25.249   7.777   1.529
60155W        W61019  25.443  10.182   0.226
60156W        W61020  22.139   9.282   1.711
60157W        W61021  24.280   7.836   0.104
60158W        W61022  25.318  10.259   1.684
60159W        W61023  25.310   7.370   2.362
60160W        W61024  23.973   8.830   3.246
60161W        W61025  23.668   9.867   0.804
60162W        W61026  24.451   9.252   3.624
60163W        W61027  23.982   7.467   1.673
60164W        W61028  22.492   8.518   2.007
60165W        W61029  22.176   9.420   2.585
60166W        W61030  23.905  10.555   1.455
60167W        W61031  24.971   8.174   2.253
60168W        W61032  23.885  10.656   2.814
60169W        W61033  25.135   9.409   0.297
60170W        W61034  23.418   9.157   1.152
60171W        W61035  25.364   7.337   2.881
60172W        W61036  23.289   9.365   2.535
60173W        W61037  23.888   8.371   2.052
60174W        W61038  24.795   8.772   0.897
60175W        W61039  25.015   8.614   0.443
60176W        W61040  24.744  10.434   0.930
60177W        W61041  24.615   9.877   1.655
60178W        W61042  24.180   9.092   0.557
60179W        W61043  23.906   9.254   1.622
60180W        W61044  25.034   8.967   1.711
60181W        W61045  22.169   8.040   2.153
60182W        W61046  24.925   9.100   2.926
60183W        W61047  25.285  10.637   2.093
60184W        W61048  23.196  10.179   1.503
60185W        W61049  24.421  10.734   2.663
60186W        W61050  24.126   8.102   2.426
60187W        W61051  23.494  10.992   2.541
60188W        W61052  25.238   7.819   1.019
60189W        W61053  24.803   9.029   2.179
60190W        W61054  21.748   8.272   2.376
60191W        W61055  24.839   8.099   1.456
60192W        W61056  25.091   8.283   2.750
60193W        W61057  24.134   9.931   1.455
60194W        W61058  23.436  10.550   1.206
60195W        W61059  22.411   7.737   0.426
60196W        W61060  23.569   7.570   2.027
60197W        W61061  22.628  10.531   0.220
60198W        W61062  22.811   8.947   0.620
60199W        W61063  23.548   9.766   2.856
60200W        W61064  23.507   8.089   1.206
60201W        W61065  24.783   7.605   1.302
60202W        W61066  24.388  10.872   1.784
60203W        W61067  24.005  10.570   1.954
60204W        W61068  23.379   9.624   2.081
60205W        W61069  25.086  10.251   2.348
60206W        W61070  22.977   7.848   1.057
60207W        W61071  22.820   8.074   0.046
60208W        W61072  23.575   8.595   2.388
60209W        W61073  24.437   7.558   2.067
60210W        W61074  21.898   9.375   2.155
60211W        W61075  23.674   9.052   0.306
60212W        W61076  22.890   7.583   0.216
60213W        W61077  23.545   8.625   1.106
60214W        W61078  24.381   7.671   2.571
60215W        W61079  23.032   9.668   2.892
60216W        W61080  24.055   9.350   3.248
60217W        W61081  24.536   9.363   3.104
60218W        W61082  23.742   7.613   3.584
60219W        W61083  22.938   8.310   1.864
60220W        W61084  22.504   7.892   1.340
60221W        W61085  22.220  10.693   0.970
60222W        W61086  23.641  10.291   3.139
60223W        W61087  22.437   9.590   0.454
60224W        W61088  24.391   9.106   1.817
60225W        W61089  24.375   8.642   2.086
60226W        W61090  23.839   9.404   2.107
60227W        W61091  24.352   9.658   0.024
60228W        W61092  23.951   7.930   1.446
60229W        W61093  25.620   8.184   0.863
60230W        W61094  22.099  10.690   3.021
60231W        W61095  22.312   9.896   2.373
60232W        W61096  21.796  10.827   0.701
60233W        W61097  23.600   8.036   2.366
60234W        W61098  23.142  10.102   0.517
60235W        W61099  25.086  10.674   0.624
60236W        W61100  23.836   8.749   0.701
60237W        W61101  22.735   8.302   1.157
60238W        W61102  23.878   8.172   0.039
60239W        W61103  24.369   9.789   3.328
60240W        W61104  24.790   7.817   0.783
60241W        W61105  21.981   7.439   0.284
60242W        W61106  23.240   9.900   2.467
60243W        W61107  23.015   9.761   1.741
60244W        W61108  22.921   9.705   0.269
60245W        W61109  22.203  10.043   0.612
60246W        W61110  22.715   8.826   2.992
60247W        W61111  23.214   7.567   3.326
60248W        W61112  23.866   7.727   2.693
60249W        W61113  23.233   7.394   1.176
60250W        W61114  23.940   7.425   0.642
60251W        W61115  22.067   7.411   2.105
60252W        W61116  22.222   8.256   1.618
60253W        W61117  24.907   7.323   1.964
60254W        W61118  22.375   8.067   0.836
60255W        W61119  24.854   7.659   2.358
60256W        W61120  25.378   8.948   0.249
60257W        W61121  22.582   7.930   1.839
60258W        W61122  23.855   8.301   2.795
60259W        W61123  21.928   7.939   0.306
60260W        W61124  22.633   9.333   2.877
60261W        W61125  23.898   8.882   2.000
60262W        W61126  23.797  10.761   0.398
60263W        W61127  22.059   9.234   0.248
60264W        W61128  22.793  10.047   3.146
60265W        W61129  22.283   8.921   2.717
60266W        W61130  23.170   8.832   2.598
60267W        W61131  24.842   7.410   2.811
60268W        W61132  25.450   9.085   2.794
60269W        W61133  25.255   9.113   0.723
60270W        W61134  24.112   9.559   0.841
60271W        W61135  24.818  10.835   0.183
60272W        W61136  23.945   9.114   3.681
60273W        W61137  22.515   9.669   3.349
60274W        W61138  25.523   7.921   3.429
60275W        W61139  25.173   8.639   2.080
60276W        W61140  23.524  10.785   3.368
60277W        W61141  23.421   7.549   0.362
60278W        W61142  24.788   9.849   0.241
60279W        W61143  22.858   8.213   2.859
60280W        W61144  23.206  10.162   2.885
60281W        W61145  25.244   7.810   2.639
60282W        W61146  24.652  10.974   0.670
60283W        W61147  24.672   9.521   2.089
60284W        W61148  22.927   7.781   2.582
60285W        W61149  23.492   8.926   3.344
60286W        W61150  22.733   9.913   0.767
60287W        W61151  24.518   9.245   0.930
60288W        W61152  22.450   7.928   2.716
60289W        W61153  23.665  10.086   1.295
60290W        W61154  25.460   8.648   1.576
60291W        W61155  23.660   7.444   3.091
60292W        W61156  24.546  10.059   2.130
60293W        W61157  24.866  10.409   1.893
60294W        W61158  24.177   9.948   0.446
60295W        W61159  22.021   9.850   3.246
60296W        W61160  22.664   8.141   2.306
60297W        W61161  22.772   7.462   1.380
60298W        W61162  24.492   8.096   2.074
60299W        W61163  23.188   9.264   0.404
60300W        W61164  25.176   9.404   2.012
60301W        W61165  22.325  10.244   3.129
60302W        W61166  25.013  10.965   1.049
60303W        W61167  23.033   7.915   1.554
60304W        W61168  22.627   9.447   1.655
60305W        W61169  23.103  10.886   2.216
60306W        W61170  25.096  10.947   3.291
60307W        W61171  24.244   9.138   2.308
60308W        W61172  22.306   8.754   0.534
60309W        W61173  25.217  10.496   1.110
60310W        W61174  25.182   8.133   0.585
60311W        W61175  23.082   7.354   2.839
60312W        W61176  24.874  10.244   1.404
60313W        W61177  25.008   8.632   1.336
60314W        W61178  23.197   8.432   1.441
60315W        W61179  23.625   8.763   2.866
60316W        W61180  24.455   9.799   2.810
60317W        W61181  23.362   8.296   2.773
60318W        W61182  22.990  10.665   1.467
60319W        W61183  22.514  10.924   3.261
60320W        W61184  22.493  10.028   0.144
60321W        W61185  25.088   9.993   0.994
60322W        W61186  22.708   8.590   2.539
60323W        W61187  25.537   8.490   0.442
60324W        W61188  23.188   9.624   0.785
60325W        W61189  24.181   9.049   2.834
60326W        W61190  24.070   8.663   2.490
60327W        W61191  22.695   9.092   2.424
60328W        W61192  24.894  10.744   2.424
60329W        W61193  24.648   7.611   3.274
60330W        W61194  22.218   7.564   3.008
60331W        W61195  22.598   9.001   1.873
60332W        W61196  23.114   8.396   0.357
60333W        W61197  21.980  10.060   2.760
60334W        W61198  23.413   9.056   2.106
60335W        W61199  23.364   8.004   0.129
60336W        W61200  22.491   8.783   1.040
60337W        W61201  22.194  10.769   2.349
60338W        W61202  24.774   9.101   0.512
60339W        W61203  25.147   7.733   3.142
60340W        W61204  24.709   9.689   1.181
60341W        W61205  22.085   8.847   3.199
60342W        W61206  25.223   7.618   0.543
60343W        W61207  24.611   9.958   0.737
60344W        W61208  23.319   8.796   0.645
60345W        W61209  24.756   7.672   0.280
60346W        W61210  24.578   8.311   2.568
60347W        W61211  22.218   8.786   1.601
60348W        W61212  22.741   9.783   1.277
60349W        W61213  24.521   8.465   1.284
60350W        W61214  23.460   8.067   1.858
60351W        W61215  25.366   9.800   2.333
60352W        W61216  25.342   7.823   2.121
60353W        W61217  21.930  10.551   1.379
60354W        W61218  22.303   9.686   0.965
60355W        W61219  22.381   7.570   3.516
60356W        W61220  23.153  10.378   3.327
60357W        W61221  25.342   9.343   1.537
60358W        W61222  24.479   9.515   0.487
60359W        W61223  23.986  10.876   2.356
60360W        W61224  24.851   9.594   3.453
60361W        W61225  23.458   7.216   0.741
60362W        W61226  24.242   8.299   1.675
60363W        W61227  21.996   9.841   1.943
60364W        W61228  23.448   7.749   0.831
60365W        W61229  22.999   9.473   3.377
60366W        W61230  24.021   8.361   1.112
60367W        W61231  24.259   9.687   2.343
60368W        W61232  22.332  10.388   2.642
60369W        W61233  22.661  10.468   3.461
60370W        W61234  22.857   7.973   0.569
60371W        W61235  24.469   8.343   0.781
60372W        W61236  24.313  10.401   3.030
60373W        W61237  23.089   8.922   1.660
60374W        W61238  22.706  10.638   2.421
60375W        W61239  25.325  10.683   0.178
60376W        W61240  22.155   9.366   3.096
60377W        W61241  24.228   9.597   1.838
60378W        W61242  22.725   9.399   0.860
60379W        W61243  23.152  10.419   2.448
60380W        W61244  23.500   7.679   1.525
60381W        W61245  21.930   9.581   0.605
60382W        W61246  23.605   8.539   0.266
60383W        W61247  22.388   9.252   1.254
60384W        W61248  23.371   7.789   2.843
60385W        W61249  25.218   7.514   0.051
60386W        W61250  25.286   9.355   3.207
60387W        W61251  24.088  10.893   3.233
60388W        W61252  25.462   9.658   2.811
60389W        W61253  24.944  10.484   3.443
60390W        W61254  22.675  10.781   1.888
60391W        W61255  25.351   9.541   1.046
60392W        W61256  24.108   8.772   1.483
60393W        W61257  23.751   7.438   1.152
60394W        W61258  22.795  10.291   1.169
60395W        W61259  23.147   8.308   2.323
60396W        W61260  23.101   7.436   1.766
60397W        W61261  22.148  10.536   0.466
60398W        W61262  23.774   9.571   1.230
60399W        W61263  22.773  10.533   2.935
60400W        W61264  22.252   9.203   0.761
60401W        W61265  22.091   7.764   1.722
60402W        W61266  23.710   9.751   1.709
60403W        W61267  22.023   7.610   0.764
60404W        W61268  24.573   8.829   2.594
60405W        W61269  24.702   8.172   0.360
60406W        W61270  25.021   9.908   1.964
60407W        W61271  23.608  10.276   1.788
60408W        W61272  23.093  10.543   0.826
60409W        W61273  24.341   7.334   0.209
60410W        W61274  22.153  10.681   1.847
60411W        W61275  24.145   8.376   3.403
60412W        W61276  22.359   8.013   3.232
60413W        W61277  22.112   8.420   1.140
60414W        W61278  22.700   8.452   0.673
60415W        W61279  24.473   8.881   3.267
60416W        W61280  22.968   9.317   2.036
60417W        W61281  24.260   7.492   1.212
60418W        W61282  23.473  10.774   1.690
60419W        W61283  24.624  10.262   2.605
60420W        W61284  24.390  10.349   1.685
60421W        W61285  24.305   9.422   1.358
60422W        W61286  23.812   7.881   0.441
60423W        W61287  25.459   7.390   1.248
60424W        W61288  23.194   8.851   0.089
60425W        W61289  25.340   8.241   1.291
60426W        W61290  23.956   9.493   0.325
60427W        W61291  24.945   9.642   2.943
60428W        W61292  24.584  10.446   0.434
60429W        W61293  23.218   8.096   3.239
60430W        W61294  22.968   8.759   2.129
60431W        W61295  25.172  10.113   2.836
60432W        W61296  24.247   8.009   2.936
60433W        W61297  21.862   8.589   2.796
60434W        W61298  23.758   9.092   2.501
60435W        W61299  22.225   9.728   1.467
60436W        W61300  22.214   8.944   2.201
60437W        W61301  24.603   9.356   2.592
60438W        W61302  24.593  10.994   3.087
60439W        W61303  24.292   8.533   2.937
60440W        W61304  24.661  10.719   1.373
60441W        W61305  23.613  10.274   2.595
60442W        W61306  23.125  10.472   1.926
60443W        W61307  24.856   9.811   2.470
60444W        W61308  23.841   9.820   3.276
60445W        W61309  22.503   9.866   1.894
60446W        W61310  24.795   9.402   1.608
60447W        W61311  24.478  10.566   2.178
60448W        W61312  22.451  10.339   2.107
60449W        W61313  23.637   8.421   3.246
60450W        W61314  23.919  10.673   0.944
60451W        W61315  23.319   9.877   3.304
60452W        W61316  23.236  10.091   1.005
60453W        W61317  22.697   8.643   0.184
60454W        W61318  21.838  11.000   7.044
60455W        W61319  22.232   9.906   6.579
60456W        W61320  25.182   9.597   4.337
60457W        W61321  25.316  10.801   6.326
60458W        W61322  23.050  10.666   3.733
60459W        W61323  23.205   8.842   5.191
60460W        W61324  22.908   8.476   5.394
60461W        W61325  23.945   9.223   4.532
60462W        W61326  23.410  10.717   6.764
60463W        W61327  21.904   8.095   6.781
60464W        W61328  22.557   7.272   6.506
60465W        W61329  24.513   7.674   5.301
60466W        W61330  24.312   8.736   3.743
60467W        W61331  24.662   8.167   6.854
60468W        W61332  22.040   7.686   6.301
60469W        W61333  22.053  10.564   7.195
60470W        W61334  23.592   9.867   3.749
60471W        W61335  21.949   8.386   5.744
60472W        W61336  23.207   8.628   6.797
60473W        W61337  25.238   8.370   5.397
60474W        W61338  25.151   9.449   6.183
60475W        W61339  23.694   8.797   5.321
60476W        W61340  24.102  10.118   5.520
60477W        W61341  22.311   9.419   5.878
60478W        W61342  21.708   8.859   5.643
60479W        W61343  22.975   8.960   6.462
60480W        W61344  25.131   8.810   6.845
60481W        W61345  22.799  10.258   5.425
60482W        W61346  23.827  10.056   6.354
60483W        W61347  23.357   8.558   5.638
60484W        W61348  23.395   9.279   5.393
60485W        W61349  24.232  10.372   7.052
60486W        W61350  23.488   9.422   7.085
60487W        W61351  23.447   9.227   6.544
60488W        W61352  21.703   8.248   7.256
60489W        W61353  24.608  10.022   6.863
60490W        W61354  22.030   7.314   4.906
60491W        W61355  22.920   9.933   5.867
60492W        W61356  25.158   9.737   5.195
60493W        W61357  24.540   7.944   5.730
60494W        W61358  24.925   7.959   3.556
60495W        W61359  25.580   8.661   6.052
60496W        W61360  23.543  10.581   5.772
60497W        W61361  25.308  10.152   4.288
60498W        W61362  22.375  10.991   4.358
60499W        W61363  22.734  10.876   4.732
60500W        W61364  22.506   7.546   6.058
60501W        W61365  25.209   8.272   6.138
60502W        W61366  24.592   8.918   5.045
60503W        W61367  24.603   8.963   4.111
60504W        W61368  23.743   9.982   5.851
60505W        W61369  23.812   7.986   5.125
60506W        W61370  24.127  10.317   6.016
60507W        W61371  25.068   9.022   4.911
60508W        W61372  24.194   7.657   4.475
60509W        W61373  22.462  10.505   4.493
60510W        W61374  21.794   7.791   4.939
60511W        W61375  24.707   8.396   5.481
60512W        W61376  22.230  10.238   5.447
60513W        W61377  23.367  10.688   4.142
60514W        W61378  24.804   8.562   3.552
60515W        W61379  21.980  10.296   5.912
60516W        W61380  22.735  10.125   6.329
60517W        W61381  22.909   9.281   5.213
60518W        W61382  23.014   7.653   5.910
60519W        W61383  25.570   7.415   5.574
60520W        W61384  22.540   9.146   3.354
60521W        W61385  22.022   7.927   3.663
60522W        W61386  22.240  10.318   4.946
60523W        W61387  23.367   9.629   5.029
60524W        W61388  24.851  10.716   6.556
60525W        W61389  24.095   8.373   4.061
60526W        W61390  25.198  10.812   5.266
60527W        W61391  24.915   8.504   6.487
60528W        W61392  25.481  10.160   5.072
60529W        W61393  24.055   9.578   6.348
60530W        W61394  21.691   9.046   4.632
60531W        W61395  22.692   9.606   6.189
60532W        W61396  24.178   8.674   4.537
60533W        W61397  24.088   8.980   4.970
60534W        W61398  22.334   8.476   6.134
60535W        W61399  22.508   8.520   6.677
60536W        W61400  22.318   7.374   5.341
60537W        W61401  24.030   7.840   5.638
60538W        W61402  23.720   7.906   6.763
60539W        W61403  24.127   7.839   3.951
60540W        W61404  25.369  10.555   6.787
60541W        W61405  24.077   7.451   6.745
60542W        W61406  25.150   9.940   6.939
60543W        W61407  24.748   8.011   6.376
60544W        W61408  24.467   7.907   4.846
60545W        W61409  24.794   9.007   7.182
60546W        W61410  22.497  10.659   5.238
60547W        W61411  23.729   8.025   4.229
60548W        W61412  22.706   7.647   6.848
60549W        W61413  24.850   8.186   4.622
60550W        W61414  25.207   8.587   4.564
60551W        W61415  22.937  10.720   7.012
60552W        W61416  23.006   7.193   4.200
60553W        W61417  25.346   7.852   5.312
60554W        W61418  25.401  10.381   3.687
60555W        W61419  21.939   9.314   5.490
60556W        W61420  24.220   7.875   3.439
60557W        W61421  25.386  10.375   5.528
60558W        W61422  25.366   7.388   6.046
60559W        W61423  24.063   8.746   6.708
60560W        W61424  23.556   9.586   4.545
60561W        W61425  24.337   9.110   6.982
60562W        W61426  24.177   7.350   5.514
60563W        W61427  22.437   8.319   5.594
60564W        W61428  22.085   9.478   6.347
60565W        W61429  24.146  10.782   5.070
60566W        W61430  25.029   8.046   5.721
60567W        W61431  23.949  10.838   6.526
60568W        W61432  24.949   9.330   3.903
60569W        W61433  23.578   9.137   4.920
60570W        W61434  25.409   7.366   6.547
60571W        W61435  23.568   9.608   6.192
60572W        W61436  23.827   8.340   5.509
60573W        W61437  24.707   8.698   4.569
60574W        W61438  24.787   8.445   4.122
60575W        W61439  24.925  10.380   4.597
60576W        W61440  24.651   9.869   5.287
60577W        W61441  24.445   9.133   4.600
60578W        W61442  23.899   9.253   5.355
60579W        W61443  24.975   8.858   5.404
60580W        W61444  22.221   7.992   5.946
60581W        W61445  24.773   9.161   6.672
60582W        W61446  25.360  10.805   5.790
60583W        W61447  23.202  10.144   5.086
60584W        W61448  24.408  10.812   6.283
60585W        W61449  24.262   7.988   6.153
60586W        W61450  23.549  11.057   6.281
60587W        W61451  25.230   7.718   4.737
60588W        W61452  24.876   9.164   5.827
60589W        W61453  21.887   8.207   6.258
60590W        W61454  24.871   8.023   5.163
60591W        W61455  25.142   8.104   6.703
60592W        W61456  24.188   9.944   5.045
60593W        W61457  23.225  10.636   4.882
60594W        W61458  22.306   7.662   4.034
60595W        W61459  23.618   7.530   5.862
60596W        W61460  22.461  10.878   3.772
60597W        W61461  23.480   9.085   4.373
60598W        W61462  23.609   9.715   6.678
60599W        W61463  23.697   7.695   4.664
60600W        W61464  24.971   7.496   5.113
60601W        W61465  24.551  10.934   5.359
60602W        W61466  24.014  10.612   5.544
60603W        W61467  23.332   9.633   5.746
60604W        W61468  25.132  10.385   6.007
60605W        W61469  22.594   7.429   4.406
60606W        W61470  23.318  10.115   5.587
60607W        W61471  22.821   7.886   3.532
60608W        W61472  23.729   8.559   5.992
60609W        W61473  24.496   7.446   5.898
60610W        W61474  21.844   9.224   5.986
60611W        W61475  23.719   9.419   4.050
60612W        W61476  22.831   7.338   3.599
60613W        W61477  23.919   8.473   4.990
60614W        W61478  24.479   7.553   6.412
60615W        W61479  23.135   9.727   6.436
60616W        W61480  23.922   9.316   6.769
60617W        W61481  24.421   9.546   6.704
60618W        W61482  23.712   7.513   7.107
60619W        W61483  22.988   7.986   5.518
60620W        W61484  22.299   7.798   5.066
60621W        W61485  22.223  10.814   4.832
60622W        W61486  23.804  10.392   6.774
60623W        W61487  22.514   9.587   4.393
60624W        W61488  24.391   9.146   5.454
60625W        W61489  24.536   8.783   5.765
60626W        W61490  23.850   9.468   5.804
60627W        W61491  24.551   9.682   3.880
60628W        W61492  24.089   7.578   5.007
60629W        W61493  25.304   8.100   4.383
60630W        W61494  22.024  10.717   6.645
60631W        W61495  22.283   9.908   6.077
60632W        W61496  21.652  10.623   4.274
60633W        W61497  23.738   8.047   6.005
60634W        W61498  23.142  10.220   4.043
60635W        W61499  25.226  10.683   4.316
60636W        W61500  24.230   9.316   4.105
60637W        W61501  23.554   8.186   4.713
60638W        W61502  23.788   8.120   3.675
60639W        W61503  24.084   9.932   6.777
60640W        W61504  24.758   7.681   4.486
60641W        W61505  21.911   7.343   3.965
60642W        W61506  23.335  10.096   6.127
60643W        W61507  22.985   9.771   5.362
60644W        W61508  22.935   9.984   3.632
60645W        W61509  21.986  10.319   4.500
60646W        W61510  22.751   8.916   6.917
60647W        W61511  23.216   7.750   6.760
60648W        W61512  23.897   7.662   6.316
60649W        W61513  23.030   7.451   4.707
60650W        W61514  24.276   7.349   4.064
60651W        W61515  22.049   7.507   5.809
60652W        W61516  21.958   8.255   5.123
60653W        W61517  25.062   7.548   5.620
60654W        W61518  22.167   7.676   4.561
60655W        W61519  24.913   7.631   6.095
60656W        W61520  25.072   8.826   3.925
60657W        W61521  22.518   7.776   5.590
60658W        W61522  23.905   8.291   6.428
60659W        W61523  21.702   7.814   4.053
60660W        W61524  22.565   9.278   6.550
60661W        W61525  24.015   8.881   5.713
60662W        W61526  23.877  11.170   4.325
60663W        W61527  21.705   9.037   3.575
60664W        W61528  22.706   9.757   6.710
60665W        W61529  22.238   8.973   6.304
60666W        W61530  23.155   9.292   6.103
60667W        W61531  24.921   7.200   6.394
60668W        W61532  25.212   8.924   6.327
60669W        W61533  25.417   9.186   4.113
60670W        W61534  24.267   9.637   4.574
60671W        W61535  24.801  11.166   3.959
60672W        W61536  23.919   8.682   7.283
60673W        W61537  22.379   9.914   7.080
60674W        W61538  25.370   7.701   6.941
60675W        W61539  25.082   8.685   5.868
60676W        W61540  23.359  10.854   7.281
60677W        W61541  23.315   7.414   3.846
60678W        W61542  25.089   9.846   3.869
60679W        W61543  22.871   8.141   6.757
60680W        W61544  23.364  10.177   6.645
60681W        W61545  25.309   7.819   6.335
60682W        W61546  24.747  10.875   4.413
60683W        W61547  24.669   9.620   5.735
60684W        W61548  22.858   7.785   6.379
60685W        W61549  23.622   8.931   6.947
60686W        W61550  22.682  10.048   4.554
60687W        W61551  24.846   9.486   4.797
60688W        W61552  22.398   8.048   6.451
60689W        W61553  23.676  10.009   4.881
60690W        W61554  25.447   8.691   5.025
60691W        W61555  23.567   7.397   6.628
60692W        W61556  24.563  10.143   5.741
60693W        W61557  24.896  10.550   5.580
60694W        W61558  23.500  10.381   3.697
60695W        W61559  21.913  10.121   6.940
60696W        W61560  22.716   8.087   5.984
60697W        W61561  22.797   7.610   5.174
60698W        W61562  24.232   8.364   5.797
60699W        W61563  23.224   9.517   3.848
60700W        W61564  25.196   9.548   5.685
60701W        W61565  22.343  10.349   6.798
60702W        W61566  25.134  11.061   4.682
60703W        W61567  23.324   7.817   5.056
60704W        W61568  22.430   9.372   5.380
60705W        W61569  23.161  10.918   5.975
60706W        W61570  25.164  11.026   6.829
60707W        W61571  24.289   9.240   5.946
60708W        W61572  21.692   8.536   3.672
60709W        W61573  25.352  10.604   4.822
60710W        W61574  24.929   7.945   4.070
60711W        W61575  23.098   7.319   6.337
60712W        W61576  24.981  10.270   5.133
60713W        W61577  24.929   8.529   5.013
60714W        W61578  23.413   8.330   5.191
60715W        W61579  23.601   8.724   6.467
60716W        W61580  24.453   9.934   6.372
60717W        W61581  23.370   8.222   6.508
60718W        W61582  23.196  10.587   5.385
60719W        W61583  22.419  10.861   6.976
60720W        W61584  22.654  10.439   4.002
60721W        W61585  25.147   9.934   4.730
60722W        W61586  22.904   8.432   6.347
60723W        W61587  25.209   8.313   3.796
60724W        W61588  22.907   9.660   4.819
60725W        W61589  24.300   9.124   6.460
60726W        W61590  24.185   8.726   6.168
60727W        W61591  22.675   9.072   6.044
60728W        W61592  24.870  10.838   6.040
60729W        W61593  24.572   7.664   7.031
60730W        W61594  22.202   7.649   6.774
60731W        W61595  22.786   8.594   5.877
60732W        W61596  23.270   8.493   3.593
60733W        W61597  21.874  10.252   6.436
60734W        W61598  23.546   9.041   5.813
60735W        W61599  23.313   7.914   3.730
60736W        W61600  22.603   8.895   5.474
60737W        W61601  22.004  10.821   6.124
60738W        W61602  25.012   9.089   4.411
60739W        W61603  24.940   7.629   6.673
60740W        W61604  24.638   9.965   4.786
60741W        W61605  22.250   8.971   6.815
60742W        W61606  25.209   7.548   4.257
60743W        W61607  24.811   9.964   4.293
60744W        W61608  23.926   8.886   4.133
60745W        W61609  24.588   7.667   3.805
60746W        W61610  24.698   8.368   6.019
60747W        W61611  22.114   8.696   5.348
60748W        W61612  22.577   9.947   5.080
60749W        W61613  24.440   8.418   4.906
60750W        W61614  23.495   7.951   5.560
60751W        W61615  25.404   9.950   5.988
60752W        W61616  25.494   7.853   5.843
60753W        W61617  21.975  10.686   5.302
60754W        W61618  22.193   9.880   4.683
60755W        W61619  22.408   7.637   7.262
60756W        W61620  23.218  10.327   7.215
60757W        W61621  25.339   9.229   5.301
60758W        W61622  24.682   9.468   4.315
60759W        W61623  23.977  10.819   6.008
60760W        W61624  24.786   9.525   7.069
60761W        W61625  23.461   7.248   4.455
60762W        W61626  24.281   8.133   5.299
60763W        W61627  21.973   9.806   5.674
60764W        W61628  23.298   7.704   4.287
60765W        W61629  23.027   9.352   6.804
60766W        W61630  24.064   8.139   4.623
60767W        W61631  24.227   9.806   5.936
60768W        W61632  22.316  10.442   6.289
60769W        W61633  22.865  10.234   6.832
60770W        W61634  22.853   7.650   4.001
60771W        W61635  24.462   8.067   4.289
60772W        W61636  24.247  10.381   6.524
60773W        W61637  23.060   8.987   5.673
60774W        W61638  22.683  10.752   6.092
60775W        W61639  25.147  10.814   3.809
60776W        W61640  22.075   9.477   6.856
60777W        W61641  24.221   9.629   5.463
60778W        W61642  22.424   9.472   4.886
60779W        W61643  23.103  10.501   6.353
60780W        W61644  23.717   7.526   5.356
60781W        W61645  21.569   9.679   3.970
60782W        W61646  23.782   8.632   3.697
60783W        W61647  22.077   9.113   5.032
60784W        W61648  23.384   7.756   6.270
60785W        W61649  25.094   7.522   3.750
60786W        W61650  25.255   9.320   6.666
60787W        W61651  23.887  10.848   7.031
60788W        W61652  25.377   9.808   6.483
60789W        W61653  24.918  10.434   7.004
60790W        W61654  22.787  10.828   5.610
60791W        W61655  25.352   9.451   4.808
60792W        W61656  24.258   8.645   5.340
60793W        W61657  23.933   7.231   4.650
60794W        W61658  22.776  10.392   4.916
60795W        W61659  23.227   8.186   5.983
60796W        W61660  23.219   7.507   5.454
60797W        W61661  22.139  10.608   4.079
60798W        W61662  23.894   9.540   4.941
60799W        W61663  22.677  10.651   6.586
60800W        W61664  21.989   9.440   4.353
60801W        W61665  22.008   7.909   5.488
60802W        W61666  23.713   9.775   5.380
60803W        W61667  21.701   7.488   4.475
60804W        W61668  24.694   8.888   6.235
60805W        W61669  24.494   8.189   3.766
60806W        W61670  25.033  10.026   5.610
60807W        W61671  23.667  10.330   5.290
60808W        W61672  22.975  10.501   4.443
60809W        W61673  24.245   7.384   3.534
60810W        W61674  22.277  10.698   5.711
60811W        W61675  24.199   8.342   7.005
60812W        W61676  22.393   8.090   6.982
60813W        W61677  21.776   8.543   4.726
60814W        W61678  23.452   9.024   3.841
60815W        W61679  24.581   8.692   6.832
60816W        W61680  22.826   9.439   5.714
60817W        W61681  24.533   7.378   4.853
60818W        W61682  23.647  10.858   5.278
60819W        W61683  24.650  10.375   6.188
60820W        W61684  24.481  10.405   5.289
60821W        W61685  24.393   9.429   5.027
60822W        W61686  23.773   7.518   4.154
60823W        W61687  25.497   7.400   5.067
60824W        W61688  22.998   8.937   3.465
60825W        W61689  25.292   8.190   4.911
60826W        W61690  24.057   9.612   3.703
60827W        W61691  24.893   9.691   6.581
60828W        W61692  24.955  10.363   3.978
60829W        W61693  23.302   8.153   7.054
60830W        W61694  23.243   8.735   6.099
60831W        W61695  25.005  10.210   6.523
60832W        W61696  24.237   7.939   6.666
60833W        W61697  22.005   8.575   6.583
60834W        W61698  23.843   9.120   6.220
60835W        W61699  22.122   9.766   5.194
60836W        W61700  22.216   8.894   5.805
60837W        W61701  24.635   9.451   6.229
60838W        W61702  24.400  10.803   6.810
60839W        W61703  24.407   8.389   6.465
60840W        W61704  24.802  10.742   4.948
60841W        W61705  23.617  10.524   6.287
60842W        W61706  23.033  10.438   5.856
60843W        W61707  24.900   9.908   6.102
60844W        W61708  23.642  10.011   7.088
60845W        W61709  22.499   9.832   5.594
60846W        W61710  24.835   9.353   5.309
60847W        W61711  24.449  10.648   5.790
60848W        W61712  22.541  10.291   5.862
60849W        W61713  23.696   8.421   6.882
60850W        W61714  23.635  10.800   4.620
60851W        W61715  23.171   9.826   6.959
60852W        W61716  23.212  10.036   4.583
60853W        W61717  22.765   8.393   3.330
60854W        W61718  21.835  11.014  10.766
60855W        W61719  22.315   9.884  10.276
60856W        W61720  24.658   9.393   7.993
60857W        W61721  25.434  10.539   9.960
60858W        W61722  22.924  10.656   7.549
60859W        W61723  23.191   8.810   8.310
60860W        W61724  22.741   8.596   8.830
60861W        W61725  23.677   9.430   8.125
60862W        W61726  23.372  10.601  10.363
60863W        W61727  22.625   7.277  10.165
60864W        W61728  24.497   7.639   9.062
60865W        W61729  24.182   8.357   7.650
60866W        W61730  24.655   8.063  10.572
60867W        W61731  22.112   7.724   9.900
60868W        W61732  22.067  10.574  10.896
60869W        W61733  23.320   9.857   7.479
60870W        W61734  22.012   8.484   9.448
60871W        W61735  23.064   8.652  10.540
60872W        W61736  25.272   8.236   9.168
60873W        W61737  25.073   9.278   9.916
60874W        W61738  23.663   8.618   9.030
60875W        W61739  24.227  10.150   9.426
60876W        W61740  22.480   9.415   9.546
60877W        W61741  21.616   8.855   9.470
60878W        W61742  23.018   9.055  10.184
60879W        W61743  25.188   8.777  10.552
60880W        W61744  22.770  10.232   9.032
60881W        W61745  24.019   9.997  10.094
60882W        W61746  23.277   8.441   9.312
60883W        W61747  23.420   9.360   8.989
60884W        W61748  24.281  10.335  10.834
60885W        W61749  23.573   9.382  10.809
60886W        W61750  23.507   9.267  10.316
60887W        W61751  21.880   8.432  10.680
60888W        W61752  24.664   9.991  10.671
60889W        W61753  22.393   7.631   8.314
60890W        W61754  22.872   9.843   9.532
60891W        W61755  25.374   9.603   9.024
60892W        W61756  24.769   8.060   9.507
60893W        W61757  25.008   7.976   7.188
60894W        W61758  25.508   8.755   9.755
60895W        W61759  23.553  10.546   9.602
60896W        W61760  25.168  10.176   7.901
60897W        W61761  22.225  10.819   8.071
60898W        W61762  22.642  10.784   8.435
60899W        W61763  22.591   7.580   9.716
60900W        W61764  25.088   8.690  10.061
60901W        W61765  24.422   9.052   8.725
60902W        W61766  24.423   8.702   7.351
60903W        W61767  23.776   9.994   9.630
60904W        W61768  23.574   8.096   8.927
60905W        W61769  24.043  10.429   9.803
60906W        W61770  24.819   9.047   8.358
60907W        W61771  24.113   7.704   8.252
60908W        W61772  22.602  10.464   7.987
60909W        W61773  22.050   7.999   8.526
60910W        W61774  24.403   8.651   9.033
60911W        W61775  22.264  10.267   9.106
60912W        W61776  23.413  10.568   7.766
60913W        W61777  24.860   8.480   7.218
60914W        W61778  22.080  10.292   9.600
60915W        W61779  22.804   9.981  10.034
60916W        W61780  23.306   9.313   8.465
60917W        W61781  23.000   7.841   9.494
60918W        W61782  25.366   7.480   9.192
60919W        W61783  22.556   9.396   7.052
60920W        W61784  22.203   8.088   7.481
60921W        W61785  22.439  10.284   8.599
60922W        W61786  23.241   9.854   8.579
60923W        W61787  24.842  10.564  10.249
60924W        W61788  23.844   8.072   7.976
60925W        W61789  25.098  10.956   8.866
60926W        W61790  24.695   8.619  10.368
60927W        W61791  25.579  10.247   8.660
60928W        W61792  24.122   9.501  10.204
60929W        W61793  21.725   8.915   8.444
60930W        W61794  22.943   9.444   9.828
60931W        W61795  24.072   8.568   8.133
60932W        W61796  23.967   9.193   8.483
60933W        W61797  22.393   8.560   9.779
60934W        W61798  22.364   8.519  10.427
60935W        W61799  22.229   7.589   8.828
60936W        W61800  24.097   7.864   9.307
60937W        W61801  23.696   7.899  10.650
60938W        W61802  24.238   7.844   7.691
60939W        W61803  25.316  10.567  10.486
60940W        W61804  24.196   7.422  10.524
60941W        W61805  25.177  10.054  10.586
60942W        W61806  24.805   8.066  10.064
60943W        W61807  24.574   7.857   8.560
60944W        W61808  24.855   9.026  10.897
60945W        W61809  22.493  10.693   8.934
60946W        W61810  23.357   8.122   7.612
60947W        W61811  22.783   7.655  10.497
60948W        W61812  24.863   8.139   8.163
60949W        W61813  25.086   8.608   8.029
60950W        W61814  22.967  10.823  10.603
60951W        W61815  22.754   7.327   7.844
60952W        W61816  24.976   7.822   9.092
60953W        W61817  25.377  10.280   7.249
60954W        W61818  22.177   9.365   9.080
60955W        W61819  24.103   7.842   7.159
60956W        W61820  25.456  10.113   9.160
60957W        W61821  25.363   7.401   9.762
60958W        W61822  23.929   8.726  10.418
60959W        W61823  23.743   9.941   8.199
60960W        W61824  24.379   9.159  11.068
60961W        W61825  24.077   7.351   9.017
60962W        W61826  22.488   8.402   9.237
60963W        W61827  22.182   9.456   9.986
60964W        W61828  23.897  10.592   8.815
60965W        W61829  25.164   8.375   9.654
60966W        W61830  23.907  10.678  10.227
60967W        W61831  24.914   9.351   7.547
60968W        W61832  23.570   8.901   8.622
60969W        W61833  25.478   7.433  10.307
60970W        W61834  23.731   9.550   9.887
60971W        W61835  23.779   8.279   9.419
60972W        W61836  24.603   8.595   8.197
60973W        W61837  24.700   8.395   7.723
60974W        W61838  25.051  10.328   8.401
60975W        W61839  24.496   9.736   9.257
60976W        W61840  24.333   9.023   8.182
60977W        W61841  23.875   9.104   8.988
60978W        W61842  24.796   9.013   9.128
60979W        W61843  22.343   8.044   9.562
60980W        W61844  24.876   9.136  10.379
60981W        W61845  25.380  10.629   9.368
60982W        W61846  23.281  10.285   8.953
60983W        W61847  24.421  10.796  10.070
60984W        W61848  24.356   7.928   9.796
60985W        W61849  23.534  10.928   9.961
60986W        W61850  25.082   7.757   8.423
60987W        W61851  24.992   8.877   9.603
60988W        W61852  22.017   8.229   9.919
60989W        W61853  24.548   8.138   9.048
60990W        W61854  25.120   8.280  10.414
60991W        W61855  24.105  10.025   8.943
60992W        W61856  23.414  10.640   8.587
60993W        W61857  22.346   7.645   7.771
60994W        W61858  23.857   7.430   9.467
60995W        W61859  22.400  10.812   7.533
60996W        W61860  23.233   9.213   7.956
60997W        W61861  23.631   9.779  10.370
60998W        W61862  23.649   7.813   8.463
60999W        W61863  24.862   7.443   8.760
61000W        W61864  24.578  11.053   9.035
61001W        W61865  23.968  10.726   9.337
61002W        W61866  23.401   9.569   9.470
61003W        W61867  25.215  10.204   9.606
61004W        W61868  22.948   7.632   8.218
61005W        W61869  23.320  10.097   9.432
61006W        W61870  22.836   7.950   7.240
61007W        W61871  23.646   8.695   9.702
61008W        W61872  24.384   7.414   9.520
61009W        W61873  21.953   9.355   9.535
61010W        W61874  23.573   8.998   7.577
61011W        W61875  22.870   7.389   7.326
61012W        W61876  23.570   8.443   8.282
61013W        W61877  24.524   7.670  10.214
61014W        W61878  23.122   9.594  10.279
61015W        W61879  24.069   9.382  10.701
61016W        W61880  24.544   9.497  10.547
61017W        W61881  23.838   7.524  10.957
61018W        W61882  22.936   8.154   9.063
61019W        W61883  22.504   8.093   8.772
61020W        W61884  22.120  10.683   8.582
61021W        W61885  23.820  10.261  10.523
61022W        W61886  22.867   9.707   7.768
61023W        W61887  24.314   9.215   9.225
61024W        W61888  24.500   8.829   9.497
61025W        W61889  23.788   9.196   9.504
61026W        W61890  24.238   9.608   7.168
61027W        W61891  24.087   7.800   8.774
61028W        W61892  25.280   7.874   7.962
61029W        W61893  22.067  10.664  10.374
61030W        W61894  22.377   9.891   9.769
61031W        W61895  21.742  10.732   8.244
61032W        W61896  23.838   7.893   9.773
61033W        W61897  23.048  10.205   7.758
61034W        W61898  25.206  10.695   7.994
61035W        W61899  24.097   8.883   7.724
61036W        W61900  23.165   7.947   8.600
61037W        W61901  23.782   8.184   7.339
61038W        W61902  24.165   9.878  10.575
61039W        W61903  24.602   7.666   8.064
61040W        W61904  21.910   7.383   7.657
61041W        W61905  23.309   9.859   9.889
61042W        W61906  23.094   9.810   9.075
61043W        W61907  22.837   9.983   7.315
61044W        W61908  22.075  10.309   8.223
61045W        W61909  22.647   8.957  10.574
61046W        W61910  23.383   7.463  10.710
61047W        W61911  24.101   7.491   9.967
61048W        W61912  23.331   7.407   8.497
61049W        W61913  24.159   7.362   7.844
61050W        W61914  22.156   7.572   9.410
61051W        W61915  22.121   8.475   8.858
61052W        W61916  24.891   7.370   9.335
61053W        W61917  22.190   8.063   8.017
61054W        W61918  24.814   7.620   9.774
61055W        W61919  25.119   8.807   7.527
61056W        W61920  22.579   7.787   9.183
61057W        W61921  23.787   8.340  10.077
61058W        W61922  21.722   7.896   7.679
61059W        W61923  22.633   9.417  10.266
61060W        W61924  24.020   8.762   9.360
61061W        W61925  23.733  10.951   7.618
61062W        W61926  21.839   9.066   7.092
61063W        W61927  22.764   9.862  10.532
61064W        W61928  22.352   8.973  10.155
61065W        W61929  23.377   9.159   9.820
61066W        W61930  24.966   7.381  10.195
61067W        W61931  25.448   9.051  10.179
61068W        W61932  25.127   9.129   7.957
61069W        W61933  24.123   9.377   7.871
61070W        W61934  24.811  10.919   7.187
61071W        W61935  23.938   8.931  10.911
61072W        W61936  22.335   9.857  10.817
61073W        W61937  25.556   7.735  10.762
61074W        W61938  24.848   8.512   9.253
61075W        W61939  23.427  10.780  10.854
61076W        W61940  23.296   7.371   7.672
61077W        W61941  25.016   9.886   7.443
61078W        W61942  22.770   8.204  10.466
61079W        W61943  23.206  10.109  10.343
61080W        W61944  25.246   7.819  10.047
61081W        W61945  24.938  11.047   7.691
61082W        W61946  24.703   9.340   9.541
61083W        W61947  22.963   7.878  10.018
61084W        W61948  23.488   8.891  10.684
61085W        W61949  22.843  10.032   8.190
61086W        W61950  24.574   9.481   8.501
61087W        W61951  22.499   8.106  10.046
61088W        W61952  23.667  10.160   8.654
61089W        W61953  25.322   8.580   8.778
61090W        W61954  23.725   7.480  10.341
61091W        W61955  24.727  10.253   9.411
61092W        W61956  24.872  10.703   9.245
61093W        W61957  23.708  10.470   7.322
61094W        W61958  21.976  10.144  10.590
61095W        W61959  22.828   8.299   9.651
61096W        W61960  22.747   7.610   8.711
61097W        W61961  24.305   8.336   9.462
61098W        W61962  23.004   9.480   7.311
61099W        W61963  25.180   9.296   9.374
61100W        W61964  22.445  10.328  10.519
61101W        W61965  24.945  10.938   8.362
61102W        W61966  23.138   7.671   9.029
61103W        W61967  22.941   9.426   8.797
61104W        W61968  23.231  10.954   9.547
61105W        W61969  24.999  10.963  10.576
61106W        W61970  24.243   9.208   9.743
61107W        W61971  22.097   8.530   7.085
61108W        W61972  25.365  10.698   8.504
61109W        W61973  24.853   7.889   7.674
61110W        W61974  23.204   7.480  10.236
61111W        W61975  25.158  10.440   8.912
61112W        W61976  24.821   8.690   8.724
61113W        W61977  23.254   8.466   8.741
61114W        W61978  23.455   8.759  10.183
61115W        W61979  24.524   9.904  10.192
61116W        W61980  23.186   8.318  10.175
61117W        W61981  22.999  10.737   8.890
61118W        W61982  22.464  10.831  10.678
61119W        W61983  22.574  10.421   7.245
61120W        W61984  25.123   9.946   8.758
61121W        W61985  22.762   8.607  10.122
61122W        W61986  25.194   8.270   7.583
61123W        W61987  23.276   9.748   8.069
61124W        W61988  24.333   9.051  10.362
61125W        W61989  24.169   8.675   9.870
61126W        W61990  22.701   8.991   9.764
61127W        W61991  24.951  10.630   9.747
61128W        W61992  24.677   7.516  10.675
61129W        W61993  22.284   7.655  10.384
61130W        W61994  22.863   8.761   9.325
61131W        W61995  23.416   8.572   7.312
61132W        W61996  21.941  10.226  10.086
61133W        W61997  23.366   8.956   9.338
61134W        W61998  23.283   7.698   7.284
61135W        W61999  22.779   9.038   8.505
61136W        W62000  22.068  10.795   9.875
61137W        W62001  24.675   8.909   7.789
61138W        W62002  25.098   7.766  10.531
61139W        W62003  24.666  10.118   8.920
61140W        W62004  22.097   8.916  10.627
61141W        W62005  25.093   7.420   7.771
61142W        W62006  24.854   9.862   8.306
61143W        W62007  23.682   8.918   8.096
61144W        W62008  24.583   7.472   7.552
61145W        W62009  24.671   8.471   9.807
61146W        W62010  22.614   9.093   9.004
61147W        W62011  22.736   9.873   8.669
61148W        W62012  24.440   8.353   8.603
61149W        W62013  23.514   7.820   9.372
61150W        W62014  25.271   9.705   9.704
61151W        W62015  25.254   7.863   9.538
61152W        W62016  21.964  10.693   9.067
61153W        W62017  22.371   9.843   8.301
61154W        W62018  22.348   7.673  10.925
61155W        W62019  23.398  10.269  10.811
61156W        W62020  25.245   9.111   8.892
61157W        W62021  24.422   9.224   7.477
61158W        W62022  24.017  10.938   9.789
61159W        W62023  24.966   9.591  10.845
61160W        W62024  23.656   7.301   8.044
61161W        W62025  24.057   8.281   8.983
61162W        W62026  22.145   9.820   9.327
61163W        W62027  23.408   7.760   8.007
61164W        W62028  23.093   9.242  10.658
61165W        W62029  23.977   8.196   8.474
61166W        W62030  24.267   9.726   9.740
61167W        W62031  22.415  10.393   9.993
61168W        W62032  22.908  10.311  10.733
61169W        W62033  22.966   7.771   7.704
61170W        W62034  24.358   8.138   8.107
61171W        W62035  24.310  10.357  10.329
61172W        W62036  23.122   8.948   8.887
61173W        W62037  22.768  10.728   9.755
61174W        W62038  25.352  10.792   7.251
61175W        W62039  22.176   9.433  10.518
61176W        W62040  23.987   9.631   9.317
61177W        W62041  22.858   9.524   8.291
61178W        W62042  23.124  10.350   9.838
61179W        W62043  23.628   7.577   8.930
61180W        W62044  21.725   9.550   7.821
61181W        W62045  23.711   8.518   7.749
61182W        W62046  22.443   9.419   8.618
61183W        W62047  23.502   7.906  10.163
61184W        W62048  25.011   7.470   7.261
61185W        W62049  25.327   9.297  10.609
61186W        W62050  23.937  10.735  10.738
61187W        W62051  25.496   9.566  10.162
61188W        W62052  24.868  10.458  10.746
61189W        W62053  22.754  10.968   9.295
61190W        W62054  25.127   9.462   8.510
61191W        W62055  24.042   8.695   8.648
61192W        W62056  23.855   7.330   8.533
61193W        W62057  22.951  10.361   8.557
61194W        W62058  23.370   8.170   9.732
61195W        W62059  23.366   7.308   9.313
61196W        W62060  22.087  10.449   7.718
61197W        W62061  23.707   9.617   8.619
61198W        W62062  22.853  10.490  10.240
61199W        W62063  22.085   9.384   8.186
61200W        W62064  22.098   8.007   9.092
61201W        W62065  23.598   9.841   9.063
61202W        W62066  21.907   7.642   8.128
61203W        W62067  24.639   8.946   9.967
61204W        W62068  24.517   8.100   7.340
61205W        W62069  25.010   9.851   9.274
61206W        W62070  23.748  10.295   9.203
61207W        W62071  23.064  10.681   8.141
61208W        W62072  24.203   7.346   7.231
61209W        W62073  22.335  10.705   9.434
61210W        W62074  24.058   8.293  10.660
61211W        W62075  22.322   8.162  10.786
61212W        W62076  22.033   8.501   8.265
61213W        W62077  23.235   8.682   7.807
61214W        W62078  24.375   8.704  10.764
61215W        W62079  22.969   9.313   9.317
61216W        W62080  24.374   7.378   8.593
61217W        W62081  23.482  10.760   9.108
61218W        W62082  24.551  10.305   9.881
61219W        W62083  24.364  10.523   9.080
61220W        W62084  24.179   9.520   8.840
61221W        W62085  23.732   7.713   7.594
61222W        W62086  25.368   7.401   8.671
61223W        W62087  23.178   9.006   7.189
61224W        W62088  24.952   8.187   8.724
61225W        W62089  23.935   9.200   7.288
61226W        W62090  24.992   9.647  10.306
61227W        W62091  25.005  10.534   7.528
61228W        W62092  23.196   7.944  10.574
61229W        W62093  23.139   8.693   9.772
61230W        W62094  25.051  10.121  10.082
61231W        W62095  24.046   7.893  10.281
61232W        W62096  21.919   8.630  10.203
61233W        W62097  23.860   9.056  10.026
61234W        W62098  22.224   9.832   8.805
61235W        W62099  22.332   8.915   9.391
61236W        W62100  24.601   9.437  10.037
61237W        W62101  24.488  10.784  10.583
61238W        W62102  24.335   8.301  10.192
61239W        W62103  24.717  10.639   8.722
61240W        W62104  23.598  10.273  10.041
61241W        W62105  23.048  10.525   9.354
61242W        W62106  24.772   9.837   9.735
61243W        W62107  23.743   9.867  10.888
61244W        W62108  22.602   9.663   9.116
61245W        W62109  24.848   9.489   8.951
61246W        W62110  24.440  10.700   9.558
61247W        W62111  22.615  10.283   9.526
61248W        W62112  23.536   8.381  10.556
61249W        W62113  23.772  10.509   8.250
61250W        W62114  23.240   9.776  10.742
61251W        W62115  23.325  10.246   8.224
61252W        W62116  22.887   8.469   7.165
61253W        W62117  21.919  10.893  14.416
61254W        W62118  22.407   9.867  13.861
61255W        W62119  25.236   9.380  11.627
61256W        W62120  25.286  10.605  13.478
61257W        W62121  22.947  10.677  11.092
61258W        W62122  23.108   8.785  11.947
61259W        W62123  22.533   8.521  12.231
61260W        W62124  23.658   9.287  11.667
61261W        W62125  23.468  10.659  13.935
61262W        W62126  21.922   7.941  13.922
61263W        W62127  22.568   7.189  13.812
61264W        W62128  24.637   7.708  12.635
61265W        W62129  24.090   8.534  11.219
61266W        W62130  24.614   8.164  14.233
61267W        W62131  22.039   7.763  13.435
61268W        W62132  22.172  10.465  14.513
61269W        W62133  23.329   9.962  11.230
61270W        W62134  22.053   8.323  12.999
61271W        W62135  23.122   8.589  13.937
61272W        W62136  25.392   8.224  12.643
61273W        W62137  25.138   9.373  13.323
61274W        W62138  23.702   8.593  12.451
61275W        W62139  24.191  10.091  12.731
61276W        W62140  22.443   9.417  13.123
61277W        W62141  21.855   8.818  12.829
61278W        W62142  23.080   9.065  13.656
61279W        W62143  25.350   8.766  14.039
61280W        W62144  22.783  10.215  12.591
61281W        W62145  23.894  10.021  13.563
61282W        W62146  23.316   8.452  12.753
61283W        W62147  23.470   9.365  12.550
61284W        W62148  24.291  10.240  14.260
61285W        W62149  23.588   9.338  14.272
61286W        W62150  23.634   9.210  13.739
61287W        W62151  21.981   8.418  14.002
61288W        W62152  24.660  10.009  13.944
61289W        W62153  22.389   7.572  12.127
61290W        W62154  23.061  10.033  12.979
61291W        W62155  25.379   9.619  12.490
61292W        W62156  25.020   7.990  12.919
61293W        W62157  25.167   8.082  10.939
61294W        W62158  25.633   8.771  13.216
61295W        W62159  23.547  10.776  13.068
61296W        W62160  25.487   9.863  11.709
61297W        W62161  22.342  10.837  11.697
61298W        W62162  22.658  10.705  12.078
61299W        W62163  22.588   7.584  13.473
61300W        W62164  25.221   8.575  13.577
61301W        W62165  24.587   8.965  12.105
61302W        W62166  24.575   8.704  11.239
61303W        W62167  23.875   9.869  13.052
61304W        W62168  23.519   8.112  12.399
61305W        W62169  24.210  10.227  13.225
61306W        W62170  25.093   9.010  11.962
61307W        W62171  24.241   7.896  11.880
61308W        W62172  22.519  10.333  11.740
61309W        W62173  22.076   7.973  12.203
61310W        W62174  24.536   8.587  12.521
61311W        W62175  22.262  10.222  12.747
61312W        W62176  23.367  10.504  11.320
61313W        W62177  24.863   8.493  10.836
61314W        W62178  22.139  10.234  13.261
61315W        W62179  22.957  10.168  13.460
61316W        W62180  23.308   9.272  12.058
61317W        W62181  22.945   7.734  13.132
61318W        W62182  25.462   7.494  12.795
61319W        W62183  22.634   9.430  10.813
61320W        W62184  22.426   8.149  11.295
61321W        W62185  22.415  10.228  12.238
61322W        W62186  23.192   9.777  12.123
61323W        W62187  24.816  10.616  13.750
61324W        W62188  23.954   8.192  11.590
61325W        W62189  25.160  10.899  12.532
61326W        W62190  24.845   8.626  13.927
61327W        W62191  25.489  10.052  12.212
61328W        W62192  24.121   9.394  13.521
61329W        W62193  21.971   9.049  11.973
61330W        W62194  22.927   9.534  13.112
61331W        W62195  24.205   8.633  11.726
61332W        W62196  24.077   9.095  11.929
61333W        W62197  22.494   8.545  13.161
61334W        W62198  22.357   8.569  13.655
61335W        W62199  22.333   7.346  12.588
61336W        W62200  24.200   7.815  12.879
61337W        W62201  23.785   7.925  14.047
61338W        W62202  24.233   7.815  11.338
61339W        W62203  25.284  10.496  13.968
61340W        W62204  24.087   7.459  14.028
61341W        W62205  25.124  10.039  14.175
61342W        W62206  24.786   8.023  13.764
61343W        W62207  24.678   7.841  12.129
61344W        W62208  24.973   9.013  14.291
61345W        W62209  22.502  10.646  12.557
61346W        W62210  23.471   8.175  11.444
61347W        W62211  22.768   7.666  13.949
61348W        W62212  24.911   8.164  11.802
61349W        W62213  25.249   8.559  11.746
61350W        W62214  23.029  10.789  14.241
61351W        W62215  22.988   7.317  11.465
61352W        W62216  25.152   7.749  12.476
61353W        W62217  25.503  10.157  10.980
61354W        W62218  22.085   9.333  12.669
61355W        W62219  24.238   7.832  10.807
61356W        W62220  25.406  10.185  12.709
61357W        W62221  25.314   7.550  13.361
61358W        W62222  23.964   8.732  13.746
61359W        W62223  23.713   9.810  11.567
61360W        W62224  24.479   9.176  14.316
61361W        W62225  24.049   7.387  12.626
61362W        W62226  22.521   8.282  12.713
61363W        W62227  22.152   9.594  13.505
61364W        W62228  24.251  10.622  12.445
61365W        W62229  25.317   8.382  13.123
61366W        W62230  24.015  10.830  13.770
61367W        W62231  25.280   9.242  11.121
61368W        W62232  23.631   8.869  12.028
61369W        W62233  25.446   7.686  13.878
61370W        W62234  23.660   9.593  13.415
61371W        W62235  23.934   8.250  12.753
61372W        W62236  24.731   8.641  11.730
61373W        W62237  24.963   8.383  11.332
61374W        W62238  25.065  10.196  11.948
61375W        W62239  24.565   9.722  12.564
61376W        W62240  24.490   9.070  11.588
61377W        W62241  23.890   9.094  12.451
61378W        W62242  24.935   8.938  12.566
61379W        W62243  22.449   8.018  13.192
61380W        W62244  24.937   9.125  13.781
61381W        W62245  25.356  10.661  12.981
61382W        W62246  23.279  10.157  12.470
61383W        W62247  24.396  10.699  13.418
61384W        W62248  24.361   8.014  13.349
61385W        W62249  23.565  10.986  13.549
61386W        W62250  25.128   7.692  11.931
61387W        W62251  25.111   8.875  13.156
61388W        W62252  21.942   8.266  13.507
61389W        W62253  24.826   8.162  12.474
61390W        W62254  25.217   8.260  14.009
61391W        W62255  24.143   9.911  12.253
61392W        W62256  23.429  10.478  12.092
61393W        W62257  22.654   7.687  11.337
61394W        W62258  23.691   7.385  13.036
61395W        W62259  22.454  10.800  11.191
61396W        W62260  23.148   9.117  11.556
61397W        W62261  23.654   9.721  13.910
61398W        W62262  23.631   7.887  11.896
61399W        W62263  24.854   7.385  12.276
61400W        W62264  24.646  10.911  12.625
61401W        W62265  23.971  10.551  12.895
61402W        W62266  23.404   9.671  12.981
61403W        W62267  25.133  10.222  13.150
61404W        W62268  22.754   7.769  11.823
61405W        W62269  23.560  10.255  12.874
61406W        W62270  22.785   7.971  10.919
61407W        W62271  23.685   8.486  13.151
61408W        W62272  24.482   7.447  13.089
61409W        W62273  21.967   9.258  13.159
61410W        W62274  23.535   9.044  11.216
61411W        W62275  22.943   7.485  10.967
61412W        W62276  23.431   8.372  11.945
61413W        W62277  24.450   7.559  13.589
61414W        W62278  23.170   9.706  13.515
61415W        W62279  24.049   9.349  14.032
61416W        W62280  24.525   9.489  13.884
61417W        W62281  23.741   7.556  14.412
61418W        W62282  23.033   8.017  12.622
61419W        W62283  22.637   8.022  12.271
61420W        W62284  22.118  10.634  12.215
61421W        W62285  23.833  10.288  14.014
61422W        W62286  22.757   9.490  11.419
61423W        W62287  24.420   9.115  12.565
61424W        W62288  24.599   8.827  12.967
61425W        W62289  23.790   9.353  12.968
61426W        W62290  24.401   9.675  11.015
61427W        W62291  23.943   7.762  12.276
61428W        W62292  25.464   8.065  11.739
61429W        W62293  22.125  10.658  13.999
61430W        W62294  22.544   9.885  13.347
61431W        W62295  21.846  10.758  11.800
61432W        W62296  23.831   7.972  13.187
61433W        W62297  22.904  10.258  11.387
61434W        W62298  25.290  10.278  11.458
61435W        W62299  24.018   9.009  11.416
61436W        W62300  22.898   8.302  11.849
61437W        W62301  23.854   8.081  11.093
61438W        W62302  24.147   9.855  13.958
61439W        W62303  24.672   7.731  11.623
61440W        W62304  22.050   7.374  11.234
61441W        W62305  23.455  10.079  13.324
61442W        W62306  23.049   9.664  12.614
61443W        W62307  22.831   9.869  11.051
61444W        W62308  21.987  10.253  11.884
61445W        W62309  22.639   8.951  13.896
61446W        W62310  23.196   7.628  14.233
61447W        W62311  23.917   7.687  13.598
61448W        W62312  23.101   7.407  11.971
61449W        W62313  24.082   7.436  11.697
61450W        W62314  22.294   7.514  13.068
61451W        W62315  22.067   8.405  12.496
61452W        W62316  24.975   7.450  12.923
61453W        W62317  22.394   8.162  11.830
61454W        W62318  24.832   7.762  13.321
61455W        W62319  25.274   8.733  11.051
61456W        W62320  22.597   7.781  12.752
61457W        W62321  23.954   8.236  13.598
61458W        W62322  21.968   7.910  11.212
61459W        W62323  22.703   9.450  13.592
61460W        W62324  24.087   8.756  12.791
61461W        W62325  23.769  10.849  11.244
61462W        W62326  22.129   9.261  11.014
61463W        W62327  22.909   9.934  13.933
61464W        W62328  22.328   9.095  13.514
61465W        W62329  23.363   9.208  13.252
61466W        W62330  24.965   7.518  13.754
61467W        W62331  25.435   9.056  13.599
61468W        W62332  25.529   8.925  11.466
61469W        W62333  24.179   9.501  11.644
61470W        W62334  24.783  10.878  11.030
61471W        W62335  24.044   8.872  14.236
61472W        W62336  22.586   9.892  14.362
61473W        W62337  25.512   7.950  14.327
61474W        W62338  24.955   8.500  12.814
61475W        W62339  23.456  10.914  14.478
61476W        W62340  23.418   7.331  11.202
61477W        W62341  25.337   9.732  11.231
61478W        W62342  22.847   8.160  14.051
61479W        W62343  23.367  10.156  13.820
61480W        W62344  25.251   8.039  13.528
61481W        W62345  25.069  10.761  11.468
61482W        W62346  24.762   9.355  12.897
61483W        W62347  22.867   8.030  13.543
61484W        W62348  23.556   8.849  14.086
61485W        W62349  22.811   9.889  11.754
61486W        W62350  24.763   9.405  11.840
61487W        W62351  22.389   8.061  13.717
61488W        W62352  23.651   9.999  12.060
61489W        W62353  25.441   8.621  12.236
61490W        W62354  23.569   7.452  13.920
61491W        W62355  24.698  10.066  12.912
61492W        W62356  24.957  10.462  12.710
61493W        W62357  23.814  10.348  11.092
61494W        W62358  22.057  10.027  14.253
61495W        W62359  22.918   8.269  13.071
61496W        W62360  22.872   7.583  12.384
61497W        W62361  24.512   8.235  12.902
61498W        W62362  23.185   9.442  11.139
61499W        W62363  25.267   9.251  12.834
61500W        W62364  22.494  10.328  14.117
61501W        W62365  25.095  10.971  11.970
61502W        W62366  23.148   7.930  12.104
61503W        W62367  22.618   9.351  12.643
61504W        W62368  23.141  11.044  13.265
61505W        W62369  25.081  10.901  14.174
61506W        W62370  24.262   9.192  13.051
61507W        W62371  22.202   8.604  11.049
61508W        W62372  25.352  10.563  12.168
61509W        W62373  25.125   7.893  11.419
61510W        W62374  23.096   7.358  13.673
61511W        W62375  25.011   9.980  12.453
61512W        W62376  24.935   8.572  12.192
61513W        W62377  23.041   8.427  12.323
61514W        W62378  23.476   8.750  13.570
61515W        W62379  24.394   9.849  13.526
61516W        W62380  23.309   8.280  13.451
61517W        W62381  23.013  10.644  12.448
61518W        W62382  22.527  10.801  14.330
61519W        W62383  22.500  10.307  11.047
61520W        W62384  25.143   9.690  12.041
61521W        W62385  22.856   8.572  13.515
61522W        W62386  25.485   8.354  11.314
61523W        W62387  23.236   9.614  11.635
61524W        W62388  24.417   8.966  13.852
61525W        W62389  24.219   8.538  13.243
61526W        W62390  22.769   9.025  13.233
61527W        W62391  24.875  10.736  13.183
61528W        W62392  24.576   7.560  14.091
61529W        W62393  22.268   7.588  13.877
61530W        W62394  22.829   8.699  12.754
61531W        W62395  23.168   8.321  10.941
61532W        W62396  22.011  10.187  13.765
61533W        W62397  23.570   8.909  12.851
61534W        W62398  23.342   7.837  11.072
61535W        W62399  22.773   8.990  12.308
61536W        W62400  22.164  10.767  13.502
61537W        W62401  25.001   8.944  11.437
61538W        W62402  25.027   7.815  14.177
61539W        W62403  24.659   9.860  12.069
61540W        W62404  22.108   8.894  13.961
61541W        W62405  25.068   7.385  11.502
61542W        W62406  24.963   9.834  11.576
61543W        W62407  23.691   8.646  11.569
61544W        W62408  24.712   7.795  11.103
61545W        W62409  24.828   8.307  13.315
61546W        W62410  22.226   8.900  12.414
61547W        W62411  22.700   9.792  12.271
61548W        W62412  24.483   8.337  12.053
61549W        W62413  23.710   7.774  12.721
61550W        W62414  25.412   9.820  13.378
61551W        W62415  25.516   7.918  13.083
61552W        W62416  21.810  10.621  12.638
61553W        W62417  22.323   9.836  11.917
61554W        W62418  22.254   7.696  14.650
61555W        W62419  23.445  10.397  14.360
61556W        W62420  25.398   9.121  12.359
61557W        W62421  24.799   9.404  11.302
61558W        W62422  24.000  10.978  13.254
61559W        W62423  24.875   9.543  14.258
61560W        W62424  23.542   7.303  11.715
61561W        W62425  24.311   8.074  12.443
61562W        W62426  22.098   9.774  13.005
61563W        W62427  23.235   7.739  11.595
61564W        W62428  23.210   9.477  13.953
61565W        W62429  23.936   8.265  12.106
61566W        W62430  24.369   9.692  13.048
61567W        W62431  22.487  10.346  13.612
61568W        W62432  22.947  10.285  14.354
61569W        W62433  22.956   8.112  11.377
61570W        W62434  24.478   8.232  11.530
61571W        W62435  24.285  10.331  13.749
61572W        W62436  23.276   8.883  12.426
61573W        W62437  22.802  10.684  13.400
61574W        W62438  25.280  10.643  11.010
61575W        W62439  22.233   9.386  13.965
61576W        W62440  24.098   9.540  12.619
61577W        W62441  22.818   9.398  11.940
61578W        W62442  23.291  10.556  13.461
61579W        W62443  23.465   7.554  12.296
61580W        W62444  21.946   9.589  11.395
61581W        W62445  23.602   8.547  11.064
61582W        W62446  22.345   9.365  12.197
61583W        W62447  23.426   7.674  13.397
61584W        W62448  25.183   7.564  11.039
61585W        W62449  25.349   9.330  14.032
61586W        W62450  23.920  10.737  14.284
61587W        W62451  25.485   9.824  13.896
61588W        W62452  24.802  10.455  14.237
61589W        W62453  22.740  10.894  12.945
61590W        W62454  25.599   9.472  12.025
61591W        W62455  24.148   8.708  12.239
61592W        W62456  23.854   7.253  12.138
61593W        W62457  22.927  10.252  12.098
61594W        W62458  23.364   8.015  13.009
61595W        W62459  23.245   7.559  12.753
61596W        W62460  22.119  10.439  11.407
61597W        W62461  23.803   9.503  12.140
61598W        W62462  22.944  10.468  13.863
61599W        W62463  22.315   9.352  11.681
61600W        W62464  22.103   7.884  12.727
61601W        W62465  23.683   9.838  12.561
61602W        W62466  22.240   7.711  11.636
61603W        W62467  24.704   8.795  13.459
61604W        W62468  24.455   8.239  11.021
61605W        W62469  25.141   9.754  12.914
61606W        W62470  23.830  10.318  12.424
61607W        W62471  23.061  10.615  11.750
61608W        W62472  24.315   7.379  11.066
61609W        W62473  22.280  10.670  13.007
61610W        W62474  24.129   8.364  14.085
61611W        W62475  22.328   7.989  14.225
61612W        W62476  22.054   8.527  11.996
61613W        W62477  23.185   8.594  11.455
61614W        W62478  24.500   8.666  14.312
61615W        W62479  23.080   9.149  12.817
61616W        W62480  24.345   7.450  12.195
61617W        W62481  23.502  10.675  12.574
61618W        W62482  24.684  10.276  13.392
61619W        W62483  24.570  10.228  12.430
61620W        W62484  24.358   9.443  12.170
61621W        W62485  23.727   7.704  11.425
61622W        W62486  25.409   7.288  12.142
61623W        W62487  23.086   8.862  11.019
61624W        W62488  25.244   8.155  12.174
61625W        W62489  23.904   9.456  11.196
61626W        W62490  25.017   9.639  13.770
61627W        W62491  24.982  10.074  11.082
61628W        W62492  23.291   7.922  13.830
61629W        W62493  23.184   8.729  13.153
61630W        W62494  25.101  10.136  13.660
61631W        W62495  24.287   7.940  13.866
61632W        W62496  21.658   8.691  13.685
61633W        W62497  23.860   8.965  13.295
61634W        W62498  22.235   9.786  12.466
61635W        W62499  22.352   8.960  12.915
61636W        W62500  24.625   9.326  13.403
61637W        W62501  24.407  10.744  14.095
61638W        W62502  24.443   8.414  13.692
61639W        W62503  24.823  10.625  12.229
61640W        W62504  23.810  10.506  13.426
61641W        W62505  23.109  10.540  12.954
61642W        W62506  24.851   9.797  13.320
61643W        W62507  23.832   9.879  14.370
61644W        W62508  22.592   9.825  12.839
61645W        W62509  24.885   9.387  12.353
61646W        W62510  24.481  10.532  12.918
61647W        W62511  22.641  10.320  13.078
61648W        W62512  23.579   8.368  13.908
61649W        W62513  23.729  10.358  11.659
61650W        W62514  23.311   9.902  14.271
61651W        W62515  23.275  10.129  11.725
61652W        W62516  22.690   8.513  10.881
61653W        W62517  21.969  11.067  18.069
61654W        W62518  22.374   9.883  17.612
61655W        W62519  24.871   9.279  15.465
61656W        W62520  25.270  10.636  17.447
61657W        W62521  22.953  10.659  14.736
61658W        W62522  23.461   9.003  16.001
61659W        W62523  23.013   8.501  16.248
61660W        W62524  23.972   8.847  15.204
61661W        W62525  23.487  10.607  17.668
61662W        W62526  21.865   8.039  17.587
61663W        W62527  22.590   7.280  17.476
61664W        W62528  24.545   7.620  16.291
61665W        W62529  24.221   8.326  14.596
61666W        W62530  24.672   8.222  17.820
61667W        W62531  21.954   7.793  17.116
61668W        W62532  22.122  10.594  18.193
61669W        W62533  23.462  10.059  14.762
61670W        W62534  22.013   8.472  16.622
61671W        W62535  23.119   8.572  17.726
61672W        W62536  25.377   8.230  16.337
61673W        W62537  25.193   9.433  17.193
61674W        W62538  23.607   8.561  16.249
61675W        W62539  24.157  10.144  16.659
61676W        W62540  22.509   9.422  16.962
61677W        W62541  21.799   8.939  16.615
61678W        W62542  23.164   9.059  17.374
61679W        W62543  25.210   8.794  17.775
61680W        W62544  22.842  10.313  16.466
61681W        W62545  23.823   9.903  17.314
61682W        W62546  23.407   8.335  16.658
61683W        W62547  23.596   9.279  16.430
61684W        W62548  24.194  10.213  18.092
61685W        W62549  23.577   9.362  18.130
61686W        W62550  23.632   9.164  17.648
61687W        W62551  21.707   8.411  18.025
61688W        W62552  24.651  10.028  17.895
61689W        W62553  22.288   7.519  15.664
61690W        W62554  22.889   9.889  16.810
61691W        W62555  25.332   9.813  16.244
61692W        W62556  24.930   8.164  16.591
61693W        W62557  25.100   8.071  14.608
61694W        W62558  25.597   8.798  17.018
61695W        W62559  23.703  10.472  16.749
61696W        W62560  22.278  10.909  15.323
61697W        W62561  22.644  10.784  15.681
61698W        W62562  22.466   7.647  17.117
61699W        W62563  25.116   8.745  17.245
61700W        W62564  24.453   8.920  16.103
61701W        W62565  24.689   8.641  14.813
61702W        W62566  23.721   9.964  16.836
61703W        W62567  23.842   8.098  16.160
61704W        W62568  24.142  10.292  17.154
61705W        W62569  25.250   8.986  15.744
61706W        W62570  24.300   7.527  15.451
61707W        W62571  22.600  10.503  15.245
61708W        W62572  21.939   7.880  15.857
61709W        W62573  24.661   8.502  16.298
61710W        W62574  22.198  10.217  16.408
61711W        W62575  23.453  10.567  14.853
61712W        W62576  24.971   8.507  14.403
61713W        W62577  22.006  10.259  16.896
61714W        W62578  22.768   9.900  17.291
61715W        W62579  23.140   9.370  16.170
61716W        W62580  22.878   7.626  16.802
61717W        W62581  25.493   7.412  16.475
61718W        W62582  22.724   9.455  14.104
61719W        W62583  22.203   8.206  14.704
61720W        W62584  22.366  10.268  15.689
61721W        W62585  22.908   9.767  15.832
61722W        W62586  24.849  10.481  17.700
61723W        W62587  23.927   8.087  15.254
61724W        W62588  25.098  10.803  16.247
61725W        W62589  24.732   8.708  17.625
61726W        W62590  25.573  10.227  15.996
61727W        W62591  24.016   9.437  17.398
61728W        W62592  21.887   9.022  15.606
61729W        W62593  23.023   9.482  17.090
61730W        W62594  24.271   8.438  15.096
61731W        W62595  24.263   8.660  15.601
61732W        W62596  22.412   8.517  16.997
61733W        W62597  22.413   8.553  17.526
61734W        W62598  22.157   7.489  16.172
61735W        W62599  24.082   7.849  16.551
61736W        W62600  23.645   7.860  17.849
61737W        W62601  24.205   7.862  14.877
61738W        W62602  25.355  10.472  17.939
61739W        W62603  24.273   7.426  17.672
61740W        W62604  25.160   9.965  18.029
61741W        W62605  24.795   7.968  17.378
61742W        W62606  24.553   7.814  15.805
61743W        W62607  24.865   9.047  18.087
61744W        W62608  22.518  10.562  16.162
61745W        W62609  23.443   8.078  15.061
61746W        W62610  22.683   7.712  17.749
61747W        W62611  24.947   8.057  15.562
61748W        W62612  25.195   8.518  15.500
61749W        W62613  22.953  10.811  17.991
61750W        W62614  22.753   7.156  15.110
61751W        W62615  25.380   7.765  16.118
61752W        W62616  25.271  10.460  14.467
61753W        W62617  22.147   9.355  16.460
61754W        W62618  24.188   7.875  14.357
61755W        W62619  25.440  10.269  16.523
61756W        W62620  25.438   7.434  17.008
61757W        W62621  23.928   8.759  17.783
61758W        W62622  23.403   9.600  15.764
61759W        W62623  24.401   9.207  18.320
61760W        W62624  23.951   7.356  16.375
61761W        W62625  22.502   8.349  16.447
61762W        W62626  22.200   9.438  17.396
61763W        W62627  23.953  10.480  15.959
61764W        W62628  25.117   8.258  17.053
61765W        W62629  23.967  10.688  17.470
61766W        W62630  24.760   9.137  14.763
61767W        W62631  23.936   8.948  16.164
61768W        W62632  25.518   7.438  17.542
61769W        W62633  23.508   9.481  17.271
61770W        W62634  23.934   8.349  16.599
61771W        W62635  24.716   8.448  15.316
61772W        W62636  25.109   8.384  15.004
61773W        W62637  24.924  10.110  15.733
61774W        W62638  24.450   9.712  16.550
61775W        W62639  24.761   8.810  15.669
61776W        W62640  24.110   9.247  16.516
61777W        W62641  25.010   8.917  16.350
61778W        W62642  22.268   8.060  16.809
61779W        W62643  24.943   9.171  17.555
61780W        W62644  25.431  10.730  16.751
61781W        W62645  23.269  10.219  16.130
61782W        W62646  24.460  10.802  17.315
61783W        W62647  24.205   8.148  17.126
61784W        W62648  23.568  10.900  17.220
61785W        W62649  25.313   7.682  15.623
61786W        W62650  25.063   9.084  16.840
61787W        W62651  21.857   8.302  17.096
61788W        W62652  24.923   8.033  16.091
61789W        W62653  25.127   8.307  17.577
61790W        W62654  24.222  10.003  16.141
61791W        W62655  23.468  10.539  15.783
61792W        W62656  22.364   7.592  15.151
61793W        W62657  23.854   7.496  16.852
61794W        W62658  22.456  10.812  14.837
61795W        W62659  23.886   9.066  15.670
61796W        W62660  23.650   9.678  17.723
61797W        W62661  23.832   7.681  15.572
61798W        W62662  24.947   7.491  15.960
61799W        W62663  24.599  10.842  16.422
61800W        W62664  24.113  10.599  16.443
61801W        W62665  23.337   9.635  16.711
61802W        W62666  25.297  10.313  17.033
61803W        W62667  22.802   7.519  15.493
61804W        W62668  23.300  10.147  16.635
61805W        W62669  22.755   7.815  14.458
61806W        W62670  23.773   8.489  17.067
61807W        W62671  24.367   7.457  16.740
61808W        W62672  21.980   9.325  16.957
61809W        W62673  23.682   8.912  14.607
61810W        W62674  22.904   7.360  14.627
61811W        W62675  23.780   8.566  15.761
61812W        W62676  24.499   7.585  17.223
61813W        W62677  23.134   9.649  17.564
61814W        W62678  24.034   9.368  17.918
61815W        W62679  24.525   9.331  17.824
61816W        W62680  23.773   7.529  18.272
61817W        W62681  22.957   8.070  16.530
61818W        W62682  22.431   7.951  15.963
61819W        W62683  22.152  10.712  15.852
61820W        W62684  23.856  10.231  17.696
61821W        W62685  22.224  10.160  15.144
61822W        W62686  24.598   9.134  16.588
61823W        W62687  24.754   8.671  16.766
61824W        W62688  23.817   9.454  16.881
61825W        W62689  24.354   9.669  14.367
61826W        W62690  24.103   7.683  16.012
61827W        W62691  25.413   8.071  15.319
61828W        W62692  22.109  10.650  17.669
61829W        W62693  22.270   9.858  17.095
61830W        W62694  21.828  10.966  15.567
61831W        W62695  23.749   7.992  16.954
61832W        W62696  23.055  10.289  15.066
61833W        W62697  24.840  10.440  14.770
61834W        W62698  24.212   8.831  14.731
61835W        W62699  23.572   8.096  15.702
61836W        W62700  23.767   8.007  14.651
61837W        W62701  24.184   9.828  17.703
61838W        W62702  24.827   7.565  15.454
61839W        W62703  21.913   7.384  14.931
61840W        W62704  23.296   9.935  17.139
61841W        W62705  22.984   9.835  16.328
61842W        W62706  22.971   9.916  14.712
61843W        W62707  21.936  10.444  15.481
61844W        W62708  22.740   8.925  17.690
61845W        W62709  23.202   7.546  17.728
61846W        W62710  23.977   7.678  17.321
61847W        W62711  23.184   7.403  15.828
61848W        W62712  24.595   7.558  15.006
61849W        W62713  22.164   7.577  16.695
61850W        W62714  22.080   8.352  16.098
61851W        W62715  25.027   7.662  16.450
61852W        W62716  22.232   8.014  15.456
61853W        W62717  24.942   7.751  16.940
61854W        W62718  25.218   8.812  14.733
61855W        W62719  22.538   7.796  16.436
61856W        W62720  23.822   8.174  17.476
61857W        W62721  21.836   7.885  14.911
61858W        W62722  22.700   9.391  17.468
61859W        W62723  24.261   8.747  16.546
61860W        W62724  23.894  10.842  14.801
61861W        W62725  21.981   9.138  14.400
61862W        W62726  22.862  10.045  17.774
61863W        W62727  22.456   8.987  17.245
61864W        W62728  23.385   9.165  16.897
61865W        W62729  25.015   7.411  17.340
61866W        W62730  25.484   9.107  17.448
61867W        W62731  25.529   8.830  15.264
61868W        W62732  24.391   9.176  15.664
61869W        W62733  24.756  10.890  14.547
61870W        W62734  23.942   8.977  18.237
61871W        W62735  22.464   9.958  18.116
61872W        W62736  25.538   7.799  17.960
61873W        W62737  25.253   8.594  16.684
61874W        W62738  23.451  10.799  18.140
61875W        W62739  23.240   7.336  15.070
61876W        W62740  24.711  10.015  14.481
61877W        W62741  22.767   8.182  17.528
61878W        W62742  23.355  10.111  17.621
61879W        W62743  25.316   7.852  17.283
61880W        W62744  24.693  10.922  15.054
61881W        W62745  24.774   9.522  16.892
61882W        W62746  22.952   7.748  17.314
61883W        W62747  23.471   8.851  18.029
61884W        W62748  22.747  10.037  15.412
61885W        W62749  24.834   9.218  15.973
61886W        W62750  22.306   8.101  17.319
61887W        W62751  23.694  10.036  15.853
61888W        W62752  25.489   8.729  16.192
61889W        W62753  23.748   7.392  17.718
61890W        W62754  24.606  10.076  16.877
61891W        W62755  24.968  10.482  16.666
61892W        W62756  23.888  10.341  14.611
61893W        W62757  22.049  10.166  17.905
61894W        W62758  22.746   8.110  17.010
61895W        W62759  22.662   7.482  16.020
61896W        W62760  24.434   8.268  16.697
61897W        W62761  23.109   9.475  14.467
61898W        W62762  25.324   9.528  16.704
61899W        W62763  22.545  10.425  17.896
61900W        W62764  24.954  10.893  15.527
61901W        W62765  22.979   7.874  15.870
61902W        W62766  22.594   9.500  16.165
61903W        W62767  23.071  10.835  17.130
61904W        W62768  25.028  10.878  17.971
61905W        W62769  24.262   9.219  16.993
61906W        W62770  21.994   8.615  14.468
61907W        W62771  25.238  10.546  15.790
61908W        W62772  25.003   7.875  15.080
61909W        W62773  23.101   7.259  17.325
61910W        W62774  25.068  10.275  16.196
61911W        W62775  25.057   8.541  15.994
61912W        W62776  23.333   8.099  16.182
61913W        W62777  23.536   8.688  17.475
61914W        W62778  24.557   9.983  17.379
61915W        W62779  23.280   8.259  17.331
61916W        W62780  23.055  10.687  16.162
61917W        W62781  22.456  10.921  17.946
61918W        W62782  22.594  10.289  14.756
61919W        W62783  25.108   9.612  15.829
61920W        W62784  22.860   8.617  17.270
61921W        W62785  25.617   8.376  14.970
61922W        W62786  23.213   9.820  15.186
61923W        W62787  24.283   9.004  17.498
61924W        W62788  24.244   8.695  17.051
61925W        W62789  22.871   9.013  16.931
61926W        W62790  24.904  10.865  17.000
61927W        W62791  24.651   7.652  18.008
61928W        W62792  22.203   7.635  17.578
61929W        W62793  22.890   8.534  16.750
61930W        W62794  23.361   8.104  14.320
61931W        W62795  21.989  10.206  17.397
61932W        W62796  23.761   8.849  16.679
61933W        W62797  23.332   7.692  14.714
61934W        W62798  22.731   8.929  16.423
61935W        W62799  22.096  10.723  17.149
61936W        W62800  25.000   8.868  15.189
61937W        W62801  25.086   7.758  17.740
61938W        W62802  24.750   9.872  16.160
61939W        W62803  22.194   8.998  17.693
61940W        W62804  25.310   7.471  15.153
61941W        W62805  24.604   9.656  15.718
61942W        W62806  23.798   8.464  14.896
61943W        W62807  24.661   7.751  14.546
61944W        W62808  24.660   8.428  17.200
61945W        W62809  22.162   8.859  16.254
61946W        W62810  22.557  10.027  16.114
61947W        W62811  24.598   8.338  15.813
61948W        W62812  23.547   7.768  16.523
61949W        W62813  25.538   9.837  17.097
61950W        W62814  25.435   7.886  16.739
61951W        W62815  21.863  10.662  16.264
61952W        W62816  21.950   9.931  15.525
61953W        W62817  22.320   7.703  18.189
61954W        W62818  23.528  10.287  18.082
61955W        W62819  25.353   9.285  16.169
61956W        W62820  24.491   8.920  15.207
61957W        W62821  24.037  10.799  16.956
61958W        W62822  24.838   9.572  18.138
61959W        W62823  23.554   7.259  15.468
61960W        W62824  24.385   8.081  16.211
61961W        W62825  21.956   9.809  16.649
61962W        W62826  23.309   7.717  15.429
61963W        W62827  23.152   9.233  17.861
61964W        W62828  24.129   8.129  15.726
61965W        W62829  24.223   9.754  17.018
61966W        W62830  22.493  10.342  17.375
61967W        W62831  23.025  10.318  18.182
61968W        W62832  22.870   7.697  15.007
61969W        W62833  24.473   7.995  15.324
61970W        W62834  24.349  10.382  17.625
61971W        W62835  23.255   8.871  16.508
61972W        W62836  22.590  10.708  17.024
61973W        W62837  25.201  10.821  14.812
61974W        W62838  22.203   9.488  17.913
61975W        W62839  23.942   9.715  16.457
61976W        W62840  22.391   9.737  15.713
61977W        W62841  22.980  10.337  17.044
61978W        W62842  23.576   7.669  16.016
61979W        W62843  21.852   9.808  14.957
61980W        W62844  23.747   8.452  14.388
61981W        W62845  22.173   9.300  15.933
61982W        W62846  23.477   7.766  17.360
61983W        W62847  25.125   7.569  14.677
61984W        W62848  25.299   9.293  17.911
61985W        W62849  23.936  10.662  17.999
61986W        W62850  25.459   9.656  17.578
61987W        W62851  24.909  10.399  18.200
61988W        W62852  22.710  10.850  16.549
61989W        W62853  25.603   9.442  15.748
61990W        W62854  24.157   8.503  16.100
61991W        W62855  23.850   7.226  15.891
61992W        W62856  22.855  10.339  15.838
61993W        W62857  23.247   7.936  16.931
61994W        W62858  23.075   7.606  16.314
61995W        W62859  21.998  10.610  14.997
61996W        W62860  23.862   9.456  16.020
61997W        W62861  22.976  10.511  17.552
61998W        W62862  21.998   9.452  15.336
61999W        W62863  21.995   7.947  16.382
62000W        W62864  23.483   9.762  16.244
62001W        W62865  21.870   7.652  15.388
62002W        W62866  24.673   8.983  17.162
62003W        W62867  24.639   8.148  14.856
62004W        W62868  25.019   9.952  16.618
62005W        W62869  23.753  10.189  16.339
62006W        W62870  23.086  10.620  15.454
62007W        W62871  24.243   7.405  14.541
62008W        W62872  22.232  10.663  16.642
62009W        W62873  24.087   8.303  17.972
62010W        W62874  22.325   8.090  17.839
62011W        W62875  22.016   8.490  15.605
62012W        W62876  23.261   8.609  14.440
62013W        W62877  24.400   8.776  18.007
62014W        W62878  22.871   9.407  16.601
62015W        W62879  24.441   7.297  15.906
62016W        W62880  23.576  10.686  16.269
62017W        W62881  24.820  10.403  17.205
62018W        W62882  24.572  10.300  16.397
62019W        W62883  24.386   9.439  16.130
62020W        W62884  23.722   7.640  15.063
62021W        W62885  25.534   7.319  15.934
62022W        W62886  23.080   9.040  14.183
62023W        W62887  25.365   8.179  15.828
62024W        W62888  24.030   9.299  14.550
62025W        W62889  24.935   9.680  17.624
62026W        W62890  24.352  10.580  14.630
62027W        W62891  23.166   8.046  17.796
62028W        W62892  23.303   8.687  17.016
62029W        W62893  25.199  10.131  17.547
62030W        W62894  24.315   7.952  17.586
62031W        W62895  21.904   8.557  17.551
62032W        W62896  23.813   9.010  17.178
62033W        W62897  22.093   9.767  16.144
62034W        W62898  22.329   8.963  16.744
62035W        W62899  24.543   9.469  17.341
62036W        W62900  24.497  10.688  18.022
62037W        W62901  24.272   8.476  17.529
62038W        W62902  24.710  10.564  15.964
62039W        W62903  23.602  10.363  17.231
62040W        W62904  23.195  10.650  16.663
62041W        W62905  25.011   9.902  17.138
62042W        W62906  23.810   9.855  18.167
62043W        W62907  22.458   9.782  16.571
62044W        W62908  24.928   9.469  16.400
62045W        W62909  24.476  10.570  16.841
62046W        W62910  22.508  10.237  16.843
62047W        W62911  23.580   8.367  17.888
62048W        W62912  23.535  10.328  15.292
62049W        W62913  23.261   9.796  18.038
62050W        W62914  23.234  10.097  15.619
62051W        W62915  22.460   8.508  14.160
62052W        W62916  21.874  11.031  21.670
62053W        W62917  22.400   9.899  21.212
62054W        W62918  25.180   9.477  18.935
62055W        W62919  25.227  10.603  20.893
62056W        W62920  22.928  10.710  18.509
62057W        W62921  23.588   9.005  19.316
62058W        W62922  22.857   8.466  19.791
62059W        W62923  23.780   9.381  18.998
62060W        W62924  23.414  10.612  21.302
62061W        W62925  21.943   8.081  21.331
62062W        W62926  22.587   7.275  21.149
62063W        W62927  24.526   7.794  19.906
62064W        W62928  24.197   8.553  18.436
62065W        W62929  24.661   8.259  21.501
62066W        W62930  22.054   7.742  20.920
62067W        W62931  22.096  10.627  21.882
62068W        W62932  23.381   9.998  18.488
62069W        W62933  22.029   8.397  20.340
62070W        W62934  23.100   8.676  21.401
62071W        W62935  25.228   8.435  19.968
62072W        W62936  25.151   9.301  20.661
62073W        W62937  23.730   8.859  19.794
62074W        W62938  24.176  10.094  20.196
62075W        W62939  22.414   9.361  20.571
62076W        W62940  21.808   8.852  20.196
62077W        W62941  23.099   9.010  21.014
62078W        W62942  25.220   8.804  21.383
62079W        W62943  22.795  10.062  19.951
62080W        W62944  23.931   9.974  20.934
62081W        W62945  23.241   8.440  20.144
62082W        W62946  23.517   9.286  19.971
62083W        W62947  24.190  10.264  21.684
62084W        W62948  23.546   9.397  21.707
62085W        W62949  23.594   9.224  21.200
62086W        W62950  21.661   8.271  21.745
62087W        W62951  24.665  10.011  21.392
62088W        W62952  22.282   7.522  19.401
62089W        W62953  22.880   9.826  20.436
62090W        W62954  25.325   9.716  19.825
62091W        W62955  25.018   7.813  20.118
62092W        W62956  25.058   8.041  18.172
62093W        W62957  25.585   8.775  20.604
62094W        W62958  23.453  10.519  20.405
62095W        W62959  25.359   9.978  18.950
62096W        W62960  22.376  10.931  18.975
62097W        W62961  22.757  10.866  19.323
62098W        W62962  22.545   7.608  20.748
62099W        W62963  25.148   8.733  20.867
62100W        W62964  24.636   8.985  19.475
62101W        W62965  24.650   8.786  18.495
62102W        W62966  23.738  10.061  20.470
62103W        W62967  23.771   8.139  19.653
62104W        W62968  24.122  10.371  20.699
62105W        W62969  25.132   9.089  19.306
62106W        W62970  24.157   7.679  19.060
62107W        W62971  22.619  10.494  18.969
62108W        W62972  21.910   7.900  19.612
62109W        W62973  24.682   8.569  19.844
62110W        W62974  22.224  10.154  20.050
62111W        W62975  23.384  10.506  18.550
62112W        W62976  24.935   8.538  18.127
62113W        W62977  22.063  10.240  20.566
62114W        W62978  22.848   9.904  20.952
62115W        W62979  23.229   9.337  19.552
62116W        W62980  22.999   7.721  20.478
62117W        W62981  25.439   7.483  20.071
62118W        W62982  22.764   9.571  17.946
62119W        W62983  22.182   8.172  18.357
62120W        W62984  22.427  10.150  19.578
62121W        W62985  23.012   9.866  19.519
62122W        W62986  24.836  10.514  21.243
62123W        W62987  23.940   8.224  18.752
62124W        W62988  25.175  10.714  19.864
62125W        W62989  24.760   8.693  21.214
62126W        W62990  25.506  10.044  19.453
62127W        W62991  24.120   9.480  21.024
62128W        W62992  21.908   8.919  19.366
62129W        W62993  22.999   9.418  20.704
62130W        W62994  24.237   8.594  18.953
62131W        W62995  24.121   9.056  19.276
62132W        W62996  22.394   8.508  20.716
62133W        W62997  22.379   8.509  21.231
62134W        W62998  22.228   7.476  19.901
62135W        W62999  24.018   7.922  20.066
62136W        W63000  23.802   7.934  21.477
62137W        W63001  24.177   7.786  18.551
62138W        W63002  25.362  10.527  21.375
62139W        W63003  24.142   7.518  21.344
62140W        W63004  25.361   9.715  21.727
62141W        W63005  24.735   8.010  21.050
62142W        W63006  24.551   7.961  19.381
62143W        W63007  24.845   9.129  21.605
62144W        W63008  22.577  10.549  19.865
62145W        W63009  23.413   8.178  18.655
62146W        W63010  22.758   7.694  21.387
62147W        W63011  24.953   8.152  19.116
62148W        W63012  25.314   8.653  19.047
62149W        W63013  22.946  10.781  21.553
62150W        W63014  22.928   7.275  18.876
62151W        W63015  25.376   7.909  19.768
62152W        W63016  25.415  10.226  18.425
62153W        W63017  22.121   9.277  20.124
62154W        W63018  24.137   7.787  18.026
62155W        W63019  25.454  10.174  20.048
62156W        W63020  25.316   7.473  20.626
62157W        W63021  23.964   8.863  21.330
62158W        W63022  23.680   9.925  18.890
62159W        W63023  24.408   9.220  21.856
62160W        W63024  24.113   7.433  19.923
62161W        W63025  22.505   8.275  20.138
62162W        W63026  22.104   9.500  20.973
62163W        W63027  24.096  10.479  19.776
62164W        W63028  25.191   8.352  20.492
62165W        W63029  23.969  10.711  21.093
62166W        W63030  25.187   9.322  18.418
62167W        W63031  23.800   9.436  19.548
62168W        W63032  25.399   7.511  21.152
62169W        W63033  23.675   9.555  20.792
62170W        W63034  23.768   8.414  20.088
62171W        W63035  24.766   8.592  18.968
62172W        W63036  24.841   8.284  18.577
62173W        W63037  25.036  10.278  19.212
62174W        W63038  24.826   9.820  19.959
62175W        W63039  24.535   9.034  18.957
62176W        W63040  24.054   9.236  19.945
62177W        W63041  25.042   8.926  19.842
62178W        W63042  22.327   8.026  20.559
62179W        W63043  24.960   9.165  21.116
62180W        W63044  25.414  10.600  20.336
62181W        W63045  23.247  10.262  19.754
62182W        W63046  24.493  10.706  20.872
62183W        W63047  24.279   8.155  20.782
62184W        W63048  23.568  10.910  20.826
62185W        W63049  25.309   7.769  19.206
62186W        W63050  25.082   8.850  20.360
62187W        W63051  21.961   8.240  20.839
62188W        W63052  24.908   8.135  19.695
62189W        W63053  25.128   8.324  21.201
62190W        W63054  24.093   9.893  19.709
62191W        W63055  23.426  10.604  19.414
62192W        W63056  22.345   7.734  18.713
62193W        W63057  23.779   7.583  20.365
62194W        W63058  22.461  10.892  18.462
62195W        W63059  23.270   9.288  19.001
62196W        W63060  23.678   9.718  21.287
62197W        W63061  23.687   7.779  19.283
62198W        W63062  24.946   7.621  19.628
62199W        W63063  24.660  10.784  19.988
62200W        W63064  23.936  10.547  20.263
62201W        W63065  23.375   9.569  20.361
62202W        W63066  25.259  10.188  20.614
62203W        W63067  22.700   7.684  19.121
62204W        W63068  23.273  10.061  20.223
62205W        W63069  22.781   7.991  18.169
62206W        W63070  23.749   8.574  20.628
62207W        W63071  24.420   7.472  20.357
62208W        W63072  21.922   9.220  20.586
62209W        W63073  23.585   9.099  18.589
62210W        W63074  22.911   7.489  18.149
62211W        W63075  23.910   8.594  19.394
62212W        W63076  24.393   7.650  20.886
62213W        W63077  23.213   9.583  21.132
62214W        W63078  24.027   9.360  21.518
62215W        W63079  24.524   9.478  21.372
62216W        W63080  23.723   7.583  21.838
62217W        W63081  22.956   8.012  20.051
62218W        W63082  22.434   7.945  19.709
62219W        W63083  22.274  10.681  19.455
62220W        W63084  23.784  10.240  21.360
62221W        W63085  23.100   9.772  18.896
62222W        W63086  24.570   9.133  19.979
62223W        W63087  24.570   8.733  20.300
62224W        W63088  23.825   9.271  20.393
62225W        W63089  24.333   9.706  18.185
62226W        W63090  24.123   7.784  19.572
62227W        W63091  25.542   8.189  18.937
62228W        W63092  22.087  10.739  21.278
62229W        W63093  22.385   9.849  20.687
62230W        W63094  21.902  10.970  19.108
62231W        W63095  23.829   8.073  20.533
62232W        W63096  22.980  10.240  18.722
62233W        W63097  25.329  10.589  18.928
62234W        W63098  24.085   9.026  18.725
62235W        W63099  23.577   8.260  19.159
62236W        W63100  23.778   8.045  18.304
62237W        W63101  24.169   9.858  21.362
62238W        W63102  24.802   7.664  19.040
62239W        W63103  22.051   7.330  18.479
62240W        W63104  23.321   9.909  20.731
62241W        W63105  22.993   9.557  19.984
62242W        W63106  22.886   9.858  18.390
62243W        W63107  22.156  10.275  19.152
62244W        W63108  22.661   8.944  21.250
62245W        W63109  23.172   7.528  21.689
62246W        W63110  23.888   7.762  20.965
62247W        W63111  23.253   7.479  19.464
62248W        W63112  24.463   7.388  18.765
62249W        W63113  22.101   7.571  20.447
62250W        W63114  22.115   8.368  19.824
62251W        W63115  24.967   7.319  20.249
62252W        W63116  22.221   7.980  19.179
62253W        W63117  24.832   7.703  20.594
62254W        W63118  25.337   8.852  18.272
62255W        W63119  22.557   7.719  20.215
62256W        W63120  23.828   8.285  21.076
62257W        W63121  21.838   7.797  18.598
62258W        W63122  22.614   9.418  21.041
62259W        W63123  24.049   8.818  20.247
62260W        W63124  23.799  10.812  18.580
62261W        W63125  21.892   8.977  18.129
62262W        W63126  22.805   9.611  21.474
62263W        W63127  22.271   8.992  20.921
62264W        W63128  23.450   9.114  20.688
62265W        W63129  24.870   7.504  21.073
62266W        W63130  25.487   9.113  21.015
62267W        W63131  25.520   9.090  18.742
62268W        W63132  24.284   9.479  18.933
62269W        W63133  24.758  10.851  18.464
62270W        W63134  23.979   8.917  21.843
62271W        W63135  22.470   9.933  21.725
62272W        W63136  25.543   7.934  21.724
62273W        W63137  24.747   8.234  20.231
62274W        W63138  23.426  10.810  21.787
62275W        W63139  23.340   7.434  18.586
62276W        W63140  25.086   9.820  18.526
62277W        W63141  22.875   8.208  21.387
62278W        W63142  23.297  10.123  21.186
62279W        W63143  25.219   7.927  20.865
62280W        W63144  24.782  10.695  18.985
62281W        W63145  24.772   9.450  20.349
62282W        W63146  22.935   7.920  20.948
62283W        W63147  23.526   8.883  21.596
62284W        W63148  22.671   9.990  19.136
62285W        W63149  24.735   9.427  19.207
62286W        W63150  22.448   8.032  21.073
62287W        W63151  23.678  10.138  19.457
62288W        W63152  25.438   8.729  19.588
62289W        W63153  23.618   7.438  21.358
62290W        W63154  24.621   9.950  20.417
62291W        W63155  24.963  10.301  20.208
62292W        W63156  23.843  10.276  18.493
62293W        W63157  22.045  10.195  21.604
62294W        W63158  22.819   8.238  20.540
62295W        W63159  22.763   7.549  19.761
62296W        W63160  24.237   8.336  20.298
62297W        W63161  23.247   9.489  18.492
62298W        W63162  25.229   9.310  20.142
62299W        W63163  22.456  10.417  21.378
62300W        W63164  25.131  10.894  19.304
62301W        W63165  23.281   7.966  19.633
62302W        W63166  22.633   9.201  20.149
62303W        W63167  23.128  10.895  20.561
62304W        W63168  25.057  10.933  21.461
62305W        W63169  24.329   9.195  20.464
62306W        W63170  22.189   8.568  17.995
62307W        W63171  25.440  10.534  19.437
62308W        W63172  25.172   7.908  18.711
62309W        W63173  23.130   7.385  21.174
62310W        W63174  25.071  10.198  19.710
62311W        W63175  24.972   8.599  19.434
62312W        W63176  23.405   8.487  19.639
62313W        W63177  23.532   8.733  21.075
62314W        W63178  24.451   9.911  20.915
62315W        W63179  23.283   8.295  21.041
62316W        W63180  23.047  10.738  19.735
62317W        W63181  22.453  10.878  21.624
62318W        W63182  22.550  10.370  18.430
62319W        W63183  25.082   9.775  19.374
62320W        W63184  22.833   8.531  20.977
62321W        W63185  25.340   8.376  18.490
62322W        W63186  23.444   9.702  19.278
62323W        W63187  24.394   9.039  21.123
62324W        W63188  24.266   8.683  20.706
62325W        W63189  22.725   8.961  20.681
62326W        W63190  24.921  10.726  20.501
62327W        W63191  24.632   7.695  21.524
62328W        W63192  22.239   7.636  21.394
62329W        W63193  22.793   8.696  20.253
62330W        W63194  23.185   8.355  18.211
62331W        W63195  22.030  10.243  21.092
62332W        W63196  23.531   8.850  20.259
62333W        W63197  23.303   7.823  18.249
62334W        W63198  22.754   9.160  19.660
62335W        W63199  22.173  10.780  20.767
62336W        W63200  25.020   9.002  18.788
62337W        W63201  25.115   7.850  21.407
62338W        W63202  24.601   9.886  19.499
62339W        W63203  22.156   8.969  21.426
62340W        W63204  25.160   7.399  18.766
62341W        W63205  24.807   9.872  18.955
62342W        W63206  23.724   8.689  18.892
62343W        W63207  24.727   7.756  18.517
62344W        W63208  24.730   8.436  20.740
62345W        W63209  22.399   8.805  19.898
62346W        W63210  22.563   9.654  19.673
62347W        W63211  24.476   8.485  19.378
62348W        W63212  23.499   7.975  20.110
62349W        W63213  25.520   9.756  20.717
62350W        W63214  25.474   7.913  20.365
62351W        W63215  21.949  10.589  19.880
62352W        W63216  22.176   9.774  19.326
62353W        W63217  22.360   7.686  21.949
62354W        W63218  23.193  10.354  21.710
62355W        W63219  25.458   9.227  19.693
62356W        W63220  24.734   9.428  18.656
62357W        W63221  24.060  10.902  20.618
62358W        W63222  24.836   9.632  21.768
62359W        W63223  23.559   7.339  19.052
62360W        W63224  24.267   8.254  19.773
62361W        W63225  21.972   9.731  20.362
62362W        W63226  23.234   7.747  19.004
62363W        W63227  23.127   9.207  21.469
62364W        W63228  24.092   8.157  19.234
62365W        W63229  24.145   9.689  20.544
62366W        W63230  22.500  10.301  20.892
62367W        W63231  22.850  10.110  21.432
62368W        W63232  22.885   7.720  18.610
62369W        W63233  24.465   8.094  18.874
62370W        W63234  24.299  10.321  21.176
62371W        W63235  23.176   8.896  19.860
62372W        W63236  22.672  10.697  20.646
62373W        W63237  25.257  10.722  18.427
62374W        W63238  22.289   9.465  21.463
62375W        W63239  24.365   9.620  20.075
62376W        W63240  22.816   9.482  19.241
62377W        W63241  23.033  10.315  20.657
62378W        W63242  23.666   7.622  19.768
62379W        W63243  21.886   9.631  18.891
62380W        W63244  23.691   8.542  18.377
62381W        W63245  22.230   9.248  19.628
62382W        W63246  23.394   7.705  20.841
62383W        W63247  25.217   7.573  18.288
62384W        W63248  25.338   9.278  21.485
62385W        W63249  23.898  10.707  21.600
62386W        W63250  25.514   9.695  21.217
62387W        W63251  25.098  10.154  21.658
62388W        W63252  22.703  10.940  20.210
62389W        W63253  25.531   9.546  19.311
62390W        W63254  24.236   8.791  19.748
62391W        W63255  23.946   7.330  19.409
62392W        W63256  22.860  10.375  19.429
62393W        W63257  23.319   8.140  20.560
62394W        W63258  23.218   7.554  20.014
62395W        W63259  22.132  10.557  18.711
62396W        W63260  23.439   9.772  19.798
62397W        W63261  22.927  10.509  21.114
62398W        W63262  22.217   9.292  19.118
62399W        W63263  22.102   7.937  20.100
62400W        W63264  23.837   9.692  20.112
62401W        W63265  21.834   7.643  19.113
62402W        W63266  24.717   8.959  20.722
62403W        W63267  24.460   8.124  18.278
62404W        W63268  25.181   9.789  20.318
62405W        W63269  23.713  10.182  19.971
62406W        W63270  23.139  10.673  18.994
62407W        W63271  24.284   7.361  18.275
62408W        W63272  22.284  10.633  20.280
62409W        W63273  24.003   8.422  21.613
62410W        W63274  22.401   8.091  21.593
62411W        W63275  21.945   8.391  19.349
62412W        W63276  23.261   8.698  18.600
62413W        W63277  24.417   8.756  21.615
62414W        W63278  23.104   9.119  20.310
62415W        W63279  24.487   7.439  19.422
62416W        W63280  23.550  10.675  19.914
62417W        W63281  24.781  10.292  20.773
62418W        W63282  24.561  10.261  19.883
62419W        W63283  24.362   9.424  19.577
62420W        W63284  23.704   7.763  18.760
62421W        W63285  25.494   7.436  19.568
62422W        W63286  22.976   8.841  18.162
62423W        W63287  25.345   8.264  19.415
62424W        W63288  23.958   9.461  18.478
62425W        W63289  25.012   9.640  21.288
62426W        W63290  24.978  10.303  18.696
62427W        W63291  23.294   7.876  21.338
62428W        W63292  23.194   8.658  20.625
62429W        W63293  25.143  10.113  21.136
62430W        W63294  24.265   8.002  21.270
62431W        W63295  21.880   8.589  21.198
62432W        W63296  23.932   9.039  20.840
62433W        W63297  22.052   9.690  19.834
62434W        W63298  22.291   8.879  20.396
62435W        W63299  24.602   9.435  20.845
62436W        W63300  24.420  10.730  21.455
62437W        W63301  24.296   8.499  21.179
62438W        W63302  24.779  10.597  19.526
62439W        W63303  23.615  10.382  20.871
62440W        W63304  22.989  10.508  20.184
62441W        W63305  24.967   9.784  20.783
62442W        W63306  23.826   9.849  21.752
62443W        W63307  22.459   9.703  20.175
62444W        W63308  24.921   9.396  19.690
62445W        W63309  24.481  10.486  20.363
62446W        W63310  22.589  10.240  20.392
62447W        W63311  23.498   8.355  21.507
62448W        W63312  23.658  10.448  18.978
62449W        W63313  23.275   9.828  21.595
62450W        W63314  23.251  10.180  19.164
62451W        W63315  22.690   8.451  17.964
62452W        W63316  22.086  10.804  25.407
62453W        W63317  22.363   9.858  24.872
62454W        W63318  25.230   9.451  22.639
62455W        W63319  25.231  10.611  24.566
62456W        W63320  23.006  10.721  22.096
62457W        W63321  23.329   8.640  22.871
62458W        W63322  22.803   8.389  23.377
62459W        W63323  23.654   9.068  22.729
62460W        W63324  23.492  10.623  25.005
62461W        W63325  21.858   7.986  24.960
62462W        W63326  22.677   7.399  24.729
62463W        W63327  24.523   7.681  23.566
62464W        W63328  24.131   8.504  22.144
62465W        W63329  24.600   8.270  25.301
62466W        W63330  22.007   7.695  24.515
62467W        W63331  22.225  10.312  25.482
62468W        W63332  23.429   9.806  22.082
62469W        W63333  21.995   8.418  24.022
62470W        W63334  23.106   8.611  25.026
62471W        W63335  25.158   8.447  23.585
62472W        W63336  25.224   9.533  24.535
62473W        W63337  23.677   8.650  23.557
62474W        W63338  24.368  10.094  23.939
62475W        W63339  22.436   9.381  24.173
62476W        W63340  21.759   8.869  23.892
62477W        W63341  23.139   9.067  24.769
62478W        W63342  25.253   8.810  25.102
62479W        W63343  22.768  10.250  23.638
62480W        W63344  23.984   9.987  24.602
62481W        W63345  23.361   8.439  23.930
62482W        W63346  23.447   9.315  23.618
62483W        W63347  24.261  10.217  25.391
62484W        W63348  23.639   9.400  25.428
62485W        W63349  23.640   9.213  24.815
62486W        W63350  21.651   8.333  25.327
62487W        W63351  24.708  10.108  25.121
62488W        W63352  22.288   7.610  22.996
62489W        W63353  23.082  10.043  23.992
62490W        W63354  25.419   9.725  23.536
62491W        W63355  24.876   8.166  23.928
62492W        W63356  25.075   8.174  21.810
62493W        W63357  25.516   8.773  24.277
62494W        W63358  23.623  10.664  24.173
62495W        W63359  25.454   9.934  22.548
62496W        W63360  22.343  10.952  22.681
62497W        W63361  22.765  10.873  23.037
62498W        W63362  22.642   7.654  24.284
62499W        W63363  25.111   8.715  24.606
62500W        W63364  24.567   8.930  23.143
62501W        W63365  24.565   8.830  22.170
62502W        W63366  23.909   9.891  24.063
62503W        W63367  23.825   8.183  23.391
62504W        W63368  24.251  10.364  24.366
62505W        W63369  25.039   9.063  22.990
62506W        W63370  23.832   7.729  22.790
62507W        W63371  22.520  10.492  22.765
62508W        W63372  21.895   7.880  23.224
62509W        W63373  24.649   8.550  23.590
62510W        W63374  22.279  10.195  23.764
62511W        W63375  23.268  10.295  22.245
62512W        W63376  24.897   8.647  21.754
62513W        W63377  22.187  10.249  24.269
62514W        W63378  22.999  10.144  24.477
62515W        W63379  22.990   9.228  23.369
62516W        W63380  23.130   7.508  24.309
62517W        W63381  25.377   7.457  23.794
62518W        W63382  22.657   9.162  21.707
62519W        W63383  22.127   8.165  22.052
62520W        W63384  22.399  10.230  23.257
62521W        W63385  23.291   9.644  23.252
62522W        W63386  24.819  10.540  24.863
62523W        W63387  23.924   8.164  22.485
62524W        W63388  25.159  10.933  23.407
62525W        W63389  24.788   8.661  25.014
62526W        W63390  25.588  10.199  23.317
62527W        W63391  24.210   9.532  24.695
62528W        W63392  21.831   8.974  23.072
62529W        W63393  22.937   9.566  24.223
62530W        W63394  24.192   8.601  22.689
62531W        W63395  24.076   9.013  23.031
62532W        W63396  22.389   8.516  24.329
62533W        W63397  22.353   8.489  24.840
62534W        W63398  22.178   7.505  23.513
62535W        W63399  23.988   7.823  23.783
62536W        W63400  23.773   7.943  25.174
62537W        W63401  24.152   7.771  22.276
62538W        W63402  25.315  10.461  25.065
62539W        W63403  24.174   7.542  25.150
62540W        W63404  25.198   9.965  25.255
62541W        W63405  24.728   8.181  24.804
62542W        W63406  24.517   7.871  23.054
62543W        W63407  24.880   9.091  25.342
62544W        W63408  22.508  10.692  23.508
62545W        W63409  23.420   8.206  22.340
62546W        W63410  22.806   7.707  25.113
62547W        W63411  24.901   8.180  22.814
62548W        W63412  25.248   8.622  22.736
62549W        W63413  23.053  10.810  25.284
62550W        W63414  22.992   7.385  22.576
62551W        W63415  25.270   7.953  23.633
62552W        W63416  25.487  10.125  22.025
62553W        W63417  22.082   9.328  23.778
62554W        W63418  24.290   8.018  21.781
62555W        W63419  25.429  10.184  23.802
62556W        W63420  25.424   7.387  24.355
62557W        W63421  23.920   8.824  25.107
62558W        W63422  23.579   9.984  22.545
62559W        W63423  24.419   9.332  25.485
62560W        W63424  23.892   7.329  23.657
62561W        W63425  22.472   8.356  23.814
62562W        W63426  22.118   9.565  24.541
62563W        W63427  24.208  10.621  23.445
62564W        W63428  25.176   8.275  24.385
62565W        W63429  24.115  10.858  24.781
62566W        W63430  25.161   9.289  21.996
62567W        W63431  23.507   8.992  23.224
62568W        W63432  25.522   7.439  24.859
62569W        W63433  23.770   9.542  24.438
62570W        W63434  23.864   8.308  23.886
62571W        W63435  24.715   8.626  22.663
62572W        W63436  25.037   8.559  22.249
62573W        W63437  25.221  10.145  22.956
62574W        W63438  24.669   9.770  23.677
62575W        W63439  24.454   9.061  22.636
62576W        W63440  23.928   9.116  23.524
62577W        W63441  24.989   8.922  23.530
62578W        W63442  22.280   8.020  24.174
62579W        W63443  24.999   9.160  24.822
62580W        W63444  25.436  10.631  24.075
62581W        W63445  23.242  10.107  23.476
62582W        W63446  24.544  10.788  24.485
62583W        W63447  24.289   8.119  24.485
62584W        W63448  23.629  10.965  24.607
62585W        W63449  25.170   7.762  22.911
62586W        W63450  25.072   9.112  24.281
62587W        W63451  21.973   8.226  24.517
62588W        W63452  24.835   8.100  23.380
62589W        W63453  25.205   8.307  24.941
62590W        W63454  24.179   9.942  23.473
62591W        W63455  23.372  10.526  23.196
62592W        W63456  22.501   7.559  22.479
62593W        W63457  23.562   7.557  23.994
62594W        W63458  22.495  10.819  22.177
62595W        W63459  23.154   9.127  22.878
62596W        W63460  23.717   9.698  24.946
62597W        W63461  23.575   8.188  22.861
62598W        W63462  25.011   7.582  23.381
62599W        W63463  24.663  10.850  23.558
62600W        W63464  24.010  10.468  23.900
62601W        W63465  23.432   9.680  24.053
62602W        W63466  25.272  10.184  24.288
62603W        W63467  22.788   7.731  22.912
62604W        W63468  23.544  10.227  23.886
62605W        W63469  22.840   7.923  21.832
62606W        W63470  23.679   8.457  24.336
62607W        W63471  24.442   7.861  24.050
62608W        W63472  21.875   9.233  24.246
62609W        W63473  23.558   9.054  22.123
62610W        W63474  22.805   7.400  22.061
62611W        W63475  23.808   8.588  23.052
62612W        W63476  24.557   7.697  24.778
62613W        W63477  23.294   9.671  24.605
62614W        W63478  24.043   9.326  25.136
62615W        W63479  24.532   9.244  24.987
62616W        W63480  23.793   7.639  25.579
62617W        W63481  22.965   8.163  23.801
62618W        W63482  22.403   8.003  23.343
62619W        W63483  22.188  10.673  23.103
62620W        W63484  23.818  10.189  25.082
62621W        W63485  23.068   9.868  22.470
62622W        W63486  24.433   9.052  23.623
62623W        W63487  24.570   8.834  24.061
62624W        W63488  23.807   9.332  23.982
62625W        W63489  24.330   9.726  21.822
62626W        W63490  24.056   7.712  23.281
62627W        W63491  25.438   8.124  22.652
62628W        W63492  22.183  10.448  24.981
62629W        W63493  22.542   9.870  24.391
62630W        W63494  21.836  10.813  22.704
62631W        W63495  23.801   7.947  24.271
62632W        W63496  22.741  10.304  22.330
62633W        W63497  25.395  10.450  22.537
62634W        W63498  24.036   8.987  22.352
62635W        W63499  23.050   8.193  22.930
62636W        W63500  23.837   8.088  21.987
62637W        W63501  24.374   9.733  25.134
62638W        W63502  24.738   7.723  22.603
62639W        W63503  22.323   7.192  22.139
62640W        W63504  23.519  10.090  24.380
62641W        W63505  23.052   9.629  23.702
62642W        W63506  22.938   9.980  21.958
62643W        W63507  22.051  10.260  22.838
62644W        W63508  22.646   8.956  24.889
62645W        W63509  23.338   7.623  25.283
62646W        W63510  23.999   7.741  24.696
62647W        W63511  23.167   7.422  23.078
62648W        W63512  24.013   7.246  22.694
62649W        W63513  22.204   7.527  24.047
62650W        W63514  22.042   8.385  23.504
62651W        W63515  24.909   7.635  23.919
62652W        W63516  22.052   7.871  22.577
62653W        W63517  24.858   7.880  24.387
62654W        W63518  25.365   8.815  21.887
62655W        W63519  22.563   7.834  23.798
62656W        W63520  23.855   8.274  24.782
62657W        W63521  21.926   7.512  22.231
62658W        W63522  22.628   9.432  24.648
62659W        W63523  24.038   8.810  23.921
62660W        W63524  23.478  10.774  22.314
62661W        W63525  21.898   8.948  21.893
62662W        W63526  22.880   9.842  24.863
62663W        W63527  22.277   9.039  24.541
62664W        W63528  23.344   9.248  24.319
62665W        W63529  25.003   7.437  24.667
62666W        W63530  25.501   9.122  24.702
62667W        W63531  25.482   9.087  22.345
62668W        W63532  24.052   9.409  22.703
62669W        W63533  24.768  10.814  21.862
62670W        W63534  24.001   9.036  25.583
62671W        W63535  22.383   9.814  25.392
62672W        W63536  25.495   7.847  25.298
62673W        W63537  25.050   8.657  24.042
62674W        W63538  23.527  10.752  25.490
62675W        W63539  23.314   7.390  22.162
62676W        W63540  25.098   9.770  22.192
62677W        W63541  22.777   8.216  24.947
62678W        W63542  23.345  10.118  24.878
62679W        W63543  25.342   7.863  24.641
62680W        W63544  25.096  10.795  22.308
62681W        W63545  24.697   9.344  23.971
62682W        W63546  22.973   7.859  24.645
62683W        W63547  23.447   8.960  25.227
62684W        W63548  22.704  10.032  22.818
62685W        W63549  24.692   9.428  22.886
62686W        W63550  22.435   7.974  24.660
62687W        W63551  23.682   9.949  23.085
62688W        W63552  25.405   8.748  23.248
62689W        W63553  23.697   7.423  24.987
62690W        W63554  24.900  10.134  23.937
62691W        W63555  25.061  10.548  23.712
62692W        W63556  23.670  10.328  21.885
62693W        W63557  21.939   9.966  25.153
62694W        W63558  22.775   8.164  24.280
62695W        W63559  22.676   7.542  23.389
62696W        W63560  24.360   8.363  23.969
62697W        W63561  23.066   9.461  21.915
62698W        W63562  25.198   9.297  23.804
62699W        W63563  22.619  10.195  25.145
62700W        W63564  25.050  10.958  22.889
62701W        W63565  23.043   7.893  23.359
62702W        W63566  22.602   9.360  23.696
62703W        W63567  23.210  11.005  24.306
62704W        W63568  25.056  10.860  25.206
62705W        W63569  24.240   9.192  24.231
62706W        W63570  22.099   8.514  21.665
62707W        W63571  25.409  10.612  23.043
62708W        W63572  25.054   8.036  22.316
62709W        W63573  23.204   7.427  24.810
62710W        W63574  25.061  10.075  23.443
62711W        W63575  24.942   8.578  23.144
62712W        W63576  23.337   8.330  23.335
62713W        W63577  23.550   8.708  24.771
62714W        W63578  24.497   9.982  24.660
62715W        W63579  23.252   8.303  24.630
62716W        W63580  23.025  10.672  23.561
62717W        W63581  22.565  10.672  25.299
62718W        W63582  22.666  10.431  21.836
62719W        W63583  25.100   9.648  23.116
62720W        W63584  22.822   8.583  24.589
62721W        W63585  25.478   8.333  22.096
62722W        W63586  23.434   9.553  22.769
62723W        W63587  24.147   9.027  24.714
62724W        W63588  24.183   8.629  24.379
62725W        W63589  22.795   9.043  24.358
62726W        W63590  24.946  10.815  24.145
62727W        W63591  24.634   7.720  25.328
62728W        W63592  22.244   7.595  24.965
62729W        W63593  22.862   8.627  24.039
62730W        W63594  23.108   8.400  21.856
62731W        W63595  21.928  10.060  24.648
62732W        W63596  23.505   8.924  23.941
62733W        W63597  23.369   7.963  21.861
62734W        W63598  22.637   8.847  23.629
62735W        W63599  22.262  10.714  24.496
62736W        W63600  24.978   9.026  22.471
62737W        W63601  25.043   7.801  25.047
62738W        W63602  24.637   9.868  23.177
62739W        W63603  22.155   8.924  25.056
62740W        W63604  25.167   7.514  22.403
62741W        W63605  24.909   9.855  22.668
62742W        W63606  23.709   8.614  22.504
62743W        W63607  24.646   7.810  22.092
62744W        W63608  24.691   8.422  24.357
62745W        W63609  22.112   8.900  23.505
62746W        W63610  22.771   9.848  23.321
62747W        W63611  24.485   8.406  23.081
62748W        W63612  23.468   7.976  23.706
62749W        W63613  25.625   9.821  24.407
62750W        W63614  25.361   7.857  24.129
62751W        W63615  21.956  10.524  23.555
62752W        W63616  22.271   9.807  22.995
62753W        W63617  22.413   7.660  25.473
62754W        W63618  23.689  10.268  25.595
62755W        W63619  25.379   9.256  23.324
62756W        W63620  24.706   9.406  22.256
62757W        W63621  24.081  10.861  24.263
62758W        W63622  24.834   9.600  25.353
62759W        W63623  23.502   7.332  22.645
62760W        W63624  24.320   8.143  23.499
62761W        W63625  22.141   9.781  24.055
62762W        W63626  23.298   7.786  22.733
62763W        W63627  23.226   9.477  25.097
62764W        W63628  24.084   8.141  22.962
62765W        W63629  24.357   9.696  24.239
62766W        W63630  22.541  10.307  24.648
62767W        W63631  23.204  10.331  25.340
62768W        W63632  23.067   7.819  22.279
62769W        W63633  24.450   8.164  22.536
62770W        W63634  24.282  10.381  24.891
62771W        W63635  23.159   8.764  23.570
62772W        W63636  22.814  10.704  24.450
62773W        W63637  25.259  10.612  21.861
62774W        W63638  22.099   9.448  25.058
62775W        W63639  24.227   9.515  23.770
62776W        W63640  22.918   9.580  22.909
62777W        W63641  23.304  10.544  24.540
62778W        W63642  23.525   7.809  23.210
62779W        W63643  21.622   9.414  22.423
62780W        W63644  23.614   8.550  21.985
62781W        W63645  22.496   9.390  23.196
62782W        W63646  23.494   7.868  24.738
62783W        W63647  25.138   7.673  21.911
62784W        W63648  25.331   9.343  25.174
62785W        W63649  23.986  10.645  25.256
62786W        W63650  25.514   9.762  24.900
62787W        W63651  24.964  10.395  25.450
62788W        W63652  22.750  10.870  23.967
62789W        W63653  25.576   9.767  23.035
62790W        W63654  24.170   8.644  23.422
62791W        W63655  23.718   7.340  23.122
62792W        W63656  22.875  10.383  23.158
62793W        W63657  23.282   7.992  24.208
62794W        W63658  23.064   7.665  23.827
62795W        W63659  22.121  10.528  22.392
62796W        W63660  23.767   9.439  23.162
62797W        W63661  22.956  10.482  24.904
62798W        W63662  22.032   9.368  22.764
62799W        W63663  22.030   7.935  23.728
62800W        W63664  23.677   9.786  23.596
62801W        W63665  21.799   7.518  22.859
62802W        W63666  24.616   8.878  24.579
62803W        W63667  24.618   8.322  22.050
62804W        W63668  25.262   9.739  24.036
62805W        W63669  23.782  10.311  23.443
62806W        W63670  23.031  10.539  22.680
62807W        W63671  24.262   7.511  21.853
62808W        W63672  22.273  10.666  23.967
62809W        W63673  24.092   8.407  25.329
62810W        W63674  22.330   8.073  25.173
62811W        W63675  21.923   8.421  23.012
62812W        W63676  23.233   8.692  22.333
62813W        W63677  24.403   8.835  25.300
62814W        W63678  23.028   9.140  23.906
62815W        W63679  24.328   7.235  23.383
62816W        W63680  23.540  10.723  23.672
62817W        W63681  24.783  10.344  24.388
62818W        W63682  24.602  10.294  23.533
62819W        W63683  24.298   9.429  23.256
62820W        W63684  23.633   7.743  22.322
62821W        W63685  25.431   7.379  23.129
62822W        W63686  23.096   8.916  21.883
62823W        W63687  25.300   8.208  23.152
62824W        W63688  23.948   9.411  22.041
62825W        W63689  24.848   9.664  24.860
62826W        W63690  25.024  10.284  22.192
62827W        W63691  23.225   8.090  25.129
62828W        W63692  23.249   8.750  24.354
62829W        W63693  25.098  10.098  24.754
62830W        W63694  24.262   8.040  25.004
62831W        W63695  21.845   8.533  24.896
62832W        W63696  23.777   8.972  24.369
62833W        W63697  22.292   9.751  23.523
62834W        W63698  22.272   8.903  24.018
62835W        W63699  24.664   9.372  24.487
62836W        W63700  24.533  10.658  25.265
62837W        W63701  24.314   8.535  24.866
62838W        W63702  24.922  10.526  23.199
62839W        W63703  23.812  10.469  24.626
62840W        W63704  23.143  10.547  24.045
62841W        W63705  24.858   9.827  24.340
62842W        W63706  23.959   9.802  25.423
62843W        W63707  22.626   9.833  23.896
62844W        W63708  24.793   9.362  23.400
62845W        W63709  24.524  10.577  23.975
62846W        W63710  22.663  10.336  24.125
62847W        W63711  23.585   8.439  25.226
62848W        W63712  23.534  10.456  22.721
62849W        W63713  23.451   9.880  25.347
62850W        W63714  23.209  10.064  22.932
62851W        W63715  22.649   8.609  21.660
62852W        W63716  21.978  10.932  28.859
62853W        W63717  22.361   9.923  28.553
62854W        W63718  25.121   9.534  26.172
62855W        W63719  25.251  10.556  28.264
62856W        W63720  23.107  10.629  25.796
62857W        W63721  23.262   8.852  26.645
62858W        W63722  22.555   8.503  26.833
62859W        W63723  23.807   9.448  26.332
62860W        W63724  23.303  10.732  28.449
62861W        W63725  22.138   8.086  28.469
62862W        W63726  22.649   7.517  28.206
62863W        W63727  24.539   7.774  27.169
62864W        W63728  24.250   8.444  25.828
62865W        W63729  24.697   7.968  28.808
62866W        W63730  22.140   7.686  28.083
62867W        W63731  22.164  10.414  28.969
62868W        W63732  23.636   9.765  25.841
62869W        W63733  21.981   8.567  27.560
62870W        W63734  22.974   8.484  28.768
62871W        W63735  25.211   8.370  27.252
62872W        W63736  25.231   9.349  27.970
62873W        W63737  23.720   8.714  26.900
62874W        W63738  24.144  10.100  27.536
62875W        W63739  22.501   9.412  27.902
62876W        W63740  21.692   8.999  27.621
62877W        W63741  23.097   8.993  28.361
62878W        W63742  25.285   8.754  28.774
62879W        W63743  22.826  10.082  27.291
62880W        W63744  23.864  10.027  28.272
62881W        W63745  23.373   8.442  27.423
62882W        W63746  23.493   9.369  27.256
62883W        W63747  24.406  10.175   0.026
62884W        W63748  23.463   9.348  28.941
62885W        W63749  23.615   9.207  28.448
62886W        W63750  21.973   8.285  28.929
62887W        W63751  24.706   9.930  28.697
62888W        W63752  22.282   7.588  26.646
62889W        W63753  22.847   9.837  27.765
62890W        W63754  25.317   9.725  27.035
62891W        W63755  24.683   8.111  27.530
62892W        W63756  25.101   8.171  25.456
62893W        W63757  25.594   8.819  27.945
62894W        W63758  23.463  10.589  27.690
62895W        W63759  25.219  10.102  26.149
62896W        W63760  22.430  10.984  26.256
62897W        W63761  22.665  10.832  26.701
62898W        W63762  22.831   7.629  27.732
62899W        W63763  25.251   8.443  28.138
62900W        W63764  24.629   9.030  26.819
62901W        W63765  24.494   8.925  25.802
62902W        W63766  23.698  10.011  27.794
62903W        W63767  23.567   8.207  26.984
62904W        W63768  24.269  10.223  28.032
62905W        W63769  25.136   9.122  26.708
62906W        W63770  23.969   7.834  26.472
62907W        W63771  22.499  10.481  26.350
62908W        W63772  21.958   7.977  26.691
62909W        W63773  24.654   8.601  27.323
62910W        W63774  22.213  10.207  27.304
62911W        W63775  23.479  10.378  26.098
62912W        W63776  24.855   8.637  25.556
62913W        W63777  22.025  10.292  27.827
62914W        W63778  22.764   9.879  28.256
62915W        W63779  23.117   9.328  26.893
62916W        W63780  23.381   7.667  27.754
62917W        W63781  25.465   7.454  27.286
62918W        W63782  22.670   9.457  25.150
62919W        W63783  22.285   8.105  25.715
62920W        W63784  22.481  10.050  26.892
62921W        W63785  23.358   9.870  27.186
62922W        W63786  24.806  10.443  28.572
62923W        W63787  23.903   8.259  26.189
62924W        W63788  25.169  10.701  27.049
62925W        W63789  24.902   8.586  28.472
62926W        W63790  25.573  10.075  26.750
62927W        W63791  24.079   9.397  28.261
62928W        W63792  21.783   8.991  26.703
62929W        W63793  23.011   9.421  28.024
62930W        W63794  24.199   8.654  26.333
62931W        W63795  24.137   9.130  26.641
62932W        W63796  22.464   8.531  27.860
62933W        W63797  22.464   8.392  28.798
62934W        W63798  22.243   7.384  27.115
62935W        W63799  24.169   7.892  27.499
62936W        W63800  23.653   7.873  28.713
62937W        W63801  24.130   7.834  25.973
62938W        W63802  25.335  10.398  28.745
62939W        W63803  24.223   7.465  28.708
62940W        W63804  25.191   9.834  28.893
62941W        W63805  24.881   8.096  28.312
62942W        W63806  24.431   7.928  26.700
62943W        W63807  24.898   8.955   0.049
62944W        W63808  22.603  10.542  27.199
62945W        W63809  23.396   8.299  26.029
62946W        W63810  22.774   7.603  28.719
62947W        W63811  24.910   8.216  26.428
62948W        W63812  25.190   8.689  26.400
62949W        W63813  22.982  10.676  28.841
62950W        W63814  22.925   7.361  26.106
62951W        W63815  25.333   7.896  27.025
62952W        W63816  25.418  10.219  25.675
62953W        W63817  22.098   9.352  27.428
62954W        W63818  24.221   7.949  25.502
62955W        W63819  25.436  10.182  27.249
62956W        W63820  25.410   7.553  27.811
62957W        W63821  23.991   8.485  28.664
62958W        W63822  23.748   9.965  26.343
62959W        W63823  24.417   9.155   0.106
62960W        W63824  24.237   7.376  27.302
62961W        W63825  22.754   8.264  27.255
62962W        W63826  22.189   9.497  28.340
62963W        W63827  24.020  10.518  27.050
62964W        W63828  25.152   8.163  27.735
62965W        W63829  23.827  10.654  28.552
62966W        W63830  25.166   9.372  25.677
62967W        W63831  23.629   9.207  26.793
62968W        W63832  25.506   7.447  28.336
62969W        W63833  23.645   9.593  28.097
62970W        W63834  23.895   8.455  27.308
62971W        W63835  24.694   8.585  26.143
62972W        W63836  25.163   8.469  25.923
62973W        W63837  24.870  10.320  26.458
62974W        W63838  24.718   9.894  27.212
62975W        W63839  24.570   9.057  26.309
62976W        W63840  24.005   9.235  27.171
62977W        W63841  25.019   8.963  27.241
62978W        W63842  22.314   8.172  27.521
62979W        W63843  24.918   9.083  28.557
62980W        W63844  25.405  10.610  27.516
62981W        W63845  23.236  10.360  27.159
62982W        W63846  24.461  10.683  28.268
62983W        W63847  24.442   8.010  28.002
62984W        W63848  23.728  10.813  28.073
62985W        W63849  25.262   7.827  26.500
62986W        W63850  25.047   8.903  28.103
62987W        W63851  22.047   8.253  27.991
62988W        W63852  24.845   8.134  26.968
62989W        W63853  25.273   8.230  28.614
62990W        W63854  24.219   9.992  27.039
62991W        W63855  23.355  10.638  26.754
62992W        W63856  22.614   7.784  25.965
62993W        W63857  23.749   7.473  27.442
62994W        W63858  22.573  10.799  25.796
62995W        W63859  23.329   9.280  26.366
62996W        W63860  23.689   9.683  28.600
62997W        W63861  23.446   7.895  26.569
62998W        W63862  24.927   7.625  26.867
62999W        W63863  24.775  10.823  27.364
63000W        W63864  23.973  10.555  27.663
63001W        W63865  23.356   9.627  27.675
63002W        W63866  25.269  10.229  27.867
63003W        W63867  22.774   7.699  26.476
63004W        W63868  23.235  10.132  27.626
63005W        W63869  22.775   8.077  25.465
63006W        W63870  23.753   8.516  27.802
63007W        W63871  24.562   7.600  27.649
63008W        W63872  21.963   9.325  27.923
63009W        W63873  23.621   9.208  25.916
63010W        W63874  22.918   7.587  25.606
63011W        W63875  23.529   8.423  26.512
63012W        W63876  24.574   7.673  28.377
63013W        W63877  23.197   9.535  28.489
63014W        W63878  23.982   9.317  28.835
63015W        W63879  24.454   9.307  28.587
63016W        W63880  23.850   7.529   0.064
63017W        W63881  23.132   7.959  27.422
63018W        W63882  22.483   7.998  26.866
63019W        W63883  22.247  10.526  26.813
63020W        W63884  23.597  10.216  28.675
63021W        W63885  23.275   9.784  26.213
63022W        W63886  24.514   9.148  27.300
63023W        W63887  24.702   8.936  27.725
63024W        W63888  23.834   9.380  27.662
63025W        W63889  24.487   9.832  25.662
63026W        W63890  23.984   7.846  27.013
63027W        W63891  25.489   8.234  26.261
63028W        W63892  22.128  10.628  28.479
63029W        W63893  22.303   9.880  27.983
63030W        W63894  21.998  10.841  26.462
63031W        W63895  23.918   8.031  27.920
63032W        W63896  23.208  10.072  25.781
63033W        W63897  25.128  10.609  26.109
63034W        W63898  24.102   9.090  26.097
63035W        W63899  23.046   8.217  26.466
63036W        W63900  23.780   8.173  25.678
63037W        W63901  24.192   9.786  28.576
63038W        W63902  24.783   7.713  26.364
63039W        W63903  22.070   7.490  25.827
63040W        W63904  23.250   9.907  28.109
63041W        W63905  22.970   9.579  27.332
63042W        W63906  22.935   9.864  25.375
63043W        W63907  21.986  10.314  26.401
63044W        W63908  22.653   8.907  28.722
63045W        W63909  23.285   7.515  28.877
63046W        W63910  24.013   7.664  28.276
63047W        W63911  23.177   7.470  26.760
63048W        W63912  24.328   7.487  26.292
63049W        W63913  22.279   7.518  27.623
63050W        W63914  22.096   8.376  27.072
63051W        W63915  25.032   7.735  27.417
63052W        W63916  22.535   8.146  26.366
63053W        W63917  24.932   7.760  27.942
63054W        W63918  25.344   8.876  25.609
63055W        W63919  22.594   7.785  27.317
63056W        W63920  23.701   8.221  28.333
63057W        W63921  21.682   7.828  25.972
63058W        W63922  22.683   9.382  28.451
63059W        W63923  24.152   8.860  27.529
63060W        W63924  23.810  10.765  25.921
63061W        W63925  21.901   9.038  25.509
63062W        W63926  22.821   9.814  28.758
63063W        W63927  22.364   9.007  28.237
63064W        W63928  23.449   9.144  27.971
63065W        W63929  24.983   7.354  28.240
63066W        W63930  25.463   9.102  28.375
63067W        W63931  25.480   9.191  26.051
63068W        W63932  24.319   9.530  26.334
63069W        W63933  24.764  10.805  25.715
63070W        W63934  24.067   8.762   0.111
63071W        W63935  22.417   9.552  28.927
63072W        W63936  25.597   7.827  28.867
63073W        W63937  25.148   8.670  27.662
63074W        W63938  23.489  10.677  28.945
63075W        W63939  23.365   7.475  25.810
63076W        W63940  25.008   9.870  25.749
63077W        W63941  22.659   8.040  28.479
63078W        W63942  23.096  10.225  28.525
63079W        W63943  25.371   7.931  28.182
63080W        W63944  24.635  10.725  26.236
63081W        W63945  24.784   9.481  27.613
63082W        W63946  23.021   7.899  28.126
63083W        W63947  23.653   8.861  28.820
63084W        W63948  22.844  10.073  26.375
63085W        W63949  24.781   9.462  26.552
63086W        W63950  22.524   8.002  27.970
63087W        W63951  23.725  10.092  26.876
63088W        W63952  25.424   8.751  26.937
63089W        W63953  23.689   7.392  28.589
63090W        W63954  24.615   9.988  27.702
63091W        W63955  24.959  10.333  27.440
63092W        W63956  24.067  10.049  25.888
63093W        W63957  22.002   9.907  28.907
63094W        W63958  22.915   8.283  27.773
63095W        W63959  22.705   7.483  26.930
63096W        W63960  24.268   8.381  27.671
63097W        W63961  23.207   9.531  25.671
63098W        W63962  25.263   9.375  27.436
63099W        W63963  22.617  10.330  28.705
63100W        W63964  25.001  10.874  26.572
63101W        W63965  23.005   7.935  26.913
63102W        W63966  22.631   9.196  27.432
63103W        W63967  23.119  10.856  27.974
63104W        W63968  25.087  10.844  28.739
63105W        W63969  24.321   9.271  27.801
63106W        W63970  22.124   8.508  25.366
63107W        W63971  25.350  10.499  26.567
63108W        W63972  25.108   7.962  26.011
63109W        W63973  23.132   7.456  28.386
63110W        W63974  25.039  10.207  26.935
63111W        W63975  24.938   8.630  26.862
63112W        W63976  23.112   8.457  26.945
63113W        W63977  23.598   8.717  28.296
63114W        W63978  24.542   9.804  28.210
63115W        W63979  23.181   8.378  28.303
63116W        W63980  23.042  10.829  27.095
63117W        W63981  22.475  10.809  28.822
63118W        W63982  22.745  10.304  25.630
63119W        W63983  25.118   9.853  26.578
63120W        W63984  22.677   8.562  28.329
63121W        W63985  25.609   8.697  26.077
63122W        W63986  23.447   9.681  26.696
63123W        W63987  24.070   8.943  28.490
63124W        W63988  24.113   8.512  28.157
63125W        W63989  22.783   8.951  27.919
63126W        W63990  24.993  10.674  27.825
63127W        W63991  24.740   7.423  28.823
63128W        W63992  22.281   7.578  28.555
63129W        W63993  22.931   8.705  27.472
63130W        W63994  23.146   8.457  25.524
63131W        W63995  21.971  10.155  28.329
63132W        W63996  23.632   8.924  27.526
63133W        W63997  23.287   7.971  25.648
63134W        W63998  22.797   8.925  27.020
63135W        W63999  22.096  10.850  28.016
63136W        W64000  24.994   8.983  25.987
63137W        W64001  25.119   7.722  28.593
63138W        W64002  24.618   9.935  26.708
63139W        W64003  22.168   8.747   0.042
63140W        W64004  25.312   7.500  26.071
63141W        W64005  24.724   9.863  26.198
63142W        W64006  23.735   8.899  26.398
63143W        W64007  24.658   7.688  25.863
63144W        W64008  24.741   8.457  27.955
63145W        W64009  22.447   8.659  27.345
63146W        W64010  22.973   9.852  26.845
63147W        W64011  24.510   8.448  26.679
63148W        W64012  23.667   8.010  27.464
63149W        W64013  25.522   9.768  27.928
63150W        W64014  25.531   7.948  27.490
63151W        W64015  21.910  10.622  27.183
63152W        W64016  22.135   9.825  26.563
63153W        W64017  22.437   7.384   0.037
63154W        W64018  23.517  10.226   0.194
63155W        W64019  25.542   9.254  27.009
63156W        W64020  24.675   9.413  25.927
63157W        W64021  24.192  11.005  27.942
63158W        W64022  24.811   9.451  28.917
63159W        W64023  23.418   7.432  26.312
63160W        W64024  24.333   8.241  27.133
63161W        W64025  21.975   9.828  27.563
63162W        W64026  23.126   7.830  26.125
63163W        W64027  22.944   9.317  28.907
63164W        W64028  24.012   8.306  26.715
63165W        W64029  24.130   9.744  27.896
63166W        W64030  22.458  10.334  28.202
63167W        W64031  22.991  10.206   0.045
63168W        W64032  22.880   8.240  25.946
63169W        W64033  24.417   8.155  26.245
63170W        W64034  24.223  10.302  28.547
63171W        W64035  23.299   8.899  27.149
63172W        W64036  22.610  10.755  27.898
63173W        W64037  25.301  10.723  25.652
63174W        W64038  22.193   9.141  28.723
63175W        W64039  24.317   9.620  27.417
63176W        W64040  22.597   9.505  26.995
63177W        W64041  22.957  10.346  28.032
63178W        W64042  23.460   7.720  27.095
63179W        W64043  21.921   9.454  26.244
63180W        W64044  23.792   8.684  25.918
63181W        W64045  22.118   8.953  27.105
63182W        W64046  23.510   7.760  28.235
63183W        W64047  25.118   7.657  25.587
63184W        W64048  25.319   9.295  28.832
63185W        W64049  23.962  10.447   0.005
63186W        W64050  25.496   9.659  28.456
63187W        W64051  24.929  10.321   0.051
63188W        W64052  22.749  11.011  27.465
63189W        W64053  25.520   9.523  26.563
63190W        W64054  24.232   8.754  27.016
63191W        W64055  23.719   7.468  26.736
63192W        W64056  22.878  10.375  26.799
63193W        W64057  23.402   8.161  27.887
63194W        W64058  23.160   7.404  27.372
63195W        W64059  22.094  10.665  25.972
63196W        W64060  23.941   9.620  26.799
63197W        W64061  22.772  10.743  28.380
63198W        W64062  22.197   9.312  26.724
63199W        W64063  22.083   7.865  27.177
63200W        W64064  23.835   9.754  27.306
63201W        W64065  22.140   7.851  26.205
63202W        W64066  24.515   8.859  28.228
63203W        W64067  24.700   8.194  25.800
63204W        W64068  25.145   9.860  27.515
63205W        W64069  23.688  10.257  27.354
63206W        W64070  23.042  10.565  26.343
63207W        W64071  24.272   7.429  25.646
63208W        W64072  22.244  10.682  27.554
63209W        W64073  24.367   8.340  28.997
63210W        W64074  22.345   7.901  28.937
63211W        W64075  21.983   8.515  26.585
63212W        W64076  23.317   8.800  26.121
63213W        W64077  24.495   8.785  28.755
63214W        W64078  23.136   9.157  27.575
63215W        W64079  24.435   7.410  26.813
63216W        W64080  23.579  10.755  27.216
63217W        W64081  24.789  10.281  28.088
63218W        W64082  24.476  10.382  27.278
63219W        W64083  24.413   9.498  26.920
63220W        W64084  23.629   7.842  26.061
63221W        W64085  25.528   7.479  26.775
63222W        W64086  22.952   9.042  25.291
63223W        W64087  25.303   8.304  26.734
63224W        W64088  24.089   9.519  25.838
63225W        W64089  24.997   9.572  28.457
63226W        W64090  24.757  10.301  25.918
63227W        W64091  23.153   7.967  28.633
63228W        W64092  23.253   8.682  27.880
63229W        W64093  25.144  10.063  28.410
63230W        W64094  24.156   7.987  28.634
63231W        W64095  22.110   8.629  28.506
63232W        W64096  23.934   8.976  27.988
63233W        W64097  22.118   9.709  27.065
63234W        W64098  22.274   8.975  27.714
63235W        W64099  24.723   9.320  28.113
63236W        W64100  24.415  10.679  28.849
63237W        W64101  24.467   8.344  28.474
63238W        W64102  24.692  10.599  26.872
63239W        W64103  23.480  10.358  28.156
63240W        W64104  22.968  10.563  27.557
63241W        W64105  24.999   9.799  27.994
63242W        W64106  23.893   9.914   0.006
63243W        W64107  22.466   9.734  27.452
63244W        W64108  24.898   9.432  27.068
63245W        W64109  24.494  10.583  27.750
63246W        W64110  22.549  10.264  27.693
63247W        W64111  23.476   8.377  28.770
63248W        W64112  23.779  10.471  26.517
63249W        W64113  23.309   9.844  28.895
63250W        W64114  23.314  10.168  26.572
63251W        W64115  22.643   8.581  25.277
63252W        W64116  21.879  14.656   3.409
63253W        W64117  22.286  13.516   2.817
63254W        W64118  25.064  13.230   0.791
63255W        W64119  25.285  14.328   2.720
63256W        W64120  23.407  14.334   0.188
63257W        W64121  23.001  12.380   1.112
63258W        W64122  22.587  12.302   1.524
63259W        W64123  23.704  13.074   0.834
63260W        W64124  23.330  14.404   2.954
63261W        W64125  21.910  11.671   2.981
63262W        W64126  22.462  10.953   2.759
63263W        W64127  24.332  11.360   1.655
63264W        W64128  24.166  12.033   0.542
63265W        W64129  24.627  11.699   3.122
63266W        W64130  22.163  11.315   2.544
63267W        W64131  22.036  14.163   3.482
63268W        W64132  23.509  13.291   0.394
63269W        W64133  22.129  12.122   1.828
63270W        W64134  23.085  12.278   2.975
63271W        W64135  25.405  11.973   1.922
63272W        W64136  25.113  13.056   2.542
63273W        W64137  23.621  12.315   1.582
63274W        W64138  24.086  13.876   2.012
63275W        W64139  22.500  13.037   2.126
63276W        W64140  21.771  12.637   2.011
63277W        W64141  23.109  12.750   2.752
63278W        W64142  25.196  12.437   3.073
63279W        W64143  22.768  13.801   1.672
63280W        W64144  23.735  13.781   2.726
63281W        W64145  23.273  12.092   1.932
63282W        W64146  23.420  12.951   1.668
63283W        W64147  24.357  13.923   3.517
63284W        W64148  23.505  13.086   3.293
63285W        W64149  23.603  12.892   2.832
63286W        W64150  21.628  11.940   3.314
63287W        W64151  24.671  13.726   3.131
63288W        W64152  22.350  11.179   1.024
63289W        W64153  22.804  13.472   2.087
63290W        W64154  25.228  13.443   1.623
63291W        W64155  24.793  11.506   1.872
63292W        W64156  25.129  11.719   0.164
63293W        W64157  25.557  12.400   2.401
63294W        W64158  23.379  14.286   2.048
63295W        W64159  25.203  13.723   0.825
63296W        W64160  22.495  14.627   0.610
63297W        W64161  22.847  14.475   0.984
63298W        W64162  22.621  11.119   2.293
63299W        W64163  25.171  12.133   2.618
63300W        W64164  24.589  12.665   1.331
63301W        W64165  24.550  12.359   0.385
63302W        W64166  23.645  13.692   2.191
63303W        W64167  23.512  11.828   1.382
63304W        W64168  24.055  14.090   2.495
63305W        W64169  25.095  12.826   1.143
63306W        W64170  23.484  11.440   1.015
63307W        W64171  22.445  14.154   0.773
63308W        W64172  21.990  11.498   1.258
63309W        W64173  24.897  12.035   1.750
63310W        W64174  22.258  13.876   1.719
63311W        W64175  23.472  14.003   0.575
63312W        W64176  24.845  12.138   0.015
63313W        W64177  22.014  13.920   2.216
63314W        W64178  22.722  13.659   2.572
63315W        W64179  23.079  12.880   1.251
63316W        W64180  23.107  11.384   2.310
63317W        W64181  25.392  11.072   1.873
63318W        W64182  22.589  12.747   0.335
63319W        W64183  22.267  11.961   0.508
63320W        W64184  22.209  13.963   1.202
63321W        W64185  23.413  13.272   1.266
63322W        W64186  24.852  14.185   2.934
63323W        W64187  23.544  11.865   0.617
63324W        W64188  25.132  14.448   1.561
63325W        W64189  24.650  12.230   3.029
63326W        W64190  25.463  13.762   1.300
63327W        W64191  24.073  13.078   2.703
63328W        W64192  21.927  12.661   1.098
63329W        W64193  22.888  13.142   2.473
63330W        W64194  24.187  12.304   1.002
63331W        W64195  24.134  12.881   1.119
63332W        W64196  22.410  12.098   2.243
63333W        W64197  22.361  12.206   2.988
63334W        W64198  22.231  11.113   1.528
63335W        W64199  24.044  11.343   2.142
63336W        W64200  23.756  11.599   3.097
63337W        W64201  24.305  11.478   0.609
63338W        W64202  25.318  14.091   3.202
63339W        W64203  24.144  11.146   2.765
63340W        W64204  25.146  13.507   3.347
63341W        W64205  24.723  11.872   2.651
63342W        W64206  24.383  11.418   1.131
63343W        W64207  24.802  12.773   3.452
63344W        W64208  22.550  14.295   1.564
63345W        W64209  23.137  12.266   0.621
63346W        W64210  22.839  11.322   3.117
63347W        W64211  24.983  11.955   0.992
63348W        W64212  25.315  12.372   0.895
63349W        W64213  22.934  14.528   3.253
63350W        W64214  22.997  11.028   0.663
63351W        W64215  25.269  11.512   1.664
63352W        W64216  25.417  13.835   0.330
63353W        W64217  22.075  13.006   1.796
63354W        W64218  24.263  11.490   0.100
63355W        W64219  25.363  13.911   1.826
63356W        W64220  25.404  11.028   2.410
63357W        W64221  23.944  12.433   2.982
63358W        W64222  23.526  13.562   0.849
63359W        W64223  24.330  12.946   3.631
63360W        W64224  23.907  11.055   1.730
63361W        W64225  22.607  11.865   1.798
63362W        W64226  22.368  12.996   2.646
63363W        W64227  24.055  14.271   1.554
63364W        W64228  25.014  11.813   2.224
63365W        W64229  23.889  14.390   2.888
63366W        W64230  25.172  13.081   0.325
63367W        W64231  23.642  12.733   1.249
63368W        W64232  25.545  11.004   2.964
63369W        W64233  23.646  13.314   2.547
63370W        W64234  24.038  12.185   1.891
63371W        W64235  24.687  12.368   0.899
63372W        W64236  25.017  12.174   0.515
63373W        W64237  24.826  14.036   0.968
63374W        W64238  24.697  13.551   1.683
63375W        W64239  24.360  12.741   0.681
63376W        W64240  23.930  13.045   1.566
63377W        W64241  25.005  12.644   1.732
63378W        W64242  22.438  11.596   2.214
63379W        W64243  24.833  12.744   2.917
63380W        W64244  25.340  14.278   2.191
63381W        W64245  23.247  13.750   1.485
63382W        W64246  24.397  14.426   2.739
63383W        W64247  24.496  11.584   2.280
63384W        W64248  23.470  14.751   2.596
63385W        W64249  25.195  11.491   1.131
63386W        W64250  24.730  12.746   2.161
63387W        W64251  21.938  11.708   2.290
63388W        W64252  24.768  11.683   1.378
63389W        W64253  25.073  11.938   3.073
63390W        W64254  24.081  13.734   1.525
63391W        W64255  23.209  13.998   1.008
63392W        W64256  22.467  11.420   0.487
63393W        W64257  23.533  11.164   2.068
63394W        W64258  22.611  14.219   0.191
63395W        W64259  22.845  12.761   0.787
63396W        W64260  23.825  13.394   3.043
63397W        W64261  23.145  11.863   0.972
63398W        W64262  24.890  11.187   1.486
63399W        W64263  24.491  14.528   1.772
63400W        W64264  23.884  14.333   2.061
63401W        W64265  23.282  13.310   2.002
63402W        W64266  25.021  13.968   2.443
63403W        W64267  22.788  11.436   0.922
63404W        W64268  23.188  13.812   1.984
63405W        W64269  22.881  11.520   0.127
63406W        W64270  23.665  12.192   2.274
63407W        W64271  24.477  11.073   2.279
63408W        W64272  21.990  13.018   2.305
63409W        W64273  23.598  12.755   0.349
63410W        W64274  22.822  11.020   0.178
63411W        W64275  23.535  12.234   1.036
63412W        W64276  24.642  11.354   2.724
63413W        W64277  23.232  13.265   2.873
63414W        W64278  23.982  12.913   3.178
63415W        W64279  24.458  13.034   3.093
63416W        W64280  23.788  11.264   3.502
63417W        W64281  23.089  11.613   1.845
63418W        W64282  22.517  11.569   1.375
63419W        W64283  22.356  14.506   1.145
63420W        W64284  23.623  14.046   3.166
63421W        W64285  22.707  13.216   0.546
63422W        W64286  24.403  12.905   1.753
63423W        W64287  24.527  12.407   1.798
63424W        W64288  23.764  13.147   2.073
63425W        W64289  24.332  13.347   0.105
63426W        W64290  23.919  11.450   1.344
63427W        W64291  25.532  11.891   0.979
63428W        W64292  22.067  14.310   2.971
63429W        W64293  22.294  13.479   2.295
63430W        W64294  22.004  14.457   0.783
63431W        W64295  24.048  11.843   2.281
63432W        W64296  23.089  13.637   0.594
63433W        W64297  25.109  14.212   0.587
63434W        W64298  23.851  12.589   0.766
63435W        W64299  22.655  11.998   1.102
63436W        W64300  23.865  11.823   0.182
63437W        W64301  24.260  13.458   3.299
63438W        W64302  24.786  11.471   0.816
63439W        W64303  22.074  11.053   0.341
63440W        W64304  23.207  13.563   2.443
63441W        W64305  22.942  13.290   1.579
63442W        W64306  23.044  13.350   0.182
63443W        W64307  21.995  13.902   0.735
63444W        W64308  22.639  12.612   2.888
63445W        W64309  23.309  11.299   3.313
63446W        W64310  23.758  11.453   2.576
63447W        W64311  23.169  11.037   1.167
63448W        W64312  23.945  11.202   0.876
63449W        W64313  22.140  11.176   2.044
63450W        W64314  22.180  11.961   1.359
63451W        W64315  24.870  10.941   1.946
63452W        W64316  22.320  11.677   0.912
63453W        W64317  24.955  11.284   2.316
63454W        W64318  25.325  12.547   0.337
63455W        W64319  22.619  11.335   1.828
63456W        W64320  23.797  11.964   2.734
63457W        W64321  21.993  11.567   0.278
63458W        W64322  22.738  13.123   2.972
63459W        W64323  23.935  12.683   1.919
63460W        W64324  23.915  14.212   0.318
63461W        W64325  22.067  12.914   0.227
63462W        W64326  22.882  13.636   3.062
63463W        W64327  22.257  12.481   2.542
63464W        W64328  23.362  12.937   2.357
63465W        W64329  25.059  11.065   2.792
63466W        W64330  25.494  12.764   2.777
63467W        W64331  25.400  12.858   0.724
63468W        W64332  24.227  13.279   0.797
63469W        W64333  24.891  14.503   0.200
63470W        W64334  24.039  12.263   3.559
63471W        W64335  22.477  13.435   3.304
63472W        W64336  25.617  11.358   3.349
63473W        W64337  25.079  12.335   2.142
63474W        W64338  23.409  14.416   3.487
63475W        W64339  23.381  11.066   0.314
63476W        W64340  24.977  13.551   0.382
63477W        W64341  22.729  11.835   3.035
63478W        W64342  23.249  13.902   2.824
63479W        W64343  25.181  11.590   2.662
63480W        W64344  24.697  14.677   0.636
63481W        W64345  24.659  13.245   2.092
63482W        W64346  22.724  11.486   2.642
63483W        W64347  23.483  12.569   3.218
63484W        W64348  22.609  13.672   0.790
63485W        W64349  24.643  13.052   1.003
63486W        W64350  22.312  11.810   2.671
63487W        W64351  23.677  13.864   1.237
63488W        W64352  25.455  12.417   1.558
63489W        W64353  23.676  11.106   2.997
63490W        W64354  24.554  13.745   2.153
63491W        W64355  24.898  14.147   1.962
63492W        W64356  23.948  13.574   0.446
63493W        W64357  21.968  13.682   3.214
63494W        W64358  22.895  11.869   2.249
63495W        W64359  22.720  11.105   1.398
63496W        W64360  24.401  11.848   1.765
63497W        W64361  23.113  12.888   0.379
63498W        W64362  25.148  13.102   2.011
63499W        W64363  22.427  13.947   3.126
63500W        W64364  25.012  14.621   1.055
63501W        W64365  23.055  11.507   1.350
63502W        W64366  22.602  12.841   1.627
63503W        W64367  23.066  14.592   2.298
63504W        W64368  25.070  14.530   3.255
63505W        W64369  24.227  12.995   2.227
63506W        W64370  22.144  12.479   0.497
63507W        W64371  25.294  14.196   1.114
63508W        W64372  25.222  11.682   0.645
63509W        W64373  22.976  10.991   2.712
63510W        W64374  24.982  13.938   1.472
63511W        W64375  24.998  12.350   1.318
63512W        W64376  23.018  12.005   1.485
63513W        W64377  23.510  12.396   2.723
63514W        W64378  24.379  13.471   2.805
63515W        W64379  23.286  11.912   2.598
63516W        W64380  23.097  14.295   1.437
63517W        W64381  22.412  14.521   3.312
63518W        W64382  22.645  13.679   0.263
63519W        W64383  24.942  13.482   1.213
63520W        W64384  22.728  12.171   2.628
63521W        W64385  25.530  12.086   0.494
63522W        W64386  23.175  13.169   0.803
63523W        W64387  24.340  12.648   2.757
63524W        W64388  24.281  12.487   2.256
63525W        W64389  22.718  12.653   2.386
63526W        W64390  24.835  14.446   2.434
63527W        W64391  24.716  11.331   3.471
63528W        W64392  22.350  11.403   3.018
63529W        W64393  22.799  12.331   1.989
63530W        W64394  23.163  11.943   0.231
63531W        W64395  21.892  13.853   2.724
63532W        W64396  23.444  12.575   2.011
63533W        W64397  23.432  11.531   0.115
63534W        W64398  22.494  12.619   1.135
63535W        W64399  22.067  14.454   2.465
63536W        W64400  24.908  12.731   0.625
63537W        W64401  25.124  11.439   3.158
63538W        W64402  24.508  13.766   1.253
63539W        W64403  22.060  12.637   2.978
63540W        W64404  25.164  11.179   0.606
63541W        W64405  24.663  13.566   0.796
63542W        W64406  23.349  12.686   0.823
63543W        W64407  24.736  11.339   0.299
63544W        W64408  24.573  12.077   2.188
63545W        W64409  22.144  12.563   1.543
63546W        W64410  22.523  13.561   1.295
63547W        W64411  24.529  12.144   1.359
63548W        W64412  23.871  11.689   1.796
63549W        W64413  25.357  13.543   2.460
63550W        W64414  25.414  11.490   2.175
63551W        W64415  22.032  14.324   1.527
63552W        W64416  22.177  13.423   0.927
63553W        W64417  22.429  11.367   3.525
63554W        W64418  23.451  13.939   3.712
63555W        W64419  25.405  12.963   1.555
63556W        W64420  24.644  13.156   0.483
63557W        W64421  23.964  14.647   2.450
63558W        W64422  24.707  13.279   3.470
63559W        W64423  23.488  10.909   0.790
63560W        W64424  24.027  11.982   1.391
63561W        W64425  21.937  13.491   1.911
63562W        W64426  23.176  11.503   0.570
63563W        W64427  23.025  13.243   3.385
63564W        W64428  23.956  11.742   0.923
63565W        W64429  24.108  13.503   2.373
63566W        W64430  22.356  14.028   2.618
63567W        W64431  23.105  14.050   3.294
63568W        W64432  22.772  11.844   0.573
63569W        W64433  24.478  11.878   0.920
63570W        W64434  24.155  13.936   3.027
63571W        W64435  23.110  12.508   1.612
63572W        W64436  22.601  14.392   2.359
63573W        W64437  25.390  14.333   0.175
63574W        W64438  22.105  13.129   3.114
63575W        W64439  24.205  13.382   1.873
63576W        W64440  22.672  13.142   1.064
63577W        W64441  23.020  14.070   2.399
63578W        W64442  23.487  11.357   1.596
63579W        W64443  21.900  13.366   0.482
63580W        W64444  23.577  12.252   0.269
63581W        W64445  22.231  13.041   1.305
63582W        W64446  23.281  11.401   2.797
63583W        W64447  25.193  11.201   0.095
63584W        W64448  25.225  12.943   3.201
63585W        W64449  23.974  14.332   3.407
63586W        W64450  25.439  13.306   2.907
63587W        W64451  24.906  13.996   3.493
63588W        W64452  22.645  14.666   1.925
63589W        W64453  25.474  13.233   1.103
63590W        W64454  24.112  12.505   1.475
63591W        W64455  23.673  11.003   1.269
63592W        W64456  22.733  14.009   1.181
63593W        W64457  23.516  11.688   2.176
63594W        W64458  23.080  11.100   1.756
63595W        W64459  22.137  14.216   0.354
63596W        W64460  23.905  13.391   1.187
63597W        W64461  22.807  14.208   2.853
63598W        W64462  22.300  12.922   0.754
63599W        W64463  22.137  11.600   1.757
63600W        W64464  23.660  13.471   1.680
63601W        W64465  21.937  11.342   0.747
63602W        W64466  24.739  12.401   2.544
63603W        W64467  24.651  11.829   0.416
63604W        W64468  25.039  13.610   2.066
63605W        W64469  23.650  13.978   1.743
63606W        W64470  22.924  14.119   0.584
63607W        W64471  24.307  11.000   0.266
63608W        W64472  22.239  14.334   1.990
63609W        W64473  24.171  11.979   3.129
63610W        W64474  22.277  11.827   3.327
63611W        W64475  22.178  12.239   0.945
63612W        W64476  22.616  12.324   0.697
63613W        W64477  24.355  12.557   3.277
63614W        W64478  22.988  12.870   1.989
63615W        W64479  24.193  10.972   1.302
63616W        W64480  23.571  14.475   1.617
63617W        W64481  24.529  13.932   2.632
63618W        W64482  24.481  14.016   1.706
63619W        W64483  24.374  13.276   1.381
63620W        W64484  23.843  11.321   0.374
63621W        W64485  25.420  11.088   1.346
63622W        W64486  23.020  12.451   0.125
63623W        W64487  25.285  11.942   1.413
63624W        W64488  24.005  13.050   0.400
63625W        W64489  24.892  13.269   2.970
63626W        W64490  24.515  13.784   0.341
63627W        W64491  23.254  11.802   3.106
63628W        W64492  23.144  12.363   2.373
63629W        W64493  25.127  13.733   2.888
63630W        W64494  24.223  11.650   2.739
63631W        W64495  21.910  12.145   2.786
63632W        W64496  23.833  12.689   2.425
63633W        W64497  22.040  13.505   1.423
63634W        W64498  22.309  12.571   2.032
63635W        W64499  24.593  13.052   2.578
63636W        W64500  24.495  14.345   3.263
63637W        W64501  24.280  12.151   2.645
63638W        W64502  24.668  14.344   1.339
63639W        W64503  23.551  14.227   2.518
63640W        W64504  22.893  14.232   1.928
63641W        W64505  24.824  13.504   2.524
63642W        W64506  23.862  13.725   3.481
63643W        W64507  22.429  13.378   1.754
63644W        W64508  24.850  13.084   1.535
63645W        W64509  24.426  14.244   2.192
63646W        W64510  22.548  13.918   2.145
63647W        W64511  23.670  12.086   3.236
63648W        W64512  23.563  14.355   1.111
63649W        W64513  23.383  13.604   3.245
63650W        W64514  22.998  13.540   1.102
63651W        W64515  22.547  12.249   0.196
63652W        W64516  21.835  14.608   7.031
63653W        W64517  22.287  13.528   6.501
63654W        W64518  25.061  13.304   4.337
63655W        W64519  25.289  14.308   6.418
63656W        W64520  22.967  14.325   3.746
63657W        W64521  23.383  12.528   5.233
63658W        W64522  22.940  12.025   5.271
63659W        W64523  23.671  13.019   4.005
63660W        W64524  23.435  14.309   6.740
63661W        W64525  21.942  11.703   6.586
63662W        W64526  22.387  11.027   6.397
63663W        W64527  24.590  11.449   5.462
63664W        W64528  24.261  12.070   3.980
63665W        W64529  24.655  11.864   6.936
63666W        W64530  22.023  11.345   6.191
63667W        W64531  22.072  14.199   7.196
63668W        W64532  23.433  13.393   3.710
63669W        W64533  22.060  12.226   5.742
63670W        W64534  23.158  12.414   6.875
63671W        W64535  25.379  12.002   5.360
63672W        W64536  25.227  13.023   6.139
63673W        W64537  23.887  12.432   5.317
63674W        W64538  24.167  13.826   5.670
63675W        W64539  22.658  13.061   5.783
63676W        W64540  21.660  12.551   5.626
63677W        W64541  23.103  12.792   6.482
63678W        W64542  25.261  12.498   6.836
63679W        W64543  22.792  13.923   5.407
63680W        W64544  24.001  13.714   6.424
63681W        W64545  23.727  12.130   5.686
63682W        W64546  23.565  13.014   5.401
63683W        W64547  24.286  14.023   7.159
63684W        W64548  23.612  13.156   7.124
63685W        W64549  23.582  13.010   6.632
63686W        W64550  21.938  12.024   6.985
63687W        W64551  24.673  13.743   6.905
63688W        W64552  22.413  11.289   4.841
63689W        W64553  22.878  13.553   5.805
63690W        W64554  25.333  13.441   5.211
63691W        W64555  25.078  11.598   5.486
63692W        W64556  24.991  11.772   3.566
63693W        W64557  25.762  12.554   6.089
63694W        W64558  23.462  14.231   5.962
63695W        W64559  25.218  13.798   4.203
63696W        W64560  22.322  14.631   4.365
63697W        W64561  22.635  14.512   4.776
63698W        W64562  22.789  11.288   6.199
63699W        W64563  25.235  12.474   6.260
63700W        W64564  24.614  12.726   4.863
63701W        W64565  24.504  12.472   3.765
63702W        W64566  23.730  13.763   5.940
63703W        W64567  23.961  11.913   5.300
63704W        W64568  24.038  14.152   6.171
63705W        W64569  24.954  12.808   4.471
63706W        W64570  24.147  11.513   4.606
63707W        W64571  22.380  14.073   4.633
63708W        W64572  22.055  11.570   5.126
63709W        W64573  24.414  12.414   5.308
63710W        W64574  22.255  13.868   5.484
63711W        W64575  23.635  13.989   4.247
63712W        W64576  24.925  12.274   3.486
63713W        W64577  22.070  13.910   5.961
63714W        W64578  22.758  13.642   6.288
63715W        W64579  23.216  13.001   5.029
63716W        W64580  23.264  11.417   6.023
63717W        W64581  25.431  11.231   5.458
63718W        W64582  22.452  12.803   3.315
63719W        W64583  22.176  11.651   3.886
63720W        W64584  22.464  13.774   5.031
63721W        W64585  23.446  13.490   5.236
63722W        W64586  24.846  14.214   6.678
63723W        W64587  23.889  11.955   4.425
63724W        W64588  25.127  14.386   5.289
63725W        W64589  24.816  12.427   6.597
63726W        W64590  25.566  13.861   5.027
63727W        W64591  24.173  13.235   6.477
63728W        W64592  21.583  12.711   4.844
63729W        W64593  23.041  13.164   6.100
63730W        W64594  24.275  12.299   4.434
63731W        W64595  24.147  12.920   4.632
63732W        W64596  22.394  12.202   6.127
63733W        W64597  22.384  12.076   6.624
63734W        W64598  22.302  11.129   5.335
63735W        W64599  24.135  11.586   5.661
63736W        W64600  23.809  11.666   6.869
63737W        W64601  24.090  11.609   4.092
63738W        W64602  25.298  14.206   6.960
63739W        W64603  24.129  11.254   6.777
63740W        W64604  25.142  13.736   7.136
63741W        W64605  24.752  11.704   6.454
63742W        W64606  24.606  11.634   4.844
63743W        W64607  24.914  12.743   7.127
63744W        W64608  22.451  14.272   5.199
63745W        W64609  23.396  11.850   4.306
63746W        W64610  22.682  11.272   6.763
63747W        W64611  24.998  11.898   4.543
63748W        W64612  25.297  12.373   4.377
63749W        W64613  22.942  14.276   6.888
63750W        W64614  22.839  10.904   4.136
63751W        W64615  25.377  11.576   5.054
63752W        W64616  25.379  13.807   3.691
63753W        W64617  22.230  13.057   5.513
63754W        W64618  24.226  11.399   3.213
63755W        W64619  25.435  13.939   5.525
63756W        W64620  25.333  11.266   5.994
63757W        W64621  24.031  12.489   6.699
63758W        W64622  23.780  13.552   4.518
63759W        W64623  24.436  12.882   7.216
63760W        W64624  24.072  11.114   5.474
63761W        W64625  22.523  12.031   5.594
63762W        W64626  22.137  13.076   6.253
63763W        W64627  23.879  14.332   5.161
63764W        W64628  25.213  12.172   5.817
63765W        W64629  24.027  14.484   6.569
63766W        W64630  25.137  13.092   3.715
63767W        W64631  23.736  12.773   4.954
63768W        W64632  25.478  11.275   6.511
63769W        W64633  23.692  13.341   6.252
63770W        W64634  24.245  12.093   5.702
63771W        W64635  24.782  12.334   4.396
63772W        W64636  24.785  12.084   3.961
63773W        W64637  24.838  13.993   4.503
63774W        W64638  24.845  13.315   5.329
63775W        W64639  24.493  12.730   4.257
63776W        W64640  24.074  12.929   5.346
63777W        W64641  25.044  12.812   5.224
63778W        W64642  22.531  11.679   5.953
63779W        W64643  25.014  12.892   6.611
63780W        W64644  25.397  14.376   5.778
63781W        W64645  23.257  13.960   5.175
63782W        W64646  24.490  14.407   6.327
63783W        W64647  24.434  11.765   6.060
63784W        W64648  23.587  14.605   6.315
63785W        W64649  25.372  11.514   4.543
63786W        W64650  25.075  12.676   5.744
63787W        W64651  22.026  11.850   6.097
63788W        W64652  24.973  11.901   5.068
63789W        W64653  25.121  12.032   6.655
63790W        W64654  24.168  13.653   5.162
63791W        W64655  23.445  14.324   4.882
63792W        W64656  22.564  11.332   4.026
63793W        W64657  23.644  11.118   5.770
63794W        W64658  22.429  14.519   3.846
63795W        W64659  23.654  13.049   4.524
63796W        W64660  23.599  13.546   6.735
63797W        W64661  23.746  11.682   4.888
63798W        W64662  24.929  11.260   5.110
63799W        W64663  24.622  14.428   5.429
63800W        W64664  23.912  14.299   5.698
63801W        W64665  23.437  13.335   5.794
63802W        W64666  25.286  13.943   6.049
63803W        W64667  22.937  11.383   4.748
63804W        W64668  23.274  13.836   5.673
63805W        W64669  22.945  11.662   3.499
63806W        W64670  23.797  12.375   6.119
63807W        W64671  24.434  11.152   5.848
63808W        W64672  21.825  13.005   5.822
63809W        W64673  23.806  12.719   3.601
63810W        W64674  22.887  11.157   3.642
63811W        W64675  23.697  12.197   4.898
63812W        W64676  24.464  11.307   6.329
63813W        W64677  23.150  13.311   6.575
63814W        W64678  24.042  12.969   6.897
63815W        W64679  24.540  13.215   6.836
63816W        W64680  23.813  11.309   7.246
63817W        W64681  23.084  11.784   5.708
63818W        W64682  22.570  11.588   5.300
63819W        W64683  22.083  14.428   4.848
63820W        W64684  23.845  13.998   6.851
63821W        W64685  23.358  13.544   4.209
63822W        W64686  24.589  12.863   5.481
63823W        W64687  24.627  12.430   5.774
63824W        W64688  23.876  13.037   5.842
63825W        W64689  24.359  13.481   3.805
63826W        W64690  24.188  11.485   5.129
63827W        W64691  25.580  11.889   4.236
63828W        W64692  22.103  14.323   6.687
63829W        W64693  22.374  13.472   5.963
63830W        W64694  21.634  14.430   4.255
63831W        W64695  23.941  11.866   6.064
63832W        W64696  23.125  14.013   4.133
63833W        W64697  25.042  14.278   4.113
63834W        W64698  24.067  12.578   4.020
63835W        W64699  23.253  11.805   4.831
63836W        W64700  24.035  11.732   3.574
63837W        W64701  24.164  13.571   6.885
63838W        W64702  24.846  11.410   4.434
63839W        W64703  22.023  11.103   3.966
63840W        W64704  23.260  13.647   6.171
63841W        W64705  23.060  13.229   5.464
63842W        W64706  23.002  13.694   3.646
63843W        W64707  21.865  14.047   4.555
63844W        W64708  22.686  12.675   6.766
63845W        W64709  23.138  11.191   6.966
63846W        W64710  23.996  11.335   6.103
63847W        W64711  23.331  11.137   4.978
63848W        W64712  24.396  11.238   4.260
63849W        W64713  22.394  11.163   5.880
63850W        W64714  22.167  12.062   5.235
63851W        W64715  24.957  11.103   5.620
63852W        W64716  22.107  11.446   4.369
63853W        W64717  24.843  11.479   5.952
63854W        W64718  25.306  12.602   3.587
63855W        W64719  22.832  11.341   5.680
63856W        W64720  23.815  12.056   6.516
63857W        W64721  21.700  11.493   4.022
63858W        W64722  22.654  13.120   6.448
63859W        W64723  24.121  12.589   5.737
63860W        W64724  23.738  14.353   3.880
63861W        W64725  21.896  12.775   3.450
63862W        W64726  22.736  13.567   6.783
63863W        W64727  22.316  12.616   6.410
63864W        W64728  23.474  12.894   6.132
63865W        W64729  24.978  11.215   6.376
63866W        W64730  25.535  12.829   6.517
63867W        W64731  25.361  12.894   4.172
63868W        W64732  24.169  13.111   4.120
63869W        W64733  24.795  14.463   3.687
63870W        W64734  24.066  12.530   7.242
63871W        W64735  22.407  13.541   7.173
63872W        W64736  25.565  11.475   6.997
63873W        W64737  24.939  12.321   5.362
63874W        W64738  23.477  14.466   7.230
63875W        W64739  23.377  11.071   3.783
63876W        W64740  24.924  13.575   3.828
63877W        W64741  22.831  11.794   6.717
63878W        W64742  23.153  13.841   6.662
63879W        W64743  25.223  11.720   6.226
63880W        W64744  24.580  14.535   4.155
63881W        W64745  24.823  13.161   5.835
63882W        W64746  23.175  11.462   6.532
63883W        W64747  23.623  12.653   7.025
63884W        W64748  22.784  13.676   4.574
63885W        W64749  24.591  13.165   4.544
63886W        W64750  22.427  11.587   6.439
63887W        W64751  23.707  13.853   4.927
63888W        W64752  25.447  12.462   5.144
63889W        W64753  23.605  11.208   6.766
63890W        W64754  24.621  13.647   5.896
63891W        W64755  24.948  14.086   5.680
63892W        W64756  23.847  13.549   3.993
63893W        W64757  22.012  13.753   6.927
63894W        W64758  22.948  11.793   6.222
63895W        W64759  22.805  11.111   5.182
63896W        W64760  24.758  11.935   5.691
63897W        W64761  23.299  12.827   3.674
63898W        W64762  25.288  13.116   5.604
63899W        W64763  22.474  14.005   6.889
63900W        W64764  24.927  14.514   4.561
63901W        W64765  23.109  11.527   5.251
63902W        W64766  22.677  12.950   5.264
63903W        W64767  23.126  14.629   6.070
63904W        W64768  25.028  14.630   7.010
63905W        W64769  24.366  12.959   5.988
63906W        W64770  21.995  12.278   3.345
63907W        W64771  25.223  14.169   4.818
63908W        W64772  25.106  11.673   4.067
63909W        W64773  23.056  10.978   6.499
63910W        W64774  25.059  13.861   5.197
63911W        W64775  25.045  12.428   4.840
63912W        W64776  23.453  11.913   5.304
63913W        W64777  23.539  12.501   6.542
63914W        W64778  24.511  13.628   6.429
63915W        W64779  23.293  12.010   6.563
63916W        W64780  22.997  14.432   5.195
63917W        W64781  22.486  14.501   7.053
63918W        W64782  22.648  14.225   4.228
63919W        W64783  25.183  13.658   4.719
63920W        W64784  22.847  12.278   6.460
63921W        W64785  25.277  12.163   3.879
63922W        W64786  23.326  13.408   4.732
63923W        W64787  24.438  12.782   6.576
63924W        W64788  24.316  12.455   6.187
63925W        W64789  22.751  12.679   6.123
63926W        W64790  24.925  14.447   6.055
63927W        W64791  24.666  11.252   6.794
63928W        W64792  22.150  11.272   6.761
63929W        W64793  22.853  12.196   5.940
63930W        W64794  23.222  12.181   3.476
63931W        W64795  21.916  13.895   6.452
63932W        W64796  23.601  12.621   5.715
63933W        W64797  23.498  11.714   3.555
63934W        W64798  22.661  12.546   5.606
63935W        W64799  22.103  14.538   6.209
63936W        W64800  24.953  12.613   3.973
63937W        W64801  25.111  11.532   6.766
63938W        W64802  24.696  13.606   4.902
63939W        W64803  22.183  12.484   6.887
63940W        W64804  25.271  11.183   4.161
63941W        W64805  24.631  13.584   4.252
63942W        W64806  23.811  12.525   4.481
63943W        W64807  24.583  11.626   3.905
63944W        W64808  24.820  12.139   6.170
63945W        W64809  22.148  12.570   5.383
63946W        W64810  22.951  13.559   5.069
63947W        W64811  24.607  12.193   4.853
63948W        W64812  23.619  11.636   5.734
63949W        W64813  25.540  13.487   6.111
63950W        W64814  25.500  11.699   5.754
63951W        W64815  21.936  14.319   5.332
63952W        W64816  22.124  13.595   4.673
63953W        W64817  22.243  11.242   7.272
63954W        W64818  23.389  13.949   7.114
63955W        W64819  25.536  12.971   5.173
63956W        W64820  24.699  13.114   3.989
63957W        W64821  24.044  14.672   6.055
63958W        W64822  24.927  13.253   7.186
63959W        W64823  23.176  10.993   4.505
63960W        W64824  24.478  11.907   5.267
63961W        W64825  21.962  13.473   5.647
63962W        W64826  23.477  11.402   4.551
63963W        W64827  23.180  12.929   6.969
63964W        W64828  24.175  11.958   4.843
63965W        W64829  24.154  13.442   6.011
63966W        W64830  22.410  14.044   6.358
63967W        W64831  22.891  13.858   7.187
63968W        W64832  23.107  11.360   4.138
63969W        W64833  24.501  11.836   4.380
63970W        W64834  24.326  14.054   6.650
63971W        W64835  23.239  12.267   5.637
63972W        W64836  22.624  14.486   6.040
63973W        W64837  25.287  14.312   3.678
63974W        W64838  22.250  13.055   6.775
63975W        W64839  24.376  13.330   5.558
63976W        W64840  22.545  13.297   4.887
63977W        W64841  22.992  14.128   6.234
63978W        W64842  23.653  11.391   5.301
63979W        W64843  21.539  13.394   3.846
63980W        W64844  23.749  11.996   3.920
63981W        W64845  22.207  12.925   5.000
63982W        W64846  23.638  11.585   6.378
63983W        W64847  25.209  11.304   3.662
63984W        W64848  25.366  13.001   6.985
63985W        W64849  23.969  14.448   7.075
63986W        W64850  25.509  13.378   6.611
63987W        W64851  24.818  14.166   7.182
63988W        W64852  22.656  14.629   5.529
63989W        W64853  25.521  13.278   4.756
63990W        W64854  24.150  12.475   4.885
63991W        W64855  23.858  11.175   4.880
63992W        W64856  22.852  14.065   4.886
63993W        W64857  23.421  11.964   6.072
63994W        W64858  23.231  11.090   5.488
63995W        W64859  22.096  14.228   4.119
63996W        W64860  23.854  13.274   4.985
63997W        W64861  22.604  14.487   6.552
63998W        W64862  21.741  13.464   4.335
63999W        W64863  22.147  11.579   5.635
64000W        W64864  23.872  13.422   5.517
64001W        W64865  21.876  11.008   4.491
64002W        W64866  24.785  12.706   6.168
64003W        W64867  24.498  11.992   3.526
64004W        W64868  25.105  13.588   5.688
64005W        W64869  23.717  13.904   5.431
64006W        W64870  23.066  14.374   4.520
64007W        W64871  24.260  11.267   3.728
64008W        W64872  22.262  14.335   5.714
64009W        W64873  24.127  12.054   6.939
64010W        W64874  22.378  11.682   6.960
64011W        W64875  21.665  12.236   4.625
64012W        W64876  23.562  12.481   3.993
64013W        W64877  24.486  12.419   6.971
64014W        W64878  23.116  12.787   5.737
64015W        W64879  24.472  11.137   4.824
64016W        W64880  23.441  14.348   5.456
64017W        W64881  24.809  13.988   6.227
64018W        W64882  24.604  13.803   5.402
64019W        W64883  24.417  13.178   5.048
64020W        W64884  23.606  11.480   4.003
64021W        W64885  25.541  11.090   4.985
64022W        W64886  22.995  12.739   3.251
64023W        W64887  25.410  12.059   4.806
64024W        W64888  23.909  13.227   3.591
64025W        W64889  24.998  13.390   6.699
64026W        W64890  24.640  14.012   3.948
64027W        W64891  23.315  11.686   6.967
64028W        W64892  23.250  12.442   6.127
64029W        W64893  25.193  13.837   6.590
64030W        W64894  24.164  11.678   6.500
64031W        W64895  21.912  12.220   6.490
64032W        W64896  23.954  12.818   6.309
64033W        W64897  22.110  13.414   5.162
64034W        W64898  22.263  12.699   5.895
64035W        W64899  24.681  13.170   6.334
64036W        W64900  24.492  14.496   6.914
64037W        W64901  24.425  12.108   6.530
64038W        W64902  24.715  14.176   4.980
64039W        W64903  23.579  13.982   6.391
64040W        W64904  22.994  14.283   5.713
64041W        W64905  25.030  13.514   6.198
64042W        W64906  23.777  13.619   7.229
64043W        W64907  22.561  13.443   5.421
64044W        W64908  25.017  13.168   4.854
64045W        W64909  24.472  14.184   5.865
64046W        W64910  22.596  13.973   5.885
64047W        W64911  23.605  12.143   6.968
64048W        W64912  23.905  14.254   4.633
64049W        W64913  23.184  13.452   7.067
64050W        W64914  23.278  13.903   4.628
64051W        W64915  22.719  12.294   3.334
64052W        W64916  21.999  14.640  10.729
64053W        W64917  22.468  13.531  10.251
64054W        W64918  25.071  13.018   7.995
64055W        W64919  25.354  14.276  10.086
64056W        W64920  22.863  14.329   7.415
64057W        W64921  23.381  12.458   8.338
64058W        W64922  22.790  12.221   8.967
64059W        W64923  23.881  12.993   8.028
64060W        W64924  23.491  14.279  10.422
64061W        W64925  21.999  11.731  10.291
64062W        W64926  22.506  10.897  10.167
64063W        W64927  24.476  11.569   8.989
64064W        W64928  24.126  12.046   7.441
64065W        W64929  24.656  11.771  10.531
64066W        W64930  22.057  11.320   9.960
64067W        W64931  22.166  14.145  10.805
64068W        W64932  23.306  13.633   7.543
64069W        W64933  21.928  12.056   9.362
64070W        W64934  23.131  12.239  10.450
64071W        W64935  25.134  12.223   8.885
64072W        W64936  25.051  12.952   9.767
64073W        W64937  23.612  12.460   8.883
64074W        W64938  24.201  13.809   9.288
64075W        W64939  22.515  13.114   9.471
64076W        W64940  21.667  12.532   9.257
64077W        W64941  23.152  12.681  10.200
64078W        W64942  25.190  12.439  10.413
64079W        W64943  22.768  13.969   8.968
64080W        W64944  24.043  13.613  10.066
64081W        W64945  23.270  12.169   9.201
64082W        W64946  23.412  13.037   9.014
64083W        W64947  24.280  13.915  10.816
64084W        W64948  23.649  13.030  10.829
64085W        W64949  23.622  12.885  10.296
64086W        W64950  21.558  11.918  10.488
64087W        W64951  24.702  13.684  10.613
64088W        W64952  22.272  11.159   8.480
64089W        W64953  22.974  13.726   9.545
64090W        W64954  25.418  13.320   8.960
64091W        W64955  24.585  11.584   9.511
64092W        W64956  25.114  11.771   7.207
64093W        W64957  25.516  12.327   9.607
64094W        W64958  23.763  14.172   9.493
64095W        W64959  25.359  13.556   8.082
64096W        W64960  22.188  14.540   8.032
64097W        W64961  22.691  14.436   8.382
64098W        W64962  22.545  11.219   9.745
64099W        W64963  25.097  12.400   9.905
64100W        W64964  24.548  12.617   8.570
64101W        W64965  24.535  12.419   7.486
64102W        W64966  23.840  13.637   9.600
64103W        W64967  23.679  11.794   8.713
64104W        W64968  24.178  14.037   9.805
64105W        W64969  25.046  12.697   8.396
64106W        W64970  24.155  11.337   8.131
64107W        W64971  22.495  14.123   7.993
64108W        W64972  21.921  11.558   8.575
64109W        W64973  24.589  12.206   8.886
64110W        W64974  22.257  13.925   9.061
64111W        W64975  23.318  14.150   7.608
64112W        W64976  24.938  12.241   7.164
64113W        W64977  22.043  13.945   9.551
64114W        W64978  22.913  13.691  10.056
64115W        W64979  23.274  12.979   8.492
64116W        W64980  22.985  11.390   9.487
64117W        W64981  25.454  11.113   9.178
64118W        W64982  22.716  13.131   7.030
64119W        W64983  22.084  11.716   7.385
64120W        W64984  22.456  13.944   8.513
64121W        W64985  23.192  13.498   8.515
64122W        W64986  24.890  14.166  10.317
64123W        W64987  23.768  11.967   7.837
64124W        W64988  25.139  14.620   8.886
64125W        W64989  24.677  12.222  10.193
64126W        W64990  25.546  13.788   8.797
64127W        W64991  24.121  13.110  10.149
64128W        W64992  21.718  12.771   8.308
64129W        W64993  22.912  13.256   9.769
64130W        W64994  24.218  12.239   7.896
64131W        W64995  24.172  12.621   8.236
64132W        W64996  22.324  12.113   9.787
64133W        W64997  22.406  12.107  10.320
64134W        W64998  22.202  11.128   8.979
64135W        W64999  23.968  11.565   9.142
64136W        W65000  23.785  11.546  10.494
64137W        W65001  24.054  11.577   7.643
64138W        W65002  25.354  14.131  10.600
64139W        W65003  24.120  11.130  10.406
64140W        W65004  25.206  13.644  10.742
64141W        W65005  24.715  11.673  10.017
64142W        W65006  24.474  11.657   8.456
64143W        W65007  24.894  12.714  10.731
64144W        W65008  22.458  14.353   8.834
64145W        W65009  23.281  11.782   7.738
64146W        W65010  22.733  11.289  10.452
64147W        W65011  24.906  11.790   8.196
64148W        W65012  25.233  12.274   8.091
64149W        W65013  22.980  14.310  10.685
64150W        W65014  22.707  10.977   7.916
64151W        W65015  25.308  11.577   8.869
64152W        W65016  25.434  13.831   7.578
64153W        W65017  22.147  12.990   9.125
64154W        W65018  24.245  11.609   7.160
64155W        W65019  25.413  13.798   9.295
64156W        W65020  25.329  11.025   9.701
64157W        W65021  23.948  12.523  10.452
64158W        W65022  23.518  13.339   8.149
64159W        W65023  24.498  12.896  10.970
64160W        W65024  24.071  11.055   8.964
64161W        W65025  22.408  11.945   9.211
64162W        W65026  22.343  13.126   9.956
64163W        W65027  24.347  14.357   8.703
64164W        W65028  25.138  11.925   9.705
64165W        W65029  24.029  14.335  10.241
64166W        W65030  25.225  12.960   7.488
64167W        W65031  23.753  12.775   8.495
64168W        W65032  25.398  11.041  10.219
64169W        W65033  23.701  13.231   9.896
64170W        W65034  23.786  12.049   9.161
64171W        W65035  24.730  12.181   7.926
64172W        W65036  25.133  12.060   7.621
64173W        W65037  25.119  13.804   8.464
64174W        W65038  24.603  13.470   9.177
64175W        W65039  24.652  12.670   8.053
64176W        W65040  23.925  12.947   8.965
64177W        W65041  24.863  12.650   8.963
64178W        W65042  22.178  11.653   9.593
64179W        W65043  24.823  12.716  10.200
64180W        W65044  25.452  14.274   9.524
64181W        W65045  23.282  13.933   8.873
64182W        W65046  24.518  14.397  10.044
64183W        W65047  24.178  11.793   9.761
64184W        W65048  23.741  14.527   9.859
64185W        W65049  25.234  11.413   8.339
64186W        W65050  25.028  12.369   9.387
64187W        W65051  21.817  11.926   9.837
64188W        W65052  24.871  11.816   8.732
64189W        W65053  25.096  11.932  10.239
64190W        W65054  24.171  13.453   8.858
64191W        W65055  23.420  14.304   8.509
64192W        W65056  22.278  11.260   7.793
64193W        W65057  23.691  11.174   9.369
64194W        W65058  22.364  14.459   7.555
64195W        W65059  23.378  12.850   7.965
64196W        W65060  23.714  13.377  10.409
64197W        W65061  23.649  11.427   8.345
64198W        W65062  24.833  11.332   8.664
64199W        W65063  24.674  14.502   9.093
64200W        W65064  24.144  14.319   9.180
64201W        W65065  23.343  13.320   9.475
64202W        W65066  25.241  13.868   9.782
64203W        W65067  22.722  11.318   8.305
64204W        W65068  23.428  13.818   9.349
64205W        W65069  22.858  11.597   7.194
64206W        W65070  23.684  12.185   9.656
64207W        W65071  24.248  11.203   9.416
64208W        W65072  22.009  12.964   9.622
64209W        W65073  23.696  12.806   7.539
64210W        W65074  22.772  11.101   7.324
64211W        W65075  23.843  12.251   8.450
64212W        W65076  24.398  11.281   9.908
64213W        W65077  23.257  13.243  10.165
64214W        W65078  24.102  12.984  10.641
64215W        W65079  24.556  13.063  10.455
64216W        W65080  23.762  11.244  10.915
64217W        W65081  22.914  11.742   9.118
64218W        W65082  22.394  11.598   8.780
64219W        W65083  22.092  14.283   8.457
64220W        W65084  23.864  13.875  10.490
64221W        W65085  22.335  13.644   7.817
64222W        W65086  24.440  12.979   8.948
64223W        W65087  24.446  12.530   9.255
64224W        W65088  23.742  13.005   9.442
64225W        W65089  24.467  13.445   7.301
64226W        W65090  24.062  11.451   8.649
64227W        W65091  25.379  11.772   7.986
64228W        W65092  22.201  14.282  10.304
64229W        W65093  22.477  13.597   9.729
64230W        W65094  21.712  14.337   8.079
64231W        W65095  23.694  11.663   9.593
64232W        W65096  22.880  13.895   7.722
64233W        W65097  25.262  14.076   8.017
64234W        W65098  24.205  12.738   7.710
64235W        W65099  23.462  11.909   8.246
64236W        W65100  23.661  11.789   7.358
64237W        W65101  24.215  13.478  10.527
64238W        W65102  24.711  11.326   8.138
64239W        W65103  21.896  10.938   7.586
64240W        W65104  23.387  13.637   9.865
64241W        W65105  23.102  13.476   9.050
64242W        W65106  22.821  13.434   7.470
64243W        W65107  22.029  13.890   8.159
64244W        W65108  22.701  12.550  10.415
64245W        W65109  23.220  11.253  10.690
64246W        W65110  23.880  11.371   9.997
64247W        W65111  23.136  11.067   8.513
64248W        W65112  24.481  11.308   7.684
64249W        W65113  22.102  11.155   9.482
64250W        W65114  21.975  12.016   8.843
64251W        W65115  24.953  11.385   9.175
64252W        W65116  22.266  11.595   8.198
64253W        W65117  24.768  11.101   9.564
64254W        W65118  25.380  12.469   7.347
64255W        W65119  22.510  11.428   9.261
64256W        W65120  23.755  11.863  10.083
64257W        W65121  21.778  11.438   7.691
64258W        W65122  22.770  13.038  10.220
64259W        W65123  23.925  12.532   9.306
64260W        W65124  23.741  14.545   7.665
64261W        W65125  21.927  13.327   7.205
64262W        W65126  22.930  13.438  10.505
64263W        W65127  22.365  12.581  10.022
64264W        W65128  23.323  12.900   9.774
64265W        W65129  24.903  11.053  10.057
64266W        W65130  25.380  12.807  10.118
64267W        W65131  25.469  12.660   7.844
64268W        W65132  24.399  13.115   8.027
64269W        W65133  24.767  14.607   7.445
64270W        W65134  24.081  12.570  10.945
64271W        W65135  22.506  13.521  10.772
64272W        W65136  25.527  11.544  10.763
64273W        W65137  24.865  11.906   9.232
64274W        W65138  23.407  14.458  10.931
64275W        W65139  23.197  11.044   7.747
64276W        W65140  25.080  13.430   7.655
64277W        W65141  22.836  11.817  10.359
64278W        W65142  23.339  13.773  10.372
64279W        W65143  25.207  11.478   9.971
64280W        W65144  24.897  14.439   7.908
64281W        W65145  24.698  13.006   9.394
64282W        W65146  22.931  11.486   9.985
64283W        W65147  23.490  12.548  10.696
64284W        W65148  22.739  13.666   8.165
64285W        W65149  24.705  13.074   8.447
64286W        W65150  22.446  11.635  10.074
64287W        W65151  23.598  13.807   8.475
64288W        W65152  25.471  12.429   8.543
64289W        W65153  23.620  11.048  10.452
64290W        W65154  24.882  13.807   9.432
64291W        W65155  25.095  14.175   9.137
64292W        W65156  23.801  14.095   7.406
64293W        W65157  22.064  13.681  10.549
64294W        W65158  22.680  11.772   9.630
64295W        W65159  22.699  11.169   8.811
64296W        W65160  24.309  11.995   9.285
64297W        W65161  23.246  13.107   7.484
64298W        W65162  25.202  12.851   9.284
64299W        W65163  22.596  13.979  10.509
64300W        W65164  25.089  14.590   8.368
64301W        W65165  23.213  11.561   8.657
64302W        W65166  22.676  13.108   8.954
64303W        W65167  23.369  14.560   9.516
64304W        W65168  25.059  14.561  10.600
64305W        W65169  24.223  12.845   9.607
64306W        W65170  25.369  14.230   8.603
64307W        W65171  24.950  11.578   7.715
64308W        W65172  23.042  10.989  10.119
64309W        W65173  25.048  13.678   8.959
64310W        W65174  24.868  12.234   8.442
64311W        W65175  23.260  12.097   8.701
64312W        W65176  23.556  12.351  10.161
64313W        W65177  24.565  13.496  10.169
64314W        W65178  23.249  11.926  10.068
64315W        W65179  23.009  14.386   8.816
64316W        W65180  22.514  14.503  10.651
64317W        W65181  22.461  13.976   7.439
64318W        W65182  25.169  13.286   8.500
64319W        W65183  22.802  12.220  10.012
64320W        W65184  25.619  12.167   7.752
64321W        W65185  23.053  13.323   7.931
64322W        W65186  24.309  12.640  10.086
64323W        W65187  24.192  12.322   9.693
64324W        W65188  22.820  12.727   9.796
64325W        W65189  24.976  14.337   9.731
64326W        W65190  24.602  11.276  10.397
64327W        W65191  22.197  11.228  10.438
64328W        W65192  22.800  12.251   9.486
64329W        W65193  23.201  12.067   7.296
64330W        W65194  22.069  13.812  10.049
64331W        W65195  23.420  12.625   9.350
64332W        W65196  23.314  11.392   7.397
64333W        W65197  22.053  12.492   8.588
64334W        W65198  22.288  14.527   9.860
64335W        W65199  24.991  12.553   7.681
64336W        W65200  25.096  11.459  10.478
64337W        W65201  24.666  13.540   8.654
64338W        W65202  22.185  12.565  10.517
64339W        W65203  25.384  11.294   7.783
64340W        W65204  24.841  13.469   8.133
64341W        W65205  23.767  12.485   7.960
64342W        W65206  24.721  11.442   7.258
64343W        W65207  24.648  12.079   9.684
64344W        W65208  22.148  12.447   9.095
64345W        W65209  22.729  13.558   8.689
64346W        W65210  24.373  12.162   8.376
64347W        W65211  23.428  11.643   9.147
64348W        W65212  25.411  13.371   9.869
64349W        W65213  25.373  11.505   9.480
64350W        W65214  21.938  14.377   8.924
64351W        W65215  22.293  13.477   8.341
64352W        W65216  22.264  11.235  10.944
64353W        W65217  23.501  13.957  10.855
64354W        W65218  25.325  12.850   8.792
64355W        W65219  24.716  13.000   7.619
64356W        W65220  24.211  14.551   9.651
64357W        W65221  24.902  13.233  10.793
64358W        W65222  23.505  10.961   8.142
64359W        W65223  24.156  11.944   8.788
64360W        W65224  22.132  13.464   9.352
64361W        W65225  23.191  11.417   8.121
64362W        W65226  23.190  12.993  10.608
64363W        W65227  24.004  11.807   8.267
64364W        W65228  24.411  13.555   9.682
64365W        W65229  22.543  14.062   9.978
64366W        W65230  23.001  13.827  10.824
64367W        W65231  22.859  11.438   7.711
64368W        W65232  24.436  11.759   7.947
64369W        W65233  24.369  13.953  10.303
64370W        W65234  23.123  12.620   8.907
64371W        W65235  22.849  14.433   9.726
64372W        W65236  25.236  14.358   7.479
64373W        W65237  22.243  13.101  10.458
64374W        W65238  24.164  13.268   9.334
64375W        W65239  22.760  13.169   8.368
64376W        W65240  23.273  14.123   9.763
64377W        W65241  23.614  11.253   8.835
64378W        W65242  21.847  13.443   7.997
64379W        W65243  23.665  12.298   7.455
64380W        W65244  22.262  12.984   8.617
64381W        W65245  23.398  11.413  10.162
64382W        W65246  25.195  11.278   7.296
64383W        W65247  25.338  12.927  10.609
64384W        W65248  23.920  14.323  10.751
64385W        W65249  25.488  13.366  10.380
64386W        W65250  24.897  14.108  10.831
64387W        W65251  22.692  14.557   9.247
64388W        W65252  25.485  12.936   8.293
64389W        W65253  24.130  12.480   8.821
64390W        W65254  23.893  10.985   8.476
64391W        W65255  22.976  13.997   8.472
64392W        W65256  23.192  11.852   9.578
64393W        W65257  23.163  11.196   9.053
64394W        W65258  22.025  14.118   7.705
64395W        W65259  23.692  13.287   8.635
64396W        W65260  23.010  14.175  10.200
64397W        W65261  22.135  13.032   8.115
64398W        W65262  21.983  11.574   9.115
64399W        W65263  23.717  13.443   9.130
64400W        W65264  21.883  11.228   8.156
64401W        W65265  24.666  12.591   9.715
64402W        W65266  24.632  11.908   7.468
64403W        W65267  25.146  13.351   9.384
64404W        W65268  23.795  13.946   8.992
64405W        W65269  23.094  14.300   8.059
64406W        W65270  24.312  11.100   7.235
64407W        W65271  22.216  14.391   9.346
64408W        W65272  24.205  12.090  10.732
64409W        W65273  22.403  11.670  10.616
64410W        W65274  21.944  12.034   8.320
64411W        W65275  23.314  12.292   7.830
64412W        W65276  24.451  12.533  10.563
64413W        W65277  23.001  12.945   9.342
64414W        W65278  24.412  11.082   8.533
64415W        W65279  23.507  14.386   9.044
64416W        W65280  24.708  13.921   9.907
64417W        W65281  24.603  13.969   9.013
64418W        W65282  24.182  13.059   8.508
64419W        W65283  23.616  11.406   7.829
64420W        W65284  25.538  11.149   8.672
64421W        W65285  23.243  12.589   7.375
64422W        W65286  25.303  11.931   8.485
64423W        W65287  24.046  13.158   7.406
64424W        W65288  25.018  13.187  10.250
64425W        W65289  24.933  13.942   7.631
64426W        W65290  23.311  11.741  10.551
64427W        W65291  23.222  12.377   9.762
64428W        W65292  25.088  13.699  10.240
64429W        W65293  24.239  11.641  10.249
64430W        W65294  21.950  12.261  10.177
64431W        W65295  23.802  12.674   9.845
64432W        W65296  22.276  13.438   8.855
64433W        W65297  22.407  12.607   9.506
64434W        W65298  24.573  13.067   9.907
64435W        W65299  24.481  14.371  10.601
64436W        W65300  24.168  12.146  10.192
64437W        W65301  24.860  14.230   8.662
64438W        W65302  23.703  14.010  10.012
64439W        W65303  23.075  14.201   9.297
64440W        W65304  24.908  13.452   9.809
64441W        W65305  23.877  13.511  10.907
64442W        W65306  22.617  13.557   9.222
64443W        W65307  24.927  13.159   8.935
64444W        W65308  24.545  14.186   9.485
64445W        W65309  22.583  14.051   9.455
64446W        W65310  23.701  12.074  10.572
64447W        W65311  23.612  14.154   8.037
64448W        W65312  23.370  13.458  10.792
64449W        W65313  23.246  13.791   8.070
64450W        W65314  22.711  12.192   7.013
64451W        W65315  21.822  14.659  14.416
64452W        W65316  22.321  13.594  13.841
64453W        W65317  25.073  12.990  11.663
64454W        W65318  25.399  14.246  13.624
64455W        W65319  22.976  14.252  11.195
64456W        W65320  23.288  12.443  12.155
64457W        W65321  22.587  12.347  12.637
64458W        W65322  23.921  12.924  11.669
64459W        W65323  23.410  14.333  13.808
64460W        W65324  21.953  11.633  13.987
64461W        W65325  22.574  10.844  13.823
64462W        W65326  24.479  11.417  12.652
64463W        W65327  24.157  12.171  11.287
64464W        W65328  24.705  11.660  14.337
64465W        W65329  22.060  11.286  13.599
64466W        W65330  22.040  14.224  14.552
64467W        W65331  23.514  13.612  11.286
64468W        W65332  21.870  11.960  13.023
64469W        W65333  23.100  12.255  14.127
64470W        W65334  25.311  11.928  12.695
64471W        W65335  25.193  13.108  13.511
64472W        W65336  23.592  12.476  12.571
64473W        W65337  24.123  13.812  12.858
64474W        W65338  22.473  13.107  13.144
64475W        W65339  21.746  12.516  12.907
64476W        W65340  23.082  12.691  13.837
64477W        W65341  25.217  12.459  14.124
64478W        W65342  22.849  13.993  12.642
64479W        W65343  23.956  13.630  13.668
64480W        W65344  23.346  12.091  13.037
64481W        W65345  23.499  12.981  12.672
64482W        W65346  24.361  14.113  14.312
64483W        W65347  23.654  12.915  14.572
64484W        W65348  23.505  12.962  13.962
64485W        W65349  21.672  11.871  14.355
64486W        W65350  24.688  13.809  14.030
64487W        W65351  22.316  11.102  12.149
64488W        W65352  23.129  13.749  13.017
64489W        W65353  25.448  13.432  12.563
64490W        W65354  24.854  11.800  12.932
64491W        W65355  25.062  11.753  10.911
64492W        W65356  25.525  12.430  13.390
64493W        W65357  23.691  14.387  13.104
64494W        W65358  25.373  13.821  11.652
64495W        W65359  22.307  14.423  11.642
64496W        W65360  22.688  14.395  12.015
64497W        W65361  22.535  11.148  13.376
64498W        W65362  25.068  12.276  13.652
64499W        W65363  24.463  12.570  12.272
64500W        W65364  24.552  12.375  11.044
64501W        W65365  23.880  13.504  13.186
64502W        W65366  23.673  11.665  12.362
64503W        W65367  24.222  14.115  13.297
64504W        W65368  24.921  12.782  12.273
64505W        W65369  24.191  11.301  11.765
64506W        W65370  22.692  14.073  11.609
64507W        W65371  21.980  11.511  12.215
64508W        W65372  24.522  12.120  12.633
64509W        W65373  22.330  13.925  12.742
64510W        W65374  23.440  14.129  11.365
64511W        W65375  24.868  12.186  10.703
64512W        W65376  22.121  13.977  13.228
64513W        W65377  22.931  13.761  13.516
64514W        W65378  23.296  12.960  12.192
64515W        W65379  22.945  11.444  13.022
64516W        W65380  25.502  11.125  12.839
64517W        W65381  22.688  13.001  10.725
64518W        W65382  22.255  11.735  11.105
64519W        W65383  22.472  13.953  12.207
64520W        W65384  23.234  13.468  12.148
64521W        W65385  24.927  14.244  13.889
64522W        W65386  23.873  11.821  11.507
64523W        W65387  25.081  14.467  12.418
64524W        W65388  24.647  12.126  13.964
64525W        W65389  25.664  13.864  12.334
64526W        W65390  24.157  13.164  13.460
64527W        W65391  21.725  12.831  12.208
64528W        W65392  22.941  13.319  13.250
64529W        W65393  24.158  12.479  11.859
64530W        W65394  24.207  12.978  12.093
64531W        W65395  22.353  12.064  13.395
64532W        W65396  22.373  12.084  13.914
64533W        W65397  22.136  11.021  12.620
64534W        W65398  23.939  11.497  12.797
64535W        W65399  23.791  11.593  14.133
64536W        W65400  24.159  11.481  11.251
64537W        W65401  25.377  14.118  14.164
64538W        W65402  24.162  11.260  14.060
64539W        W65403  25.104  13.620  14.280
64540W        W65404  24.689  11.600  13.823
64541W        W65405  24.476  11.575  12.143
64542W        W65406  24.754  12.641  14.289
64543W        W65407  22.521  14.363  12.505
64544W        W65408  23.397  11.957  11.398
64545W        W65409  22.721  11.271  14.075
64546W        W65410  24.845  11.858  11.882
64547W        W65411  25.039  12.351  11.753
64548W        W65412  22.983  14.545  14.166
64549W        W65413  22.826  10.987  11.496
64550W        W65414  25.284  11.456  12.518
64551W        W65415  25.347  13.953  11.132
64552W        W65416  22.096  13.016  12.780
64553W        W65417  24.238  11.544  10.744
64554W        W65418  25.429  13.914  12.808
64555W        W65419  25.242  11.101  13.292
64556W        W65420  23.841  12.637  14.182
64557W        W65421  24.005  13.503  11.437
64558W        W65422  24.251  12.895  14.404
64559W        W65423  24.104  11.018  12.732
64560W        W65424  22.386  11.906  12.857
64561W        W65425  22.171  13.169  13.567
64562W        W65426  24.106  14.426  12.326
64563W        W65427  25.162  12.140  13.161
64564W        W65428  23.976  14.464  13.802
64565W        W65429  25.202  12.938  11.108
64566W        W65430  23.759  12.681  12.118
64567W        W65431  25.402  11.009  13.797
64568W        W65432  23.658  13.226  13.554
64569W        W65433  23.782  12.007  12.770
64570W        W65434  24.566  12.249  11.594
64571W        W65435  24.968  12.133  11.270
64572W        W65436  24.953  14.052  11.865
64573W        W65437  24.568  13.594  12.702
64574W        W65438  24.643  12.723  11.817
64575W        W65439  23.998  12.852  12.572
64576W        W65440  24.898  12.796  12.800
64577W        W65441  22.242  11.589  13.226
64578W        W65442  24.945  12.760  13.809
64579W        W65443  25.484  14.366  13.075
64580W        W65444  23.325  13.818  12.528
64581W        W65445  24.485  14.441  13.627
64582W        W65446  24.259  11.730  13.552
64583W        W65447  23.609  14.688  13.509
64584W        W65448  25.215  11.469  12.001
64585W        W65449  25.040  12.665  13.298
64586W        W65450  21.900  11.818  13.522
64587W        W65451  24.861  11.777  12.420
64588W        W65452  25.105  11.921  14.045
64589W        W65453  24.176  13.462  12.384
64590W        W65454  23.477  14.159  12.142
64591W        W65455  22.400  11.281  11.429
64592W        W65456  23.602  11.276  13.120
64593W        W65457  22.467  14.433  11.152
64594W        W65458  23.419  12.815  11.694
64595W        W65459  23.610  13.480  14.011
64596W        W65460  23.686  11.281  11.986
64597W        W65461  24.858  11.268  12.324
64598W        W65462  24.548  14.572  12.593
64599W        W65463  24.131  14.350  12.845
64600W        W65464  23.423  13.298  13.081
64601W        W65465  25.152  13.975  13.253
64602W        W65466  22.794  11.197  11.967
64603W        W65467  23.616  13.895  13.006
64604W        W65468  22.888  11.640  10.843
64605W        W65469  23.708  12.240  13.364
64606W        W65470  24.483  11.079  13.079
64607W        W65471  22.010  12.801  13.260
64608W        W65472  23.700  12.726  11.250
64609W        W65473  22.780  11.149  10.973
64610W        W65474  23.729  12.148  12.128
64611W        W65475  24.387  11.190  13.602
64612W        W65476  23.179  13.334  13.753
64613W        W65477  24.010  13.162  13.973
64614W        W65478  24.513  12.999  13.971
64615W        W65479  23.812  11.272  14.528
64616W        W65480  22.911  11.925  12.813
64617W        W65481  22.451  11.547  12.417
64618W        W65482  22.165  14.380  12.119
64619W        W65483  23.767  13.993  14.018
64620W        W65484  23.168  13.301  11.542
64621W        W65485  24.409  12.610  12.772
64622W        W65486  24.680  12.341  13.104
64623W        W65487  23.836  12.981  13.083
64624W        W65488  24.410  13.411  10.990
64625W        W65489  24.072  11.319  12.316
64626W        W65490  25.298  11.830  11.623
64627W        W65491  22.063  14.364  14.049
64628W        W65492  22.475  13.590  13.362
64629W        W65493  21.760  14.305  11.672
64630W        W65494  23.836  11.752  13.228
64631W        W65495  23.021  13.766  11.341
64632W        W65496  25.321  14.316  11.552
64633W        W65497  24.309  12.673  11.403
64634W        W65498  23.496  11.743  11.868
64635W        W65499  23.833  11.768  10.977
64636W        W65500  24.144  13.642  14.164
64637W        W65501  24.756  11.335  11.810
64638W        W65502  21.977  10.923  11.302
64639W        W65503  23.441  13.673  13.443
64640W        W65504  23.129  13.348  12.662
64641W        W65505  22.931  13.353  11.035
64642W        W65506  22.081  13.940  11.847
64643W        W65507  22.633  12.567  14.059
64644W        W65508  23.208  11.275  14.189
64645W        W65509  23.894  11.370  13.616
64646W        W65510  23.284  10.973  12.161
64647W        W65511  24.573  11.207  11.362
64648W        W65512  22.076  11.112  13.120
64649W        W65513  21.975  12.000  12.522
64650W        W65514  24.952  11.259  12.873
64651W        W65515  22.385  11.541  11.882
64652W        W65516  24.721  11.467  13.308
64653W        W65517  25.257  12.425  10.940
64654W        W65518  22.477  11.320  12.869
64655W        W65519  23.743  11.873  13.719
64656W        W65520  21.891  11.419  11.289
64657W        W65521  22.674  13.228  13.673
64658W        W65522  23.942  12.474  12.951
64659W        W65523  23.827  14.464  11.245
64660W        W65524  21.453  12.230  10.895
64661W        W65525  22.826  13.624  14.007
64662W        W65526  22.307  12.539  13.628
64663W        W65527  23.255  12.938  13.422
64664W        W65528  24.899  11.120  13.683
64665W        W65529  25.469  12.775  13.789
64666W        W65530  25.369  12.566  11.433
64667W        W65531  24.382  13.147  11.616
64668W        W65532  24.711  14.538  11.057
64669W        W65533  24.007  12.551  14.716
64670W        W65534  22.446  13.520  14.334
64671W        W65535  25.529  11.522  14.392
64672W        W65536  24.982  12.306  12.705
64673W        W65537  23.426  14.268  14.315
64674W        W65538  23.274  11.075  11.238
64675W        W65539  24.837  13.679  11.117
64676W        W65540  22.842  11.799  13.958
64677W        W65541  23.278  13.850  13.895
64678W        W65542  25.150  11.573  13.576
64679W        W65543  24.609  14.480  11.633
64680W        W65544  24.696  13.210  13.011
64681W        W65545  22.925  11.423  13.590
64682W        W65546  23.555  12.357  14.533
64683W        W65547  22.833  13.599  11.817
64684W        W65548  24.689  13.191  12.055
64685W        W65549  22.440  11.607  13.703
64686W        W65550  23.706  13.695  12.176
64687W        W65551  25.374  12.398  12.397
64688W        W65552  23.669  11.112  14.040
64689W        W65553  24.648  14.007  13.010
64690W        W65554  25.004  14.370  12.905
64691W        W65555  23.904  13.957  11.174
64692W        W65556  22.028  13.819  14.232
64693W        W65557  22.833  11.859  13.341
64694W        W65558  22.746  11.101  12.468
64695W        W65559  24.341  11.760  13.017
64696W        W65560  23.246  12.956  11.135
64697W        W65561  25.243  13.149  12.985
64698W        W65562  22.480  14.032  14.083
64699W        W65563  25.054  14.564  11.919
64700W        W65564  23.183  11.435  12.363
64701W        W65565  22.662  13.106  12.651
64702W        W65566  23.233  14.676  13.167
64703W        W65567  25.112  14.583  14.225
64704W        W65568  24.281  12.718  13.254
64705W        W65569  22.019  12.066  10.691
64706W        W65570  25.418  14.225  12.060
64707W        W65571  24.875  11.629  11.387
64708W        W65572  23.086  10.972  13.769
64709W        W65573  24.941  13.980  12.569
64710W        W65574  24.869  12.260  12.218
64711W        W65575  23.332  12.031  12.492
64712W        W65576  23.528  12.382  13.853
64713W        W65577  24.440  13.478  13.740
64714W        W65578  23.237  11.978  13.693
64715W        W65579  23.045  14.392  12.390
64716W        W65580  22.472  14.480  14.358
64717W        W65581  22.568  13.937  11.086
64718W        W65582  25.184  13.725  12.198
64719W        W65583  22.784  12.263  13.670
64720W        W65584  25.470  11.992  11.140
64721W        W65585  23.622  13.357  11.775
64722W        W65586  24.155  12.711  13.768
64723W        W65587  24.223  12.185  13.274
64724W        W65588  22.761  12.763  13.429
64725W        W65589  24.948  14.403  13.404
64726W        W65590  24.657  11.191  14.144
64727W        W65591  22.222  11.173  14.068
64728W        W65592  22.756  12.327  13.137
64729W        W65593  23.229  12.079  10.922
64730W        W65594  21.982  13.971  13.738
64731W        W65595  23.467  12.625  13.053
64732W        W65596  23.368  11.567  11.064
64733W        W65597  22.880  12.722  12.394
64734W        W65598  22.092  14.446  13.523
64735W        W65599  24.847  12.650  11.341
64736W        W65600  25.130  11.405  14.073
64737W        W65601  24.670  13.696  12.204
64738W        W65602  22.117  12.545  14.143
64739W        W65603  25.195  11.249  11.534
64740W        W65604  24.972  13.505  11.744
64741W        W65605  23.721  12.341  11.607
64742W        W65606  24.705  11.380  10.890
64743W        W65607  24.713  11.964  13.445
64744W        W65608  22.079  12.548  12.518
64745W        W65609  22.770  13.568  12.372
64746W        W65610  24.398  12.081  12.086
64747W        W65611  23.403  11.618  12.800
64748W        W65612  25.403  13.548  13.367
64749W        W65613  25.345  11.572  13.071
64750W        W65614  22.016  14.310  12.599
64751W        W65615  22.377  13.477  12.020
64752W        W65616  22.403  11.248  14.538
64753W        W65617  23.387  13.757  14.385
64754W        W65618  25.337  12.907  12.532
64755W        W65619  24.779  13.186  11.296
64756W        W65620  24.102  14.658  13.324
64757W        W65621  24.714  13.191  14.401
64758W        W65622  23.527  10.851  11.707
64759W        W65623  24.160  11.813  12.471
64760W        W65624  22.134  13.501  13.010
64761W        W65625  23.238  11.283  11.722
64762W        W65626  23.231  12.726  14.335
64763W        W65627  24.013  11.732  11.984
64764W        W65628  24.397  13.597  13.238
64765W        W65629  22.472  14.061  13.581
64766W        W65630  22.958  14.043  14.292
64767W        W65631  22.927  11.476  11.346
64768W        W65632  24.406  11.756  11.620
64769W        W65633  24.253  14.018  13.812
64770W        W65634  23.099  12.427  12.744
64771W        W65635  22.778  14.450  13.372
64772W        W65636  25.235  14.446  11.067
64773W        W65637  22.337  13.051  14.038
64774W        W65638  24.197  13.265  12.869
64775W        W65639  22.800  13.145  12.102
64776W        W65640  23.238  14.162  13.341
64777W        W65641  23.627  11.180  12.537
64778W        W65642  21.971  13.458  11.680
64779W        W65643  23.697  12.245  11.071
64780W        W65644  22.315  12.977  12.299
64781W        W65645  23.410  11.467  13.768
64782W        W65646  25.179  11.232  11.016
64783W        W65647  25.153  13.001  14.204
64784W        W65648  23.926  14.411  14.318
64785W        W65649  25.416  13.357  13.919
64786W        W65650  24.905  14.124  14.399
64787W        W65651  22.842  14.512  12.865
64788W        W65652  25.205  13.210  12.124
64789W        W65653  24.070  12.328  12.461
64790W        W65654  23.828  10.829  12.202
64791W        W65655  22.992  13.964  12.131
64792W        W65656  23.321  11.657  13.308
64793W        W65657  23.189  11.055  12.751
64794W        W65658  22.083  14.096  11.314
64795W        W65659  23.750  13.186  12.253
64796W        W65660  22.916  14.193  13.796
64797W        W65661  22.091  12.978  11.835
64798W        W65662  22.011  11.520  12.750
64799W        W65663  23.719  13.486  12.682
64800W        W65664  21.987  11.235  11.761
64801W        W65665  24.580  12.472  13.591
64802W        W65666  24.534  11.852  11.068
64803W        W65667  25.033  13.610  12.925
64804W        W65668  23.793  14.057  12.550
64805W        W65669  23.144  14.315  11.770
64806W        W65670  24.270  11.073  10.946
64807W        W65671  22.350  14.391  13.008
64808W        W65672  24.147  12.069  14.603
64809W        W65673  22.404  11.655  14.225
64810W        W65674  21.765  12.319  12.152
64811W        W65675  23.273  12.454  11.291
64812W        W65676  24.293  12.402  14.232
64813W        W65677  23.033  12.903  12.951
64814W        W65678  24.452  11.020  12.144
64815W        W65679  23.678  14.559  12.603
64816W        W65680  24.683  13.959  13.525
64817W        W65681  24.428  14.062  12.523
64818W        W65682  24.500  13.046  12.519
64819W        W65683  23.684  11.341  11.447
64820W        W65684  25.533  11.083  12.236
64821W        W65685  22.999  12.568  10.844
64822W        W65686  25.284  11.939  12.177
64823W        W65687  24.059  13.072  11.164
64824W        W65688  24.902  13.326  13.893
64825W        W65689  24.894  14.143  11.349
64826W        W65690  23.327  11.792  14.190
64827W        W65691  23.202  12.414  13.421
64828W        W65692  25.145  13.789  13.765
64829W        W65693  24.261  11.803  14.081
64830W        W65694  21.867  12.150  13.906
64831W        W65695  23.717  12.723  13.514
64832W        W65696  22.298  13.447  12.528
64833W        W65697  22.236  12.394  13.014
64834W        W65698  24.659  13.024  13.481
64835W        W65699  24.577  14.560  14.126
64836W        W65700  24.138  12.203  13.773
64837W        W65701  24.634  14.361  12.144
64838W        W65702  23.751  14.082  13.508
64839W        W65703  23.287  14.251  12.819
64840W        W65704  24.880  13.504  13.406
64841W        W65705  23.776  13.417  14.500
64842W        W65706  22.664  13.556  12.884
64843W        W65707  24.949  13.274  12.548
64844W        W65708  24.547  14.528  13.107
64845W        W65709  22.691  14.014  13.123
64846W        W65710  23.835  12.107  14.183
64847W        W65711  23.797  13.940  11.697
64848W        W65712  23.294  13.251  14.371
64849W        W65713  23.315  13.799  11.762
64850W        W65714  22.706  12.128  10.748
64851W        W65715  21.788  14.632  17.984
64852W        W65716  22.378  13.528  17.670
64853W        W65717  25.059  13.153  15.312
64854W        W65718  25.286  14.278  17.186
64855W        W65719  22.867  14.374  14.672
64856W        W65720  23.149  12.319  15.725
64857W        W65721  22.699  12.255  16.041
64858W        W65722  23.581  12.874  15.493
64859W        W65723  22.133  11.804  17.556
64860W        W65724  22.681  10.955  17.475
64861W        W65725  24.543  11.377  16.357
64862W        W65726  24.268  12.242  15.083
64863W        W65727  24.552  11.613  17.776
64864W        W65728  22.103  11.410  17.219
64865W        W65729  22.059  14.271  18.217
64866W        W65730  23.339  13.520  14.858
64867W        W65731  22.212  12.166  16.604
64868W        W65732  22.984  12.255  17.749
64869W        W65733  25.259  11.734  16.448
64870W        W65734  25.088  13.048  17.160
64871W        W65735  23.564  12.236  16.377
64872W        W65736  24.113  13.645  16.423
64873W        W65737  22.521  13.094  16.936
64874W        W65738  21.901  12.582  16.614
64875W        W65739  23.076  12.762  17.626
64876W        W65740  25.300  12.362  17.843
64877W        W65741  22.773  13.801  16.357
64878W        W65742  23.961  13.583  17.289
64879W        W65743  23.115  12.122  16.652
64880W        W65744  23.264  12.973  16.298
64881W        W65745  24.056  13.751  17.777
64882W        W65746  23.723  12.975  18.094
64883W        W65747  23.592  12.841  17.607
64884W        W65748  21.806  12.071  18.018
64885W        W65749  24.624  13.812  17.640
64886W        W65750  22.314  11.192  15.765
64887W        W65751  22.864  13.522  16.836
64888W        W65752  25.372  13.454  16.129
64889W        W65753  24.701  11.789  16.677
64890W        W65754  25.131  11.812  14.569
64891W        W65755  25.609  12.380  17.076
64892W        W65756  23.409  14.314  16.792
64893W        W65757  25.277  13.636  15.147
64894W        W65758  22.110  14.421  15.381
64895W        W65759  22.614  14.373  15.777
64896W        W65760  22.735  11.203  16.982
64897W        W65761  25.210  12.200  17.357
64898W        W65762  24.468  12.512  15.914
64899W        W65763  24.535  12.575  14.769
64900W        W65764  23.685  13.540  16.849
64901W        W65765  23.729  11.736  16.250
64902W        W65766  24.106  13.879  16.882
64903W        W65767  24.891  12.732  15.724
64904W        W65768  24.018  11.421  15.465
64905W        W65769  22.473  14.060  15.383
64906W        W65770  22.028  11.624  15.813
64907W        W65771  24.623  12.232  16.317
64908W        W65772  22.198  13.878  16.402
64909W        W65773  23.272  14.067  14.784
64910W        W65774  24.662  12.143  14.499
64911W        W65775  22.055  13.951  16.924
64912W        W65776  22.758  13.621  17.338
64913W        W65777  23.148  12.873  15.797
64914W        W65778  23.261  11.276  16.940
64915W        W65779  25.446  11.138  16.442
64916W        W65780  22.873  13.084  14.124
64917W        W65781  22.229  11.691  14.728
64918W        W65782  22.409  13.885  15.908
64919W        W65783  23.115  13.414  15.831
64920W        W65784  24.871  14.247  17.479
64921W        W65785  23.767  11.883  15.420
64922W        W65786  25.208  14.419  16.218
64923W        W65787  24.744  12.342  17.531
64924W        W65788  25.696  13.797  15.926
64925W        W65789  24.063  13.053  17.282
64926W        W65790  21.962  12.634  15.767
64927W        W65791  22.976  13.162  17.184
64928W        W65792  24.108  12.264  15.593
64929W        W65793  24.003  12.726  15.828
64930W        W65794  22.634  12.107  16.906
64931W        W65795  22.292  12.227  17.791
64932W        W65796  22.284  11.015  16.267
64933W        W65797  24.219  11.554  16.724
64934W        W65798  23.663  11.561  17.883
64935W        W65799  24.011  11.708  14.999
64936W        W65800  25.358  14.131  17.699
64937W        W65801  24.242  11.063  17.750
64938W        W65802  25.098  13.595  17.885
64939W        W65803  24.825  11.825  17.396
64940W        W65804  24.500  11.515  15.818
64941W        W65805  24.856  12.582  17.982
64942W        W65806  22.520  14.241  16.255
64943W        W65807  23.457  11.711  15.058
64944W        W65808  22.793  11.314  17.838
64945W        W65809  24.853  11.844  15.542
64946W        W65810  25.152  12.288  15.425
64947W        W65811  22.968  14.368  17.940
64948W        W65812  22.816  10.969  15.181
64949W        W65813  25.100  11.354  16.141
64950W        W65814  25.360  13.870  14.663
64951W        W65815  22.273  12.964  16.497
64952W        W65816  24.223  11.568  14.535
64953W        W65817  25.445  13.942  16.356
64954W        W65818  25.364  11.037  17.157
64955W        W65819  23.886  12.385  17.643
64956W        W65820  23.579  13.420  15.542
64957W        W65821  24.502  12.929  18.119
64958W        W65822  24.078  11.101  16.512
64959W        W65823  22.678  11.903  16.429
64960W        W65824  22.224  13.122  17.374
64961W        W65825  24.074  14.198  16.285
64962W        W65826  25.137  11.868  16.971
64963W        W65827  24.977  12.855  14.713
64964W        W65828  23.533  12.568  15.950
64965W        W65829  25.409  11.101  17.672
64966W        W65830  23.588  13.213  17.221
64967W        W65831  23.856  11.952  16.700
64968W        W65832  24.621  12.311  15.465
64969W        W65833  24.840  12.195  15.006
64970W        W65834  24.988  14.032  15.433
64971W        W65835  24.560  13.474  16.200
64972W        W65836  24.443  12.825  15.494
64973W        W65837  23.787  12.788  16.323
64974W        W65838  25.010  12.605  16.249
64975W        W65839  22.335  11.688  16.783
64976W        W65840  25.084  12.728  17.545
64977W        W65841  25.408  14.328  16.684
64978W        W65842  23.253  14.002  16.254
64979W        W65843  24.512  14.456  17.160
64980W        W65844  24.395  11.806  17.127
64981W        W65845  23.550  14.778  17.158
64982W        W65846  25.075  11.382  15.629
64983W        W65847  25.146  12.554  16.991
64984W        W65848  22.164  12.104  17.129
64985W        W65849  24.812  11.780  16.167
64986W        W65850  25.175  11.876  17.758
64987W        W65851  24.043  13.365  15.993
64988W        W65852  23.380  14.331  15.809
64989W        W65853  22.469  11.323  15.051
64990W        W65854  23.599  10.966  16.700
64991W        W65855  22.398  14.414  14.893
64992W        W65856  23.151  12.656  15.311
64993W        W65857  23.798  13.299  17.688
64994W        W65858  23.611  11.501  15.792
64995W        W65859  24.733  11.075  15.960
64996W        W65860  24.703  14.504  16.334
64997W        W65861  23.923  14.341  16.760
64998W        W65862  23.295  13.190  16.776
64999W        W65863  25.268  13.855  16.869
65000W        W65864  22.833  11.279  15.599
65001W        W65865  23.249  13.829  16.735
65002W        W65866  22.881  11.624  14.448
65003W        W65867  23.516  12.253  16.979
65004W        W65868  24.469  11.113  16.864
65005W        W65869  21.992  12.978  16.946
65006W        W65870  23.560  12.633  15.001
65007W        W65871  22.895  11.140  14.603
65008W        W65872  23.596  12.062  15.877
65009W        W65873  24.479  11.333  17.354
65010W        W65874  23.265  13.262  17.600
65011W        W65875  24.096  12.871  17.763
65012W        W65876  24.595  12.892  17.618
65013W        W65877  23.727  11.221  18.267
65014W        W65878  23.266  11.630  16.499
65015W        W65879  22.567  11.580  16.018
65016W        W65880  22.116  14.308  15.880
65017W        W65881  23.555  13.742  17.579
65018W        W65882  22.851  13.426  15.048
65019W        W65883  24.284  12.624  16.381
65020W        W65884  24.716  12.613  16.668
65021W        W65885  23.794  12.994  16.806
65022W        W65886  24.630  13.696  14.529
65023W        W65887  24.061  11.356  16.071
65024W        W65888  25.360  11.758  15.403
65025W        W65889  22.070  14.286  17.640
65026W        W65890  22.308  13.544  17.093
65027W        W65891  21.621  14.284  15.267
65028W        W65892  23.895  11.651  17.116
65029W        W65893  22.819  13.946  15.001
65030W        W65894  25.357  14.188  15.118
65031W        W65895  24.007  12.662  15.259
65032W        W65896  23.253  11.813  15.573
65033W        W65897  23.703  11.804  14.593
65034W        W65898  24.330  13.347  17.599
65035W        W65899  24.635  11.386  15.320
65036W        W65900  22.028  11.117  14.867
65037W        W65901  23.254  13.605  17.189
65038W        W65902  23.183  13.485  16.353
65039W        W65903  22.916  13.607  14.556
65040W        W65904  21.986  13.922  15.535
65041W        W65905  22.596  12.638  17.787
65042W        W65906  23.268  11.263  18.023
65043W        W65907  23.993  11.178  17.297
65044W        W65908  23.242  11.009  15.806
65045W        W65909  24.227  11.235  15.002
65046W        W65910  22.266  11.157  16.792
65047W        W65911  22.231  11.998  16.115
65048W        W65912  24.960  11.183  16.602
65049W        W65913  22.458  11.620  15.500
65050W        W65914  24.872  11.420  17.043
65051W        W65915  25.126  12.338  14.599
65052W        W65916  22.651  11.377  16.496
65053W        W65917  23.618  11.915  17.464
65054W        W65918  21.754  11.571  14.898
65055W        W65919  22.689  13.118  17.600
65056W        W65920  23.908  12.470  16.708
65057W        W65921  23.667  14.407  14.769
65058W        W65922  21.690  12.561  14.561
65059W        W65923  22.895  13.516  17.829
65060W        W65924  22.211  12.604  17.437
65061W        W65925  23.318  12.790  17.157
65062W        W65926  24.916  11.050  17.479
65063W        W65927  25.586  12.711  17.481
65064W        W65928  25.319  12.569  15.007
65065W        W65929  24.023  13.138  15.519
65066W        W65930  24.772  14.603  14.612
65067W        W65931  23.935  12.487  18.149
65068W        W65932  22.556  13.648  18.193
65069W        W65933  25.502  11.424  18.077
65070W        W65934  25.044  12.205  16.607
65071W        W65935  23.436  14.553  18.067
65072W        W65936  23.267  11.032  14.951
65073W        W65937  24.996  13.413  14.781
65074W        W65938  22.667  11.826  17.728
65075W        W65939  23.078  13.956  17.592
65076W        W65940  25.254  11.510  17.376
65077W        W65941  24.904  14.452  15.091
65078W        W65942  24.637  13.176  16.646
65079W        W65943  22.984  11.435  17.368
65080W        W65944  23.436  12.526  17.993
65081W        W65945  22.696  13.614  15.545
65082W        W65946  24.751  13.259  15.710
65083W        W65947  22.547  11.707  17.248
65084W        W65948  23.570  13.638  16.033
65085W        W65949  25.351  12.204  16.208
65086W        W65950  23.712  11.068  17.746
65087W        W65951  24.567  13.708  16.674
65088W        W65952  24.950  14.078  16.536
65089W        W65953  23.843  13.948  14.527
65090W        W65954  22.065  13.823  17.963
65091W        W65955  22.904  11.673  16.867
65092W        W65956  22.756  11.091  16.076
65093W        W65957  24.327  12.169  16.732
65094W        W65958  23.208  13.004  14.845
65095W        W65959  25.114  12.969  16.659
65096W        W65960  22.598  13.983  17.787
65097W        W65961  25.142  14.530  15.561
65098W        W65962  23.124  11.468  16.018
65099W        W65963  22.805  13.152  16.472
65100W        W65964  23.055  14.581  17.043
65101W        W65965  25.093  14.557  17.819
65102W        W65966  24.276  12.809  16.875
65103W        W65967  22.131  12.075  14.371
65104W        W65968  25.327  14.126  15.814
65105W        W65969  24.975  11.684  15.052
65106W        W65970  23.199  11.022  17.585
65107W        W65971  25.014  13.825  16.098
65108W        W65972  24.944  12.232  15.893
65109W        W65973  23.148  11.977  16.134
65110W        W65974  23.397  12.376  17.470
65111W        W65975  24.464  13.654  17.187
65112W        W65976  23.041  11.940  17.327
65113W        W65977  22.992  14.429  16.129
65114W        W65978  22.472  14.477  17.888
65115W        W65979  22.508  13.989  14.590
65116W        W65980  25.163  13.601  15.657
65117W        W65981  22.604  12.236  17.395
65118W        W65982  25.351  12.046  14.974
65119W        W65983  23.173  13.174  15.356
65120W        W65984  24.275  12.557  17.367
65121W        W65985  24.001  12.157  17.164
65122W        W65986  22.689  12.732  17.268
65123W        W65987  24.933  14.488  16.848
65124W        W65988  24.624  11.205  18.104
65125W        W65989  22.288  11.342  17.702
65126W        W65990  22.667  12.447  16.524
65127W        W65991  23.214  11.974  14.667
65128W        W65992  21.991  13.812  17.428
65129W        W65993  23.414  12.649  16.669
65130W        W65994  23.340  11.441  14.643
65131W        W65995  22.735  12.789  16.116
65132W        W65996  22.075  14.488  17.144
65133W        W65997  24.859  12.681  15.200
65134W        W65998  25.024  11.402  17.847
65135W        W65999  24.652  13.770  15.750
65136W        W66000  21.972  12.591  17.926
65137W        W66001  25.133  11.203  15.142
65138W        W66002  24.776  13.575  15.266
65139W        W66003  23.620  12.375  15.467
65140W        W66004  24.663  11.355  14.763
65141W        W66005  24.744  12.198  17.033
65142W        W66006  22.256  12.527  16.211
65143W        W66007  22.616  13.412  16.062
65144W        W66008  24.481  12.019  15.864
65145W        W66009  23.710  11.454  16.686
65146W        W66010  25.438  13.429  17.095
65147W        W66011  25.387  11.444  16.865
65148W        W66012  21.824  14.257  16.282
65149W        W66013  22.220  13.458  15.724
65150W        W66014  22.402  11.351  18.207
65151W        W66015  23.373  13.790  18.489
65152W        W66016  25.422  12.946  16.254
65153W        W66017  24.624  13.102  15.011
65154W        W66018  24.077  14.801  16.928
65155W        W66019  24.971  13.081  17.934
65156W        W66020  23.548  10.854  15.350
65157W        W66021  24.274  11.831  16.301
65158W        W66022  21.940  13.425  16.712
65159W        W66023  23.320  11.322  15.393
65160W        W66024  23.221  13.027  18.053
65161W        W66025  24.037  11.800  15.835
65162W        W66026  24.175  13.362  16.871
65163W        W66027  22.431  14.041  17.291
65164W        W66028  23.036  13.900  18.115
65165W        W66029  22.976  11.465  15.018
65166W        W66030  24.343  11.829  15.398
65167W        W66031  24.220  14.064  17.372
65168W        W66032  23.122  12.480  16.260
65169W        W66033  22.570  14.439  16.965
65170W        W66034  25.278  14.381  14.665
65171W        W66035  22.237  13.028  17.878
65172W        W66036  24.167  13.120  16.434
65173W        W66037  22.702  13.105  15.652
65174W        W66038  22.951  14.055  17.098
65175W        W66039  23.577  11.225  16.235
65176W        W66040  21.916  13.430  15.317
65177W        W66041  23.759  12.161  14.979
65178W        W66042  22.290  12.992  15.968
65179W        W66043  23.512  11.408  17.395
65180W        W66044  25.125  11.275  14.581
65181W        W66045  25.417  12.846  17.964
65182W        W66046  23.945  14.475  18.070
65183W        W66047  25.359  13.206  17.579
65184W        W66048  24.925  14.071  17.967
65185W        W66049  22.647  14.656  16.496
65186W        W66050  25.240  13.096  15.796
65187W        W66051  24.025  12.260  16.117
65188W        W66052  23.768  10.985  15.817
65189W        W66053  22.925  13.950  15.867
65190W        W66054  23.404  11.763  16.993
65191W        W66055  23.127  11.130  16.454
65192W        W66056  22.044  14.047  15.037
65193W        W66057  23.607  13.098  15.941
65194W        W66058  22.767  14.397  17.458
65195W        W66059  22.186  13.008  15.467
65196W        W66060  22.141  11.501  16.334
65197W        W66061  23.680  13.302  16.406
65198W        W66062  22.027  11.389  15.329
65199W        W66063  24.709  12.693  17.165
65200W        W66064  24.505  11.820  14.893
65201W        W66065  25.041  13.522  16.515
65202W        W66066  23.697  13.931  16.522
65203W        W66067  22.976  14.209  15.419
65204W        W66068  24.282  11.064  14.511
65205W        W66069  22.189  14.352  16.629
65206W        W66070  24.189  12.007  18.097
65207W        W66071  22.264  11.806  18.055
65208W        W66072  21.824  12.133  15.713
65209W        W66073  23.268  12.169  15.169
65210W        W66074  24.372  12.462  17.881
65211W        W66075  22.933  12.793  16.800
65212W        W66076  24.284  11.045  15.709
65213W        W66077  23.578  14.393  16.312
65214W        W66078  24.796  14.018  17.030
65215W        W66079  24.541  13.993  16.233
65216W        W66080  24.425  13.003  16.008
65217W        W66081  23.713  11.272  15.043
65218W        W66082  25.410  11.021  15.853
65219W        W66083  23.115  12.484  14.782
65220W        W66084  25.251  11.794  15.907
65221W        W66085  23.660  13.148  15.066
65222W        W66086  24.847  13.353  17.511
65223W        W66087  24.921  13.953  14.907
65224W        W66088  23.184  11.732  17.783
65225W        W66089  23.024  12.384  17.094
65226W        W66090  25.119  13.784  17.389
65227W        W66091  24.073  11.600  17.583
65228W        W66092  21.851  12.228  17.525
65229W        W66093  23.798  12.632  17.183
65230W        W66094  22.097  13.384  16.216
65231W        W66095  22.335  12.574  16.919
65232W        W66096  24.549  13.158  17.155
65233W        W66097  24.525  14.402  17.829
65234W        W66098  24.318  12.053  17.577
65235W        W66099  24.825  14.275  15.886
65236W        W66100  23.637  13.979  17.112
65237W        W66101  22.926  14.234  16.611
65238W        W66102  24.914  13.498  17.005
65239W        W66103  24.128  13.291  18.085
65240W        W66104  22.431  13.469  16.585
65241W        W66105  24.920  13.111  16.194
65242W        W66106  24.444  14.239  16.691
65243W        W66107  22.544  13.940  16.793
65244W        W66108  23.660  12.059  17.963
65245W        W66109  23.447  14.365  15.264
65246W        W66110  23.440  13.506  18.030
65247W        W66111  23.170  13.716  15.355
65248W        W66112  22.662  12.099  14.350
65249W        W66113  21.923  14.569  21.708
65250W        W66114  22.414  13.479  21.187
65251W        W66115  25.104  12.936  18.946
65252W        W66116  25.394  14.232  21.086
65253W        W66117  23.136  14.283  18.450
65254W        W66118  23.308  12.397  19.351
65255W        W66119  22.716  12.245  19.860
65256W        W66120  23.879  12.818  18.931
65257W        W66121  23.427  14.235  21.255
65258W        W66122  21.958  11.711  21.255
65259W        W66123  22.564  10.885  21.114
65260W        W66124  24.517  11.321  19.996
65261W        W66125  24.362  12.005  18.614
65262W        W66126  24.664  11.734  21.524
65263W        W66127  22.057  11.314  20.859
65264W        W66128  22.084  14.090  21.755
65265W        W66129  23.483  13.230  18.496
65266W        W66130  21.954  12.101  20.306
65267W        W66131  23.130  12.248  21.360
65268W        W66132  25.295  11.863  20.059
65269W        W66133  25.162  12.957  20.772
65270W        W66134  23.558  12.464  19.809
65271W        W66135  24.229  13.707  20.213
65272W        W66136  22.448  13.054  20.545
65273W        W66137  21.810  12.600  20.262
65274W        W66138  23.104  12.684  21.065
65275W        W66139  25.274  12.444  21.486
65276W        W66140  22.645  13.790  19.978
65277W        W66141  24.019  13.590  20.974
65278W        W66142  23.173  12.298  20.132
65279W        W66143  23.556  12.953  19.968
65280W        W66144  24.254  13.879  21.715
65281W        W66145  23.673  13.068  21.721
65282W        W66146  23.634  12.873  21.167
65283W        W66147  21.605  12.150  21.711
65284W        W66148  24.700  13.745  21.473
65285W        W66149  22.360  11.193  19.412
65286W        W66150  22.903  13.855  20.534
65287W        W66151  25.361  13.411  19.902
65288W        W66152  24.607  11.803  20.272
65289W        W66153  25.114  11.739  18.262
65290W        W66154  25.652  12.364  20.699
65291W        W66155  23.716  14.169  20.440
65292W        W66156  25.372  13.818  18.805
65293W        W66157  22.330  14.463  18.608
65294W        W66158  22.698  14.455  19.280
65295W        W66159  22.583  11.225  20.686
65296W        W66160  25.235  12.457  20.955
65297W        W66161  24.364  12.496  19.533
65298W        W66162  24.507  12.468  18.391
65299W        W66163  23.799  13.655  20.491
65300W        W66164  23.712  11.696  19.753
65301W        W66165  24.190  13.979  20.680
65302W        W66166  24.781  12.638  19.271
65303W        W66167  24.098  11.255  19.149
65304W        W66168  22.538  14.110  18.927
65305W        W66169  22.017  11.558  19.461
65306W        W66170  24.411  12.192  19.948
65307W        W66171  22.146  13.872  20.008
65308W        W66172  23.486  13.825  19.001
65309W        W66173  24.716  12.067  17.956
65310W        W66174  22.018  13.903  20.527
65311W        W66175  22.855  13.553  20.936
65312W        W66176  23.069  13.126  19.822
65313W        W66177  23.041  11.402  20.455
65314W        W66178  25.514  11.049  20.104
65315W        W66179  22.707  13.087  18.117
65316W        W66180  22.444  11.834  18.528
65317W        W66181  22.310  13.735  19.535
65318W        W66182  23.433  13.475  19.863
65319W        W66183  24.919  14.245  21.344
65320W        W66184  23.935  11.849  18.861
65321W        W66185  25.223  14.320  19.960
65322W        W66186  24.829  12.311  21.237
65323W        W66187  25.653  13.785  19.705
65324W        W66188  24.138  13.075  21.037
65325W        W66189  21.626  12.942  19.317
65326W        W66190  22.976  13.189  20.586
65327W        W66191  24.110  12.223  19.159
65328W        W66192  23.820  12.579  19.390
65329W        W66193  22.333  12.102  20.685
65330W        W66194  22.356  12.129  21.199
65331W        W66195  22.294  10.998  19.894
65332W        W66196  23.978  11.418  20.185
65333W        W66197  23.778  11.553  21.421
65334W        W66198  24.213  11.467  18.585
65335W        W66199  25.401  14.176  21.592
65336W        W66200  24.109  11.126  21.380
65337W        W66201  25.148  13.551  21.706
65338W        W66202  24.754  11.587  21.046
65339W        W66203  24.492  11.471  19.493
65340W        W66204  24.868  12.674  21.727
65341W        W66205  22.483  14.261  19.838
65342W        W66206  23.424  11.867  18.828
65343W        W66207  22.720  11.286  21.394
65344W        W66208  24.871  11.734  19.247
65345W        W66209  25.151  12.132  19.084
65346W        W66210  22.958  14.394  21.443
65347W        W66211  22.852  11.081  18.857
65348W        W66212  25.277  11.415  19.817
65349W        W66213  25.428  13.760  18.254
65350W        W66214  22.162  12.936  20.108
65351W        W66215  24.153  11.468  18.072
65352W        W66216  25.454  13.876  20.164
65353W        W66217  25.327  11.031  20.611
65354W        W66218  23.980  12.358  21.275
65355W        W66219  23.511  13.293  19.162
65356W        W66220  24.410  12.839  21.897
65357W        W66221  24.145  10.947  20.030
65358W        W66222  22.408  11.929  20.127
65359W        W66223  22.191  13.031  21.066
65360W        W66224  24.589  14.018  19.996
65361W        W66225  25.183  12.188  20.508
65362W        W66226  23.992  14.346  21.134
65363W        W66227  25.095  12.788  18.394
65364W        W66228  23.403  12.890  19.480
65365W        W66229  25.442  11.008  21.126
65366W        W66230  23.718  13.232  20.784
65367W        W66231  23.643  12.052  20.120
65368W        W66232  24.617  12.174  19.060
65369W        W66233  24.860  11.895  18.705
65370W        W66234  25.021  14.035  19.110
65371W        W66235  24.961  13.104  19.969
65372W        W66236  24.383  12.634  18.947
65373W        W66237  24.043  12.784  19.847
65374W        W66238  24.963  12.641  19.773
65375W        W66239  22.248  11.631  20.504
65376W        W66240  24.977  12.800  21.232
65377W        W66241  25.484  14.314  20.433
65378W        W66242  23.123  13.877  19.822
65379W        W66243  24.516  14.357  20.992
65380W        W66244  24.302  11.696  20.724
65381W        W66245  23.621  14.517  20.814
65382W        W66246  25.252  11.384  19.260
65383W        W66247  24.988  12.682  20.310
65384W        W66248  21.868  11.872  20.773
65385W        W66249  24.831  11.736  19.792
65386W        W66250  25.148  11.942  21.041
65387W        W66251  24.275  13.410  19.706
65388W        W66252  23.395  14.104  19.454
65389W        W66253  22.433  11.351  18.706
65390W        W66254  23.649  11.016  20.305
65391W        W66255  22.620  14.174  18.284
65392W        W66256  23.352  12.827  18.959
65393W        W66257  23.699  13.368  21.292
65394W        W66258  23.626  11.428  19.321
65395W        W66259  24.873  11.144  19.660
65396W        W66260  24.723  14.509  20.041
65397W        W66261  24.151  14.226  20.191
65398W        W66262  23.444  13.268  20.348
65399W        W66263  25.274  13.881  20.705
65400W        W66264  22.832  11.387  19.280
65401W        W66265  23.355  13.853  20.275
65402W        W66266  22.840  11.681  18.200
65403W        W66267  23.697  12.168  20.621
65404W        W66268  24.515  11.026  20.422
65405W        W66269  21.953  12.935  20.623
65406W        W66270  23.601  12.703  18.505
65407W        W66271  22.876  11.199  18.357
65408W        W66272  23.641  12.004  19.310
65409W        W66273  24.426  11.211  20.899
65410W        W66274  23.250  13.210  21.042
65411W        W66275  24.049  12.822  21.485
65412W        W66276  24.523  12.975  21.410
65413W        W66277  23.783  11.198  21.802
65414W        W66278  22.928  11.809  20.073
65415W        W66279  22.510  11.623  19.689
65416W        W66280  22.271  14.200  19.358
65417W        W66281  23.820  13.898  21.397
65418W        W66282  22.633  13.370  18.652
65419W        W66283  24.532  12.673  20.054
65420W        W66284  24.551  12.316  20.410
65421W        W66285  23.898  12.961  20.374
65422W        W66286  24.621  13.444  18.014
65423W        W66287  24.048  11.309  19.671
65424W        W66288  25.560  11.766  19.059
65425W        W66289  22.100  14.321  21.253
65426W        W66290  22.137  13.433  20.756
65427W        W66291  21.898  14.228  18.774
65428W        W66292  23.739  11.658  20.584
65429W        W66293  23.133  13.453  18.841
65430W        W66294  25.139  14.369  18.711
65431W        W66295  24.041  12.392  18.652
65432W        W66296  23.188  11.766  19.282
65433W        W66297  23.813  11.728  18.365
65434W        W66298  24.230  13.428  21.424
65435W        W66299  24.745  11.209  19.145
65436W        W66300  21.995  11.061  18.590
65437W        W66301  23.330  13.605  20.718
65438W        W66302  23.010  13.495  20.177
65439W        W66303  23.027  13.433  18.328
65440W        W66304  22.119  13.805  19.057
65441W        W66305  22.687  12.548  21.337
65442W        W66306  23.197  11.226  21.586
65443W        W66307  23.925  11.305  20.932
65444W        W66308  23.230  11.084  19.404
65445W        W66309  24.390  11.016  18.798
65446W        W66310  22.183  11.130  20.384
65447W        W66311  21.982  11.947  19.797
65448W        W66312  25.006  11.129  20.174
65449W        W66313  22.417  11.647  19.132
65450W        W66314  24.840  11.411  20.573
65451W        W66315  25.009  12.248  18.333
65452W        W66316  22.589  11.431  20.179
65453W        W66317  23.869  11.896  21.039
65454W        W66318  21.983  11.578  18.435
65455W        W66319  22.713  13.036  21.015
65456W        W66320  24.075  12.463  20.270
65457W        W66321  23.658  14.249  18.477
65458W        W66322  21.942  12.867  18.394
65459W        W66323  22.902  13.346  21.398
65460W        W66324  22.377  12.581  20.915
65461W        W66325  23.400  12.855  20.687
65462W        W66326  24.916  11.031  20.960
65463W        W66327  25.520  12.813  21.190
65464W        W66328  25.392  12.517  18.837
65465W        W66329  24.188  12.942  19.333
65466W        W66330  24.846  14.481  18.265
65467W        W66331  24.031  12.500  21.892
65468W        W66332  22.531  13.529  21.690
65469W        W66333  25.558  11.501  21.701
65470W        W66334  24.914  12.212  20.056
65471W        W66335  23.379  14.497  21.730
65472W        W66336  23.326  11.039  18.582
65473W        W66337  25.018  13.370  18.382
65474W        W66338  22.804  11.866  21.255
65475W        W66339  23.316  13.733  21.207
65476W        W66340  25.242  11.450  20.918
65477W        W66341  24.700  14.713  18.696
65478W        W66342  24.763  13.160  20.441
65479W        W66343  22.936  11.479  20.963
65480W        W66344  23.580  12.547  21.565
65481W        W66345  22.715  13.646  19.095
65482W        W66346  24.652  13.116  19.147
65483W        W66347  22.424  11.641  20.996
65484W        W66348  23.696  13.686  19.482
65485W        W66349  25.375  12.315  19.808
65486W        W66350  23.607  11.078  21.316
65487W        W66351  24.638  13.705  20.526
65488W        W66352  24.989  14.047  20.317
65489W        W66353  23.536  14.031  18.019
65490W        W66354  22.042  13.619  21.534
65491W        W66355  22.742  11.791  20.595
65492W        W66356  22.769  11.171  19.751
65493W        W66357  24.104  11.949  20.321
65494W        W66358  23.046  12.957  18.544
65495W        W66359  25.351  13.072  20.300
65496W        W66360  22.447  13.963  21.372
65497W        W66361  25.125  14.545  19.227
65498W        W66362  23.178  11.495  19.723
65499W        W66363  22.593  13.231  20.062
65500W        W66364  23.277  14.560  20.425
65501W        W66365  25.256  14.657  21.468
65502W        W66366  24.364  12.800  20.556
65503W        W66367  22.165  12.275  18.313
65504W        W66368  25.348  14.117  19.495
65505W        W66369  25.230  11.539  18.742
65506W        W66370  23.110  11.009  21.101
65507W        W66371  25.058  13.829  19.833
65508W        W66372  24.907  12.200  19.532
65509W        W66373  23.297  12.012  19.727
65510W        W66374  23.525  12.376  21.056
65511W        W66375  24.514  13.508  21.007
65512W        W66376  23.243  11.948  20.947
65513W        W66377  23.011  14.370  19.683
65514W        W66378  22.469  14.420  21.628
65515W        W66379  22.858  13.845  18.611
65516W        W66380  25.250  13.628  19.374
65517W        W66381  22.793  12.248  20.913
65518W        W66382  25.369  12.034  18.626
65519W        W66383  22.996  13.157  19.269
65520W        W66384  24.371  12.610  21.061
65521W        W66385  24.192  12.222  20.760
65522W        W66386  22.805  12.696  20.629
65523W        W66387  25.008  14.334  20.751
65524W        W66388  24.620  11.213  21.386
65525W        W66389  22.202  11.245  21.337
65526W        W66390  22.735  12.254  20.382
65527W        W66391  23.185  12.077  18.195
65528W        W66392  22.012  13.834  21.066
65529W        W66393  23.580  12.558  20.313
65530W        W66394  23.319  11.550  18.436
65531W        W66395  22.655  12.714  20.102
65532W        W66396  22.221  14.383  20.733
65533W        W66397  24.880  12.489  18.770
65534W        W66398  25.104  11.445  21.432
65535W        W66399  24.796  13.449  19.556
65536W        W66400  22.159  12.597  21.390
65537W        W66401  25.119  11.048  18.817
65538W        W66402  24.980  13.477  18.941
65539W        W66403  23.620  12.362  18.939
65540W        W66404  24.733  11.378  18.656
65541W        W66405  24.712  12.032  20.787
65542W        W66406  22.163  12.437  19.915
65543W        W66407  22.747  13.465  19.608
65544W        W66408  24.457  11.981  19.489
65545W        W66409  23.459  11.520  20.163
65546W        W66410  25.492  13.381  20.709
65547W        W66411  25.402  11.488  20.406
65548W        W66412  21.967  14.301  19.751
65549W        W66413  22.387  13.287  19.269
65550W        W66414  22.279  11.290  21.859
65551W        W66415  23.399  13.970  21.706
65552W        W66416  25.441  12.863  19.812
65553W        W66417  24.656  12.946  18.627
65554W        W66418  24.118  14.501  20.658
65555W        W66419  24.791  13.187  21.796
65556W        W66420  23.589  10.964  19.046
65557W        W66421  24.231  11.733  19.869
65558W        W66422  22.022  13.420  20.248
65559W        W66423  23.262  11.369  18.965
65560W        W66424  23.228  12.952  21.496
65561W        W66425  24.052  11.722  19.359
65562W        W66426  24.242  13.330  20.587
65563W        W66427  22.466  13.907  20.844
65564W        W66428  22.923  13.858  21.528
65565W        W66429  22.881  11.604  18.728
65566W        W66430  24.429  11.667  19.007
65567W        W66431  24.307  13.941  21.202
65568W        W66432  23.055  12.624  19.756
65569W        W66433  22.799  14.358  20.654
65570W        W66434  25.325  14.273  18.236
65571W        W66435  21.933  13.062  21.526
65572W        W66436  24.342  13.131  20.128
65573W        W66437  22.617  12.955  19.628
65574W        W66438  23.275  14.141  20.716
65575W        W66439  23.582  11.176  19.790
65576W        W66440  21.726  13.350  18.457
65577W        W66441  23.617  12.188  18.454
65578W        W66442  22.117  12.887  19.487
65579W        W66443  23.440  11.437  20.962
65580W        W66444  25.103  11.226  18.332
65581W        W66445  25.245  13.039  21.596
65582W        W66446  23.881  14.375  21.635
65583W        W66447  25.410  13.328  21.202
65584W        W66448  24.961  14.038  21.820
65585W        W66449  22.565  14.568  20.243
65586W        W66450  25.577  13.255  19.480
65587W        W66451  23.970  12.158  19.684
65588W        W66452  23.868  10.865  19.489
65589W        W66453  22.753  13.979  19.479
65590W        W66454  23.263  11.895  20.450
65591W        W66455  23.179  11.080  20.079
65592W        W66456  22.260  13.901  18.545
65593W        W66457  23.810  13.186  19.585
65594W        W66458  22.912  14.057  21.060
65595W        W66459  21.925  13.132  18.900
65596W        W66460  22.101  11.478  19.993
65597W        W66461  23.884  13.363  20.065
65598W        W66462  21.985  11.436  18.939
65599W        W66463  24.788  12.568  20.773
65600W        W66464  24.591  11.692  18.283
65601W        W66465  25.114  13.533  20.336
65602W        W66466  23.777  13.882  19.986
65603W        W66467  23.040  14.081  19.056
65604W        W66468  24.199  11.006  18.307
65605W        W66469  22.075  14.349  20.238
65606W        W66470  24.127  12.023  21.661
65607W        W66471  22.402  11.684  21.519
65608W        W66472  21.799  12.448  19.437
65609W        W66473  23.184  12.426  18.612
65610W        W66474  24.430  12.449  21.547
65611W        W66475  23.137  12.822  20.244
65612W        W66476  24.397  10.955  19.550
65613W        W66477  23.426  14.297  19.998
65614W        W66478  24.789  13.927  20.957
65615W        W66479  24.681  13.516  20.051
65616W        W66480  24.582  12.978  19.649
65617W        W66481  23.730  11.379  18.763
65618W        W66482  25.545  11.031  19.584
65619W        W66483  22.956  12.594  18.157
65620W        W66484  25.291  11.859  19.530
65621W        W66485  24.119  12.866  18.457
65622W        W66486  24.902  13.309  21.305
65623W        W66487  24.986  13.927  18.467
65624W        W66488  23.263  11.689  21.378
65625W        W66489  23.210  12.377  20.638
65626W        W66490  25.181  13.790  21.251
65627W        W66491  24.259  11.581  21.220
65628W        W66492  21.826  12.230  21.228
65629W        W66493  23.896  12.646  20.782
65630W        W66494  22.175  13.317  19.768
65631W        W66495  22.294  12.540  20.417
65632W        W66496  24.651  13.038  20.917
65633W        W66497  24.413  14.366  21.503
65634W        W66498  24.392  12.060  21.201
65635W        W66499  24.863  14.282  19.594
65636W        W66500  23.705  13.972  20.907
65637W        W66501  22.944  14.216  20.171
65638W        W66502  24.997  13.455  20.831
65639W        W66503  23.850  13.544  21.760
65640W        W66504  22.501  13.567  20.432
65641W        W66505  25.098  13.050  19.454
65642W        W66506  24.568  14.276  20.484
65643W        W66507  22.477  14.079  20.361
65644W        W66508  23.618  12.040  21.494
65645W        W66509  23.867  14.363  19.758
65646W        W66510  23.336  13.467  21.642
65647W        W66511  23.169  13.640  19.366
65648W        W66512  22.657  12.161  18.145
65649W        W66513  21.917  14.666  25.342
65650W        W66514  22.298  13.484  24.909
65651W        W66515  25.052  13.095  22.620
65652W        W66516  25.227  14.438  24.714
65653W        W66517  22.991  14.213  21.916
65654W        W66518  23.104  12.298  23.163
65655W        W66519  22.723  12.158  23.513
65656W        W66520  23.573  12.685  22.793
65657W        W66521  23.404  14.286  24.919
65658W        W66522  21.971  11.720  24.979
65659W        W66523  22.616  10.924  24.868
65660W        W66524  24.422  11.311  23.595
65661W        W66525  24.140  12.115  22.263
65662W        W66526  24.588  11.663  25.150
65663W        W66527  22.074  11.380  24.592
65664W        W66528  22.127  14.199  25.436
65665W        W66529  23.502  13.572  22.130
65666W        W66530  21.914  12.095  24.012
65667W        W66531  22.979  12.213  25.193
65668W        W66532  25.121  11.794  23.818
65669W        W66533  25.210  13.171  24.630
65670W        W66534  23.521  12.406  23.696
65671W        W66535  24.190  13.812  24.066
65672W        W66536  22.349  13.019  24.182
65673W        W66537  21.757  12.586  23.923
65674W        W66538  22.954  12.638  24.897
65675W        W66539  25.063  12.391  25.095
65676W        W66540  22.782  13.769  23.663
65677W        W66541  23.906  13.665  24.544
65678W        W66542  23.213  12.083  24.055
65679W        W66543  23.390  12.931  23.743
65680W        W66544  24.042  13.889  25.391
65681W        W66545  23.478  13.037  25.446
65682W        W66546  23.440  12.903  24.956
65683W        W66547  21.863  12.036  25.381
65684W        W66548  24.679  13.678  24.978
65685W        W66549  22.349  11.130  23.265
65686W        W66550  23.014  13.648  24.118
65687W        W66551  25.344  13.373  23.636
65688W        W66552  24.583  11.636  23.987
65689W        W66553  25.050  11.677  21.923
65690W        W66554  25.458  12.345  24.379
65691W        W66555  23.373  14.415  24.111
65692W        W66556  25.236  13.591  22.748
65693W        W66557  22.249  14.416  22.649
65694W        W66558  22.763  14.501  23.126
65695W        W66559  22.522  11.159  24.414
65696W        W66560  25.004  12.257  24.617
65697W        W66561  24.434  12.578  22.950
65698W        W66562  24.532  12.361  22.042
65699W        W66563  23.749  13.495  24.110
65700W        W66564  23.674  11.735  23.464
65701W        W66565  24.149  14.103  24.484
65702W        W66566  24.951  12.677  22.886
65703W        W66567  24.052  11.358  22.792
65704W        W66568  22.607  14.097  22.836
65705W        W66569  22.025  11.524  23.212
65706W        W66570  24.659  12.119  23.729
65707W        W66571  22.283  13.872  23.770
65708W        W66572  23.352  14.063  22.243
65709W        W66573  24.874  12.153  21.727
65710W        W66574  22.050  13.926  24.248
65711W        W66575  22.774  13.681  24.615
65712W        W66576  23.038  13.004  23.356
65713W        W66577  22.893  11.379  24.142
65714W        W66578  25.413  11.096  23.814
65715W        W66579  22.483  13.031  21.486
65716W        W66580  22.467  11.747  22.022
65717W        W66581  22.414  13.845  23.274
65718W        W66582  23.105  13.525  23.330
65719W        W66583  24.794  14.106  24.689
65720W        W66584  23.831  11.773  22.548
65721W        W66585  25.205  14.558  23.602
65722W        W66586  24.543  12.094  24.829
65723W        W66587  25.273  13.749  23.250
65724W        W66588  24.135  13.203  24.636
65725W        W66589  21.921  12.734  22.981
65726W        W66590  22.802  13.226  24.350
65727W        W66591  24.069  12.239  22.761
65728W        W66592  23.952  12.559  23.149
65729W        W66593  22.328  12.200  24.364
65730W        W66594  22.305  12.115  25.091
65731W        W66595  22.025  11.027  23.658
65732W        W66596  23.985  11.513  23.853
65733W        W66597  23.699  11.596  25.244
65734W        W66598  24.264  11.429  22.240
65735W        W66599  25.355  14.248  25.197
65736W        W66600  24.257  11.280  25.025
65737W        W66601  25.161  13.763  25.396
65738W        W66602  24.695  11.620  24.626
65739W        W66603  24.423  11.569  23.107
65740W        W66604  24.714  12.618  25.392
65741W        W66605  22.591  14.252  23.567
65742W        W66606  23.394  11.835  22.285
65743W        W66607  22.887  11.299  25.139
65744W        W66608  24.802  11.809  22.833
65745W        W66609  25.091  12.217  22.716
65746W        W66610  23.079  14.378  25.307
65747W        W66611  22.883  11.048  22.508
65748W        W66612  25.280  11.464  23.448
65749W        W66613  25.432  13.870  22.011
65750W        W66614  22.032  12.988  23.747
65751W        W66615  24.220  11.503  21.715
65752W        W66616  25.478  13.901  23.696
65753W        W66617  25.352  11.055  24.338
65754W        W66618  23.800  12.619  25.267
65755W        W66619  23.530  13.083  22.435
65756W        W66620  24.261  12.838  25.344
65757W        W66621  24.034  10.990  23.757
65758W        W66622  22.402  11.988  23.880
65759W        W66623  22.127  13.060  24.649
65760W        W66624  24.107  14.359  23.621
65761W        W66625  25.084  11.847  24.330
65762W        W66626  24.010  14.493  24.795
65763W        W66627  25.142  12.934  22.101
65764W        W66628  23.441  12.679  23.285
65765W        W66629  25.431  11.005  24.844
65766W        W66630  23.631  13.180  24.561
65767W        W66631  23.694  11.985  23.908
65768W        W66632  24.569  12.225  22.596
65769W        W66633  24.913  12.073  22.242
65770W        W66634  25.176  14.123  22.853
65771W        W66635  24.869  13.152  23.686
65772W        W66636  24.335  12.655  22.407
65773W        W66637  23.885  12.765  23.615
65774W        W66638  24.812  12.627  23.724
65775W        W66639  22.313  11.612  24.208
65776W        W66640  24.863  12.832  24.901
65777W        W66641  25.365  14.436  24.084
65778W        W66642  23.267  13.939  23.596
65779W        W66643  24.478  14.477  24.550
65780W        W66644  24.210  11.784  24.511
65781W        W66645  23.570  14.632  24.531
65782W        W66646  25.177  11.472  22.945
65783W        W66647  25.090  12.725  24.422
65784W        W66648  21.903  11.871  24.477
65785W        W66649  24.748  11.686  23.489
65786W        W66650  25.031  11.853  24.927
65787W        W66651  23.929  13.279  23.678
65788W        W66652  23.411  14.193  23.176
65789W        W66653  22.452  11.320  22.340
65790W        W66654  23.664  11.180  24.112
65791W        W66655  22.514  14.429  22.165
65792W        W66656  23.072  12.742  22.909
65793W        W66657  23.618  13.532  24.942
65794W        W66658  23.572  11.360  23.059
65795W        W66659  24.814  11.255  23.246
65796W        W66660  24.717  14.533  23.754
65797W        W66661  23.864  14.245  24.066
65798W        W66662  23.306  13.218  24.166
65799W        W66663  25.189  14.049  24.380
65800W        W66664  23.003  11.331  22.985
65801W        W66665  23.449  13.912  24.060
65802W        W66666  22.891  11.636  21.732
65803W        W66667  23.620  12.184  24.390
65804W        W66668  24.503  11.089  24.042
65805W        W66669  21.835  12.995  24.231
65806W        W66670  23.525  12.709  22.046
65807W        W66671  22.784  11.162  21.916
65808W        W66672  23.611  12.188  23.214
65809W        W66673  24.332  11.268  24.500
65810W        W66674  23.127  13.296  24.783
65811W        W66675  23.903  13.112  25.091
65812W        W66676  24.476  13.174  25.016
65813W        W66677  23.791  11.200  25.605
65814W        W66678  22.870  11.755  23.809
65815W        W66679  22.482  11.620  23.472
65816W        W66680  22.271  14.340  23.162
65817W        W66681  23.844  14.014  24.937
65818W        W66682  23.110  13.500  22.468
65819W        W66683  24.373  12.525  23.473
65820W        W66684  24.430  12.465  24.021
65821W        W66685  23.778  12.977  24.092
65822W        W66686  24.303  13.339  21.929
65823W        W66687  24.009  11.374  23.322
65824W        W66688  25.239  11.759  22.490
65825W        W66689  22.152  14.400  24.953
65826W        W66690  22.326  13.500  24.406
65827W        W66691  21.755  14.270  22.635
65828W        W66692  23.758  11.670  24.295
65829W        W66693  22.847  14.065  22.382
65830W        W66694  25.054  13.935  22.356
65831W        W66695  23.835  12.509  22.391
65832W        W66696  23.326  11.806  23.025
65833W        W66697  23.893  11.728  22.029
65834W        W66698  24.150  13.586  24.986
65835W        W66699  24.669  11.302  22.757
65836W        W66700  21.992  11.042  22.240
65837W        W66701  23.386  13.629  24.482
65838W        W66702  22.968  13.264  23.783
65839W        W66703  23.014  13.700  22.000
65840W        W66704  22.104  13.940  22.844
65841W        W66705  22.564  12.562  25.221
65842W        W66706  23.346  11.226  25.344
65843W        W66707  23.874  11.412  24.720
65844W        W66708  23.270  11.016  23.296
65845W        W66709  24.655  11.073  22.300
65846W        W66710  22.078  11.089  24.167
65847W        W66711  22.070  11.990  23.478
65848W        W66712  24.920  11.262  23.761
65849W        W66713  22.497  11.412  22.865
65850W        W66714  24.917  11.333  24.264
65851W        W66715  25.221  12.419  22.020
65852W        W66716  22.455  11.266  23.852
65853W        W66717  23.622  11.857  24.783
65854W        W66718  21.817  11.572  22.285
65855W        W66719  22.632  13.054  24.827
65856W        W66720  23.908  12.463  24.041
65857W        W66721  23.658  14.511  22.157
65858W        W66722  21.668  12.926  22.040
65859W        W66723  22.767  13.492  25.102
65860W        W66724  22.273  12.567  24.790
65861W        W66725  23.186  12.865  24.514
65862W        W66726  24.926  11.053  24.720
65863W        W66727  25.392  12.706  24.851
65864W        W66728  25.336  12.660  22.515
65865W        W66729  24.047  12.889  22.753
65866W        W66730  24.843  14.562  21.779
65867W        W66731  23.986  12.497  25.743
65868W        W66732  22.365  13.424  25.433
65869W        W66733  25.481  11.536  25.501
65870W        W66734  24.979  12.325  24.108
65871W        W66735  23.583  14.425  25.409
65872W        W66736  23.265  11.191  22.112
65873W        W66737  25.164  13.436  22.226
65874W        W66738  22.707  11.795  25.075
65875W        W66739  23.170  13.817  24.914
65876W        W66740  25.239  11.466  24.642
65877W        W66741  24.888  14.715  22.284
65878W        W66742  24.714  12.906  24.129
65879W        W66743  22.841  11.492  24.663
65880W        W66744  23.297  12.574  25.336
65881W        W66745  22.752  13.601  22.948
65882W        W66746  24.569  13.051  22.806
65883W        W66747  22.389  11.800  24.675
65884W        W66748  23.585  13.698  23.260
65885W        W66749  25.176  12.275  23.638
65886W        W66750  23.763  11.081  25.099
65887W        W66751  24.719  13.434  24.098
65888W        W66752  25.032  14.125  23.868
65889W        W66753  23.815  14.009  21.998
65890W        W66754  22.003  13.739  25.243
65891W        W66755  22.778  11.901  24.324
65892W        W66756  22.804  11.154  23.486
65893W        W66757  24.191  11.996  24.013
65894W        W66758  23.218  13.137  22.011
65895W        W66759  25.208  13.157  24.111
65896W        W66760  22.483  13.939  25.142
65897W        W66761  25.126  14.620  23.089
65898W        W66762  23.188  11.504  23.437
65899W        W66763  22.571  12.918  23.712
65900W        W66764  23.091  14.768  24.353
65901W        W66765  25.042  14.656  25.154
65902W        W66766  24.213  12.814  24.313
65903W        W66767  22.121  12.099  21.650
65904W        W66768  25.454  14.249  23.267
65905W        W66769  24.751  11.597  22.350
65906W        W66770  23.132  10.966  24.807
65907W        W66771  24.906  13.667  23.612
65908W        W66772  24.824  12.364  23.269
65909W        W66773  23.246  12.002  23.552
65910W        W66774  23.403  12.397  24.829
65911W        W66775  24.420  13.640  24.522
65912W        W66776  23.112  11.949  24.777
65913W        W66777  23.083  14.419  23.528
65914W        W66778  22.564  14.468  25.263
65915W        W66779  22.549  13.976  21.925
65916W        W66780  24.612  13.375  23.246
65917W        W66781  22.674  12.229  24.757
65918W        W66782  25.468  11.933  22.041
65919W        W66783  23.215  13.244  22.913
65920W        W66784  24.203  12.718  24.839
65921W        W66785  24.164  12.303  24.456
65922W        W66786  22.645  12.674  24.445
65923W        W66787  24.892  14.468  24.260
65924W        W66788  24.683  11.180  25.287
65925W        W66789  22.402  11.388  24.973
65926W        W66790  22.753  12.342  24.026
65927W        W66791  23.195  12.038  21.827
65928W        W66792  21.946  13.861  24.754
65929W        W66793  23.414  12.597  24.149
65930W        W66794  23.446  11.591  21.840
65931W        W66795  22.674  12.638  23.275
65932W        W66796  22.201  14.519  24.458
65933W        W66797  24.850  12.600  22.372
65934W        W66798  25.149  11.374  25.131
65935W        W66799  24.406  13.495  23.700
65936W        W66800  22.042  12.515  25.282
65937W        W66801  25.123  11.269  22.468
65938W        W66802  24.757  13.516  22.552
65939W        W66803  23.547  12.173  22.695
65940W        W66804  24.679  11.345  21.876
65941W        W66805  24.607  12.054  24.314
65942W        W66806  22.130  12.513  23.494
65943W        W66807  22.633  13.349  23.400
65944W        W66808  24.420  12.085  23.120
65945W        W66809  23.376  11.585  23.904
65946W        W66810  25.472  13.613  24.490
65947W        W66811  25.427  11.510  24.137
65948W        W66812  22.026  14.318  23.618
65949W        W66813  22.248  13.436  23.005
65950W        W66814  22.469  11.174  25.425
65951W        W66815  23.490  13.914  25.305
65952W        W66816  25.196  12.789  23.443
65953W        W66817  24.654  13.081  22.281
65954W        W66818  24.054  14.692  24.326
65955W        W66819  24.713  13.123  25.464
65956W        W66820  23.328  10.946  22.795
65957W        W66821  24.248  11.803  23.528
65958W        W66822  22.000  13.447  24.009
65959W        W66823  23.322  11.428  22.593
65960W        W66824  22.978  13.010  25.245
65961W        W66825  23.963  11.821  23.050
65962W        W66826  24.223  13.296  24.143
65963W        W66827  22.403  14.062  24.635
65964W        W66828  22.959  13.883  25.398
65965W        W66829  22.926  11.549  22.250
65966W        W66830  24.332  11.773  22.634
65967W        W66831  24.352  14.084  24.959
65968W        W66832  23.042  12.550  23.631
65969W        W66833  22.719  14.386  24.364
65970W        W66834  25.263  14.381  22.066
65971W        W66835  22.215  12.988  25.160
65972W        W66836  24.361  12.956  23.764
65973W        W66837  22.685  13.085  22.969
65974W        W66838  23.110  14.066  24.446
65975W        W66839  23.615  11.242  23.596
65976W        W66840  21.526  13.351  22.321
65977W        W66841  23.660  12.183  21.999
65978W        W66842  22.274  12.981  23.284
65979W        W66843  23.358  11.420  24.854
65980W        W66844  25.173  11.159  21.928
65981W        W66845  25.178  12.843  25.321
65982W        W66846  24.088  14.402  25.295
65983W        W66847  25.527  13.398  24.970
65984W        W66848  24.843  14.161  25.194
65985W        W66849  22.768  14.633  23.904
65986W        W66850  25.103  13.241  23.177
65987W        W66851  23.982  12.228  23.565
65988W        W66852  23.790  10.894  23.247
65989W        W66853  22.919  14.017  23.230
65990W        W66854  23.258  11.662  24.392
65991W        W66855  23.191  11.096  23.814
65992W        W66856  22.107  14.065  22.284
65993W        W66857  23.555  13.176  23.314
65994W        W66858  22.845  14.218  24.871
65995W        W66859  21.980  13.131  22.653
65996W        W66860  22.036  11.566  23.768
65997W        W66861  23.431  13.471  23.724
65998W        W66862  21.987  11.321  22.728
65999W        W66863  24.607  12.561  24.523
66000W        W66864  24.495  11.847  21.994
66001W        W66865  25.172  13.666  24.052
66002W        W66866  23.812  13.856  23.704
66003W        W66867  23.115  14.288  22.774
66004W        W66868  24.276  11.015  21.874
66005W        W66869  22.344  14.328  24.013
66006W        W66870  24.013  12.022  25.482
66007W        W66871  22.290  11.693  25.393
66008W        W66872  21.780  12.263  23.107
66009W        W66873  23.260  12.343  22.285
66010W        W66874  24.301  12.344  25.212
66011W        W66875  22.955  12.825  24.055
66012W        W66876  24.354  11.039  23.145
66013W        W66877  23.579  14.355  23.637
66014W        W66878  24.688  13.954  24.208
66015W        W66879  24.535  14.022  23.710
66016W        W66880  24.208  13.000  23.261
66017W        W66881  23.739  11.316  22.309
66018W        W66882  25.534  11.101  23.129
66019W        W66883  23.094  12.543  21.786
66020W        W66884  25.099  11.929  23.237
66021W        W66885  23.974  12.963  22.152
66022W        W66886  25.022  13.312  25.088
66023W        W66887  24.721  13.637  22.029
66024W        W66888  23.190  11.724  25.247
66025W        W66889  23.062  12.361  24.449
66026W        W66890  25.195  13.835  24.897
66027W        W66891  24.111  11.814  25.014
66028W        W66892  21.876  12.219  24.855
66029W        W66893  23.759  12.673  24.546
66030W        W66894  22.162  13.434  23.525
66031W        W66895  22.269  12.547  23.992
66032W        W66896  24.665  13.169  24.550
66033W        W66897  24.526  14.567  25.040
66034W        W66898  23.902  12.278  24.888
66035W        W66899  24.952  14.158  23.363
66036W        W66900  23.624  14.111  24.493
66037W        W66901  22.958  14.154  23.954
66038W        W66902  24.943  13.608  24.523
66039W        W66903  23.744  13.470  25.439
66040W        W66904  22.511  13.427  23.925
66041W        W66905  24.707  12.876  23.286
66042W        W66906  24.367  14.348  24.074
66043W        W66907  22.579  13.897  24.182
66044W        W66908  23.537  12.108  25.229
66045W        W66909  23.602  14.089  22.698
66046W        W66910  23.243  13.451  25.270
66047W        W66911  23.227  13.786  22.885
66048W        W66912  22.678  12.128  21.669
66049W        W66913  22.025  14.581  28.834
66050W        W66914  22.342  13.347  28.530
66051W        W66915  25.054  12.818  26.330
66052W        W66916  25.211  14.250  28.274
66053W        W66917  22.856  14.272  25.746
66054W        W66918  22.941  12.529  26.555
66055W        W66919  22.589  12.232  26.787
66056W        W66920  23.375  12.743  26.349
66057W        W66921  23.287  14.151  28.162
66058W        W66922  22.115  11.733  28.449
66059W        W66923  22.639  11.228  28.149
66060W        W66924  24.492  11.318  27.375
66061W        W66925  24.101  12.030  25.996
66062W        W66926  24.707  11.666  28.874
66063W        W66927  22.111  11.377  28.066
66064W        W66928  22.179  14.035  28.867
66065W        W66929  23.504  13.159  25.983
66066W        W66930  22.035  12.258  27.546
66067W        W66931  22.876  12.049  28.822
66068W        W66932  25.245  11.855  27.396
66069W        W66933  25.036  12.956  28.114
66070W        W66934  23.552  12.448  27.334
66071W        W66935  24.123  13.828  27.661
66072W        W66936  22.526  13.054  27.959
66073W        W66937  21.768  12.711  27.549
66074W        W66938  22.972  12.521  28.575
66075W        W66939  25.284  12.354  28.842
66076W        W66940  22.710  13.749  27.172
66077W        W66941  24.023  13.669  28.184
66078W        W66942  23.198  12.110  27.458
66079W        W66943  23.265  12.881  27.250
66080W        W66944  24.123  13.819   0.014
66081W        W66945  23.431  13.031  28.949
66082W        W66946  23.649  12.861  28.508
66083W        W66947  21.969  11.934  28.913
66084W        W66948  24.618  13.718  28.826
66085W        W66949  22.305  11.220  26.696
66086W        W66950  22.837  13.422  27.740
66087W        W66951  25.571  13.406  27.322
66088W        W66952  24.658  11.636  27.769
66089W        W66953  24.951  11.656  25.532
66090W        W66954  25.680  12.409  28.047
66091W        W66955  23.327  14.247  27.652
66092W        W66956  25.632  13.659  26.265
66093W        W66957  22.365  14.592  26.232
66094W        W66958  22.667  14.326  26.610
66095W        W66959  22.988  11.365  27.799
66096W        W66960  25.353  12.139  28.324
66097W        W66961  24.338  12.460  26.819
66098W        W66962  24.455  12.309  25.718
66099W        W66963  23.823  13.391  27.736
66100W        W66964  23.521  11.784  27.062
66101W        W66965  24.250  14.113  28.057
66102W        W66966  24.874  12.744  26.927
66103W        W66967  24.076  11.250  26.515
66104W        W66968  22.557  14.123  26.141
66105W        W66969  22.126  11.693  26.682
66106W        W66970  24.335  12.267  27.291
66107W        W66971  22.196  13.833  27.164
66108W        W66972  23.332  14.108  25.755
66109W        W66973  24.752  12.096  25.354
66110W        W66974  21.992  13.948  27.997
66111W        W66975  22.764  13.436  28.240
66112W        W66976  23.111  12.984  26.770
66113W        W66977  23.502  11.277  27.951
66114W        W66978  25.400  11.086  27.330
66115W        W66979  22.581  12.949  25.578
66116W        W66980  22.391  11.804  25.890
66117W        W66981  22.461  13.824  26.726
66118W        W66982  23.277  13.495  26.835
66119W        W66983  24.794  14.157  28.590
66120W        W66984  23.815  11.730  26.302
66121W        W66985  25.109  14.575  27.190
66122W        W66986  24.897  12.270  28.508
66123W        W66987  25.727  13.758  26.755
66124W        W66988  24.040  13.118  28.239
66125W        W66989  21.773  12.637  26.620
66126W        W66990  23.030  13.031  28.022
66127W        W66991  24.058  12.124  26.518
66128W        W66992  23.855  12.584  26.643
66129W        W66993  22.418  12.227  27.912
66130W        W66994  22.390  12.132  28.702
66131W        W66995  22.329  10.968  27.135
66132W        W66996  24.121  11.466  27.712
66133W        W66997  23.812  11.497  28.774
66134W        W66998  24.183  11.515  25.983
66135W        W66999  25.310  14.029  28.759
66136W        W67000  24.169  11.038  28.515
66137W        W67001  25.116  13.558  28.889
66138W        W67002  24.798  11.726  28.348
66139W        W67003  24.388  11.448  26.895
66140W        W67004  24.879  12.646   0.107
66141W        W67005  22.506  14.250  27.110
66142W        W67006  23.374  11.895  26.111
66143W        W67007  22.778  11.191  28.678
66144W        W67008  24.783  11.695  26.676
66145W        W67009  24.965  12.365  26.579
66146W        W67010  22.990  14.330  28.844
66147W        W67011  22.930  11.015  26.141
66148W        W67012  25.189  11.471  27.032
66149W        W67013  25.498  14.056  25.674
66150W        W67014  22.132  12.931  27.231
66151W        W67015  24.167  11.517  25.461
66152W        W67016  25.503  13.866  27.582
66153W        W67017  25.368  11.013  27.859
66154W        W67018  23.935  12.276  28.850
66155W        W67019  23.528  13.207  26.496
66156W        W67020  24.409  12.833   0.169
66157W        W67021  24.252  10.871  27.384
66158W        W67022  22.694  12.026  27.257
66159W        W67023  22.081  12.989  28.212
66160W        W67024  24.044  14.189  27.247
66161W        W67025  25.122  11.880  27.929
66162W        W67026  23.807  14.199  28.278
66163W        W67027  24.969  12.846  25.809
66164W        W67028  23.382  12.526  26.847
66165W        W67029  25.412  11.053  28.379
66166W        W67030  23.541  13.073  28.051
66167W        W67031  23.763  11.997  27.478
66168W        W67032  24.581  12.097  26.369
66169W        W67033  24.905  12.020  25.915
66170W        W67034  25.220  13.743  26.592
66171W        W67035  24.520  13.459  27.408
66172W        W67036  24.243  12.480  26.202
66173W        W67037  23.986  12.650  27.172
66174W        W67038  24.937  12.625  27.446
66175W        W67039  22.317  11.831  27.579
66176W        W67040  24.864  12.800  28.590
66177W        W67041  25.371  14.331  27.773
66178W        W67042  23.211  13.893  27.166
66179W        W67043  24.404  14.474  28.412
66180W        W67044  24.313  11.740  28.135
66181W        W67045  23.540  14.586  28.023
66182W        W67046  25.136  11.377  26.509
66183W        W67047  25.044  12.442  27.999
66184W        W67048  21.992  11.920  27.973
66185W        W67049  24.748  11.733  27.198
66186W        W67050  25.163  11.857  28.687
66187W        W67051  24.070  13.656  27.185
66188W        W67052  23.366  14.249  26.689
66189W        W67053  22.567  11.332  25.925
66190W        W67054  23.800  11.032  27.598
66191W        W67055  22.403  14.471  25.753
66192W        W67056  22.791  12.726  26.095
66193W        W67057  23.656  13.376  28.444
66194W        W67058  23.582  11.380  26.609
66195W        W67059  24.803  11.146  26.964
66196W        W67060  24.588  14.593  27.221
66197W        W67061  23.846  14.278  27.721
66198W        W67062  23.302  13.220  27.635
66199W        W67063  25.124  13.883  27.925
66200W        W67064  22.724  11.402  26.443
66201W        W67065  23.219  13.734  27.637
66202W        W67066  22.774  11.620  25.550
66203W        W67067  23.571  12.273  27.870
66204W        W67068  24.675  11.080  27.796
66205W        W67069  22.046  13.110  27.722
66206W        W67070  23.505  12.674  25.814
66207W        W67071  22.932  11.140  25.639
66208W        W67072  23.527  12.052  26.611
66209W        W67073  24.537  11.284  28.241
66210W        W67074  23.191  13.131  28.491
66211W        W67075  23.931  12.830  28.935
66212W        W67076  24.382  12.993  28.680
66213W        W67077  23.884  11.012  28.947
66214W        W67078  23.143  11.597  27.346
66215W        W67079  22.607  11.714  26.864
66216W        W67080  22.177  14.173  26.500
66217W        W67081  23.784  13.819  28.631
66218W        W67082  22.572  13.210  26.042
66219W        W67083  24.470  12.788  27.278
66220W        W67084  24.511  12.508  27.744
66221W        W67085  23.699  12.885  27.574
66222W        W67086  24.243  13.354  25.440
66223W        W67087  23.958  11.262  27.140
66224W        W67088  25.160  11.900  26.357
66225W        W67089  22.128  14.270  28.402
66226W        W67090  22.286  13.493  28.011
66227W        W67091  21.860  14.621  26.370
66228W        W67092  23.832  11.832  27.962
66229W        W67093  22.926  13.808  25.913
66230W        W67094  25.431  14.152  26.197
66231W        W67095  23.702  12.330  26.198
66232W        W67096  22.995  12.024  26.448
66233W        W67097  23.747  11.689  25.776
66234W        W67098  24.211  13.474  28.609
66235W        W67099  24.601  11.212  26.475
66236W        W67100  22.104  11.155  25.781
66237W        W67101  23.260  13.505  28.100
66238W        W67102  22.992  13.327  27.241
66239W        W67103  22.849  13.407  25.610
66240W        W67104  22.206  13.747  26.165
66241W        W67105  22.550  12.607  28.837
66242W        W67106  23.257  11.127  28.828
66243W        W67107  23.956  11.393  28.208
66244W        W67108  23.122  11.084  26.631
66245W        W67109  24.254  11.025  26.064
66246W        W67110  22.321  11.206  27.646
66247W        W67111  22.180  11.995  27.102
66248W        W67112  25.001  11.359  27.500
66249W        W67113  22.495  11.901  26.387
66250W        W67114  25.028  11.373  28.036
66251W        W67115  25.108  12.380  25.620
66252W        W67116  22.654  11.510  27.391
66253W        W67117  23.937  11.893  28.474
66254W        W67118  21.922  11.651  25.763
66255W        W67119  22.678  12.956  28.452
66256W        W67120  24.001  12.436  27.636
66257W        W67121  23.795  14.635  25.924
66258W        W67122  22.108  12.786  25.737
66259W        W67123  22.825  13.420  28.737
66260W        W67124  22.350  12.545  28.354
66261W        W67125  23.307  12.624  28.208
66262W        W67126  24.908  10.933  28.268
66263W        W67127  25.351  12.664  28.418
66264W        W67128  25.261  12.382  26.133
66265W        W67129  23.862  12.827  26.172
66266W        W67130  24.703  14.569  25.529
66267W        W67131  24.055  12.485   0.305
66268W        W67132  22.484  13.169   0.035
66269W        W67133  25.505  11.493  28.817
66270W        W67134  24.802  12.114  27.553
66271W        W67135  23.445  14.202  28.671
66272W        W67136  23.371  11.062  25.862
66273W        W67137  25.203  13.278  25.602
66274W        W67138  22.612  11.661  28.579
66275W        W67139  23.082  13.808  28.484
66276W        W67140  25.402  11.577  28.311
66277W        W67141  24.826  14.751  26.000
66278W        W67142  24.700  13.021  27.691
66279W        W67143  22.979  11.701  28.197
66280W        W67144  23.448  12.507  28.829
66281W        W67145  22.716  13.641  26.325
66282W        W67146  24.574  12.757  26.488
66283W        W67147  22.477  11.730  28.075
66284W        W67148  23.658  13.863  26.913
66285W        W67149  25.273  12.419  27.102
66286W        W67150  23.628  11.126  28.478
66287W        W67151  24.636  13.845  27.742
66288W        W67152  25.033  14.102  27.449
66289W        W67153  23.343  13.584  25.748
66290W        W67154  21.919  13.317  28.920
66291W        W67155  22.822  11.861  27.723
66292W        W67156  22.772  11.248  26.976
66293W        W67157  24.272  11.987  27.698
66294W        W67158  23.079  12.979  25.764
66295W        W67159  25.241  13.144  27.675
66296W        W67160  22.679  13.914  28.785
66297W        W67161  25.100  14.563  26.649
66298W        W67162  23.122  11.595  26.754
66299W        W67163  22.636  12.969  27.057
66300W        W67164  22.935  14.486  27.931
66301W        W67165  25.147  14.511  28.736
66302W        W67166  24.190  12.921  27.763
66303W        W67167  22.145  12.243  25.764
66304W        W67168  25.437  14.190  26.718
66305W        W67169  24.740  11.607  26.165
66306W        W67170  23.143  11.230  28.322
66307W        W67171  25.338  13.807  27.098
66308W        W67172  24.783  12.252  27.053
66309W        W67173  23.105  12.081  26.945
66310W        W67174  23.678  12.320  28.394
66311W        W67175  24.559  13.740  28.247
66312W        W67176  23.225  12.089  28.434
66313W        W67177  23.007  14.341  27.041
66314W        W67178  22.500  14.424  28.722
66315W        W67179  22.465  13.895  25.678
66316W        W67180  25.290  13.315  26.900
66317W        W67181  22.717  12.135  28.319
66318W        W67182  25.417  11.982  25.831
66319W        W67183  23.042  13.171  26.277
66320W        W67184  24.097  12.612  28.491
66321W        W67185  24.131  12.244  28.120
66322W        W67186  22.769  12.602  28.064
66323W        W67187  24.870  14.543  27.684
66324W        W67188  24.600  11.159  28.811
66325W        W67189  22.275  11.182  28.507
66326W        W67190  22.781  12.405  27.586
66327W        W67191  23.083  12.032  25.671
66328W        W67192  21.955  13.670  28.462
66329W        W67193  23.237  12.652  27.707
66330W        W67194  23.259  11.547  25.734
66331W        W67195  22.414  12.469  26.339
66332W        W67196  22.075  14.509  27.950
66333W        W67197  24.757  12.480  26.086
66334W        W67198  25.036  11.345  28.601
66335W        W67199  24.861  13.627  27.022
66336W        W67200  22.079  12.447  28.975
66337W        W67201  24.959  11.107  26.101
66338W        W67202  25.280  13.280  26.353
66339W        W67203  23.178  12.366  26.067
66340W        W67204  24.609  11.308  25.772
66341W        W67205  24.655  12.102  28.042
66342W        W67206  22.399  12.460  27.218
66343W        W67207  22.779  13.396  26.766
66344W        W67208  24.393  11.962  26.872
66345W        W67209  23.636  11.499  27.487
66346W        W67210  25.340  13.433  28.105
66347W        W67211  25.450  11.504  27.736
66348W        W67212  22.004  14.307  27.032
66349W        W67213  22.319  13.365  26.485
66350W        W67214  22.374  11.282  28.997
66351W        W67215  23.615  13.836   0.116
66352W        W67216  25.357  12.905  27.242
66353W        W67217  24.428  12.814  25.830
66354W        W67218  24.103  14.614  28.007
66355W        W67219  24.800  13.152  28.979
66356W        W67220  23.480  10.879  26.324
66357W        W67221  24.159  11.735  27.268
66358W        W67222  21.994  13.609  27.587
66359W        W67223  23.243  11.409  26.238
66360W        W67224  22.933  12.929  28.903
66361W        W67225  23.945  11.690  26.799
66362W        W67226  24.340  13.407  27.883
66363W        W67227  22.440  13.854  28.333
66364W        W67228  23.097  13.898   0.121
66365W        W67229  22.879  11.721  26.050
66366W        W67230  24.316  11.682  26.439
66367W        W67231  24.264  13.998  28.554
66368W        W67232  22.912  12.532  27.099
66369W        W67233  22.481  14.206  27.943
66370W        W67234  25.211  14.491  25.698
66371W        W67235  22.160  12.898  28.704
66372W        W67236  24.067  13.153  27.315
66373W        W67237  22.629  12.953  26.528
66374W        W67238  22.875  13.880  27.989
66375W        W67239  23.408  11.235  27.062
66376W        W67240  21.824  13.353  26.317
66377W        W67241  23.576  12.176  25.727
66378W        W67242  22.266  12.691  26.784
66379W        W67243  23.502  11.640  28.333
66380W        W67244  25.101  11.183  25.609
66381W        W67245  25.286  12.857  28.902
66382W        W67246  23.950  14.300  28.812
66383W        W67247  25.230  13.194  28.536
66384W        W67248  24.946  14.004   0.116
66385W        W67249  22.506  14.564  27.545
66386W        W67250  25.721  13.227  26.613
66387W        W67251  23.893  12.171  27.004
66388W        W67252  23.777  10.929  26.778
66389W        W67253  22.967  13.903  26.714
66390W        W67254  23.339  11.771  27.826
66391W        W67255  23.277  11.052  27.519
66392W        W67256  22.035  14.225  26.013
66393W        W67257  23.662  12.980  26.945
66394W        W67258  22.804  14.225  28.366
66395W        W67259  22.140  12.915  26.295
66396W        W67260  22.203  11.470  27.163
66397W        W67261  23.582  13.404  27.250
66398W        W67262  22.155  11.436  26.229
66399W        W67263  24.544  12.538  28.269
66400W        W67264  24.491  11.810  25.705
66401W        W67265  25.052  13.587  27.502
66402W        W67266  23.664  13.882  27.430
66403W        W67267  23.055  14.162  26.269
66404W        W67268  24.257  11.004  25.533
66405W        W67269  22.147  14.189  27.531
66406W        W67270  24.336  12.011   0.040
66407W        W67271  22.442  11.773   0.066
66408W        W67272  22.087  12.222  26.638
66409W        W67273  22.698  12.204  26.009
66410W        W67274  24.483  12.475  28.814
66411W        W67275  22.821  12.923  27.545
66412W        W67276  24.307  10.944  26.874
66413W        W67277  23.532  14.318  27.177
66414W        W67278  24.743  14.222  28.072
66415W        W67279  24.540  13.985  27.259
66416W        W67280  24.200  12.962  26.828
66417W        W67281  23.755  11.263  26.116
66418W        W67282  25.460  11.071  26.804
66419W        W67283  22.888  12.516  25.630
66420W        W67284  25.169  11.960  26.878
66421W        W67285  23.922  13.009  25.683
66422W        W67286  24.742  13.335  28.505
66423W        W67287  25.224  13.695  25.950
66424W        W67288  23.132  11.617  28.689
66425W        W67289  23.082  12.214  27.965
66426W        W67290  25.053  13.739  28.411
66427W        W67291  24.296  11.546  28.601
66428W        W67292  21.961  12.222  28.459
66429W        W67293  23.837  12.672  28.052
66430W        W67294  22.315  13.378  26.988
66431W        W67295  22.336  12.685  27.669
66432W        W67296  24.531  13.028  28.171
66433W        W67297  24.466  14.223  28.983
66434W        W67298  24.426  12.057  28.527
66435W        W67299  24.966  14.138  26.940
66436W        W67300  23.626  13.848  27.934
66437W        W67301  22.840  14.143  27.515
66438W        W67302  24.853  13.424  27.971
66439W        W67303  23.830  13.368  28.962
66440W        W67304  22.444  13.291  27.465
66441W        W67305  24.911  13.150  27.244
66442W        W67306  24.385  14.332  27.624
66443W        W67307  22.476  13.792  27.634
66444W        W67308  23.523  11.957  28.819
66445W        W67309  23.558  14.083  26.224
66446W        W67310  23.345  13.528  28.816
66447W        W67311  23.241  13.657  26.317
66448W        W67312  22.588  12.107  25.512
66449W        W67313  21.885  18.268   3.381
66450W        W67314  22.342  17.161   2.904
66451W        W67315  25.048  16.760   0.759
66452W        W67316  25.302  17.907   2.660
66453W        W67317  23.179  17.902   0.321
66454W        W67318  23.146  16.072   1.230
66455W        W67319  22.671  15.963   1.500
66456W        W67320  23.609  16.624   0.705
66457W        W67321  23.348  17.877   3.086
66458W        W67322  21.946  15.369   2.905
66459W        W67323  22.456  14.622   2.791
66460W        W67324  24.404  15.044   1.776
66461W        W67325  24.118  15.783   0.444
66462W        W67326  24.661  15.367   3.352
66463W        W67327  22.034  14.976   2.571
66464W        W67328  22.059  17.784   3.512
66465W        W67329  23.415  17.079   0.303
66466W        W67330  21.967  15.837   2.033
66467W        W67331  23.059  15.922   3.233
66468W        W67332  25.255  15.510   1.752
66469W        W67333  25.105  16.634   2.558
66470W        W67334  23.570  16.143   1.594
66471W        W67335  24.071  17.402   1.960
66472W        W67336  22.464  16.691   2.199
66473W        W67337  21.731  16.317   1.976
66474W        W67338  23.069  16.439   3.138
66475W        W67339  25.153  16.025   3.205
66476W        W67340  22.738  17.426   1.716
66477W        W67341  23.923  17.277   2.680
66478W        W67342  23.409  15.834   1.952
66479W        W67343  23.373  16.609   1.643
66480W        W67344  24.184  17.587   3.423
66481W        W67345  23.451  16.709   3.402
66482W        W67346  23.560  16.520   2.926
66483W        W67347  21.971  15.695   3.302
66484W        W67348  24.641  17.358   3.136
66485W        W67349  22.544  14.972   1.017
66486W        W67350  22.808  17.084   2.145
66487W        W67351  25.193  16.933   1.559
66488W        W67352  24.883  15.181   1.893
66489W        W67353  25.137  15.380   0.073
66490W        W67354  25.607  16.064   2.345
66491W        W67355  23.496  17.829   2.125
66492W        W67356  25.214  17.298   0.651
66493W        W67357  22.410  18.253   0.670
66494W        W67358  22.730  18.131   1.070
66495W        W67359  22.636  14.919   2.385
66496W        W67360  25.027  15.959   2.628
66497W        W67361  24.526  16.277   1.309
66498W        W67362  24.531  16.061   0.294
66499W        W67363  23.648  17.324   2.241
66500W        W67364  23.757  15.656   1.639
66501W        W67365  24.046  17.690   2.411
66502W        W67366  25.033  16.275   1.032
66503W        W67367  24.028  15.137   0.971
66504W        W67368  22.471  17.737   0.797
66505W        W67369  22.098  15.197   1.241
66506W        W67370  24.766  15.684   1.818
66507W        W67371  22.229  17.505   1.771
66508W        W67372  23.465  17.585   0.624
66509W        W67373  24.906  15.848  28.960
66510W        W67374  22.002  17.581   2.274
66511W        W67375  22.735  17.328   2.595
66512W        W67376  22.960  16.537   1.346
66513W        W67377  23.080  15.081   2.144
66514W        W67378  25.462  14.689   1.909
66515W        W67379  22.540  16.557   0.097
66516W        W67380  22.426  15.652   0.388
66517W        W67381  22.232  17.522   1.240
66518W        W67382  23.300  16.936   1.242
66519W        W67383  24.851  17.844   2.915
66520W        W67384  23.787  15.570   0.779
66521W        W67385  25.131  17.974   1.532
66522W        W67386  24.709  15.786   3.021
66523W        W67387  25.489  17.303   1.343
66524W        W67388  24.066  16.764   2.742
66525W        W67389  21.985  16.248   1.195
66526W        W67390  22.784  16.818   2.584
66527W        W67391  24.152  15.964   0.934
66528W        W67392  24.028  16.433   1.058
66529W        W67393  22.363  15.817   2.374
66530W        W67394  22.347  15.738   2.896
66531W        W67395  22.285  14.808   1.570
66532W        W67396  23.991  15.100   2.142
66533W        W67397  23.790  15.207   3.336
66534W        W67398  24.355  15.072   0.569
66535W        W67399  25.355  17.775   3.173
66536W        W67400  24.182  14.750   3.154
66537W        W67401  25.129  17.231   3.305
66538W        W67402  24.724  15.297   2.824
66539W        W67403  24.423  15.246   1.310
66540W        W67404  24.872  16.390   3.499
66541W        W67405  22.525  17.901   1.579
66542W        W67406  23.278  15.759   0.796
66543W        W67407  22.681  14.974   3.147
66544W        W67408  24.941  15.586   0.953
66545W        W67409  25.339  15.883   0.810
66546W        W67410  22.907  18.114   3.236
66547W        W67411  22.956  14.909   0.699
66548W        W67412  25.272  15.018   1.576
66549W        W67413  25.410  17.479   0.208
66550W        W67414  22.071  16.655   1.783
66551W        W67415  24.262  15.173   0.075
66552W        W67416  25.372  17.554   1.789
66553W        W67417  25.278  14.733   2.407
66554W        W67418  23.680  15.989   2.910
66555W        W67419  23.571  17.116   0.801
66556W        W67420  24.342  16.578   3.573
66557W        W67421  23.994  14.735   1.778
66558W        W67422  22.407  15.654   1.844
66559W        W67423  22.254  16.708   2.689
66560W        W67424  23.976  17.785   1.414
66561W        W67425  24.961  15.503   2.303
66562W        W67426  23.933  18.006   2.844
66563W        W67427  25.158  16.938   0.260
66564W        W67428  23.513  16.436   1.171
66565W        W67429  25.394  14.782   2.954
66566W        W67430  23.638  16.873   2.511
66567W        W67431  23.933  15.617   2.132
66568W        W67432  24.646  15.987   0.823
66569W        W67433  24.978  15.785   0.466
66570W        W67434  24.766  17.522   0.813
66571W        W67435  24.678  17.025   1.638
66572W        W67436  24.117  16.339   0.534
66573W        W67437  23.893  16.540   1.556
66574W        W67438  24.810  16.213   1.771
66575W        W67439  22.206  15.340   2.242
66576W        W67440  24.887  16.409   2.977
66577W        W67441  25.329  17.920   2.127
66578W        W67442  23.186  17.469   1.487
66579W        W67443  24.424  18.043   2.661
66580W        W67444  24.129  15.393   2.562
66581W        W67445  23.562  18.222   2.534
66582W        W67446  25.227  15.096   1.061
66583W        W67447  24.779  16.291   2.283
66584W        W67448  21.808  15.581   2.447
66585W        W67449  24.910  15.368   1.405
66586W        W67450  25.170  15.564   2.965
66587W        W67451  24.082  17.272   1.449
66588W        W67452  23.383  17.808   1.139
66589W        W67453  22.477  15.126   0.498
66590W        W67454  23.561  14.787   2.085
66591W        W67455  22.654  17.924   0.341
66592W        W67456  22.736  16.460   0.559
66593W        W67457  23.653  17.033   3.028
66594W        W67458  23.583  15.319   1.210
66595W        W67459  24.793  14.858   1.472
66596W        W67460  24.556  18.103   1.658
66597W        W67461  23.967  17.916   1.918
66598W        W67462  23.360  16.879   2.072
66599W        W67463  25.107  17.535   2.347
66600W        W67464  23.012  15.224   1.122
66601W        W67465  23.203  17.370   1.989
66602W        W67466  22.905  15.094   0.183
66603W        W67467  23.568  15.873   2.431
66604W        W67468  24.397  14.762   2.208
66605W        W67469  21.950  16.707   2.280
66606W        W67470  23.631  16.323   0.280
66607W        W67471  22.950  14.583   0.294
66608W        W67472  23.627  15.861   1.180
66609W        W67473  24.378  14.939   2.689
66610W        W67474  23.180  16.883   2.928
66611W        W67475  23.945  16.673   3.243
66612W        W67476  24.441  16.674   3.080
66613W        W67477  23.833  14.835   3.702
66614W        W67478  22.924  15.668   1.877
66615W        W67479  22.572  15.356   1.406
66616W        W67480  22.241  18.028   1.155
66617W        W67481  23.752  17.545   3.103
66618W        W67482  22.439  16.904   0.517
66619W        W67483  24.319  16.390   1.806
66620W        W67484  24.395  15.941   2.096
66621W        W67485  23.844  16.657   2.064
66622W        W67486  24.296  17.056   0.176
66623W        W67487  23.958  15.191   1.562
66624W        W67488  25.556  15.400   0.813
66625W        W67489  22.078  17.957   2.991
66626W        W67490  22.276  17.144   2.372
66627W        W67491  21.905  18.208   0.812
66628W        W67492  23.591  15.264   2.475
66629W        W67493  23.023  17.386   0.481
66630W        W67494  25.112  17.815   0.577
66631W        W67495  23.694  16.119   0.754
66632W        W67496  22.822  15.701   1.083
66633W        W67497  23.852  15.492   0.060
66634W        W67498  24.149  17.139   3.152
66635W        W67499  24.736  15.099   0.935
66636W        W67500  22.046  14.731   0.329
66637W        W67501  23.200  17.140   2.474
66638W        W67502  22.979  16.955   1.678
66639W        W67503  22.879  16.964   0.229
66640W        W67504  22.010  17.464   0.737
66641W        W67505  22.665  16.152   2.971
66642W        W67506  23.240  14.936   3.423
66643W        W67507  23.880  14.997   2.815
66644W        W67508  23.260  14.770   1.170
66645W        W67509  23.655  14.803   0.793
66646W        W67510  22.201  14.842   2.109
66647W        W67511  22.203  15.733   1.349
66648W        W67512  24.944  14.679   1.984
66649W        W67513  22.410  15.453   0.896
66650W        W67514  24.808  15.004   2.375
66651W        W67515  25.310  16.114   0.243
66652W        W67516  22.566  15.158   1.886
66653W        W67517  23.769  15.491   2.911
66654W        W67518  21.947  15.251   0.330
66655W        W67519  22.629  16.716   3.054
66656W        W67520  23.901  16.120   2.007
66657W        W67521  23.837  17.918   0.385
66658W        W67522  22.049  16.661   0.218
66659W        W67523  22.825  17.208   3.075
66660W        W67524  22.227  16.201   2.688
66661W        W67525  23.233  16.563   2.510
66662W        W67526  24.863  14.760   2.839
66663W        W67527  25.422  16.431   2.919
66664W        W67528  25.401  16.383   0.679
66665W        W67529  24.113  16.845   0.742
66666W        W67530  24.855  18.156   0.228
66667W        W67531  23.992  16.205   3.466
66668W        W67532  22.474  17.143   3.430
66669W        W67533  25.533  15.140   3.399
66670W        W67534  25.171  15.932   2.075
66671W        W67535  23.348  18.198   3.510
66672W        W67536  23.372  14.870   0.363
66673W        W67537  24.769  17.263   0.341
66674W        W67538  22.817  15.488   3.070
66675W        W67539  23.257  17.412   2.894
66676W        W67540  25.195  15.160   2.659
66677W        W67541  24.679  18.091   0.727
66678W        W67542  24.584  16.761   2.090
66679W        W67543  22.980  15.222   2.656
66680W        W67544  23.496  16.199   3.329
66681W        W67545  22.671  17.265   0.828
66682W        W67546  24.529  16.501   0.844
66683W        W67547  22.452  15.252   2.736
66684W        W67548  23.629  17.373   1.238
66685W        W67549  25.487  15.959   1.637
66686W        W67550  23.664  14.732   3.195
66687W        W67551  24.551  17.313   2.077
66688W        W67552  24.884  17.732   1.927
66689W        W67553  23.887  17.299   0.451
66690W        W67554  21.997  17.308   3.276
66691W        W67555  22.698  15.437   2.284
66692W        W67556  22.786  14.765   1.421
66693W        W67557  24.462  15.371   2.161
66694W        W67558  23.199  16.581   0.326
66695W        W67559  25.096  16.711   2.041
66696W        W67560  22.443  17.612   3.159
66697W        W67561  25.065  18.178   1.051
66698W        W67562  23.018  15.194   1.643
66699W        W67563  22.602  16.523   1.723
66700W        W67564  23.147  18.194   2.241
66701W        W67565  25.035  18.174   3.280
66702W        W67566  24.238  16.408   2.323
66703W        W67567  22.257  16.231   0.437
66704W        W67568  25.198  17.668   1.086
66705W        W67569  25.099  15.269   0.570
66706W        W67570  22.964  14.727   2.779
66707W        W67571  24.962  17.455   1.504
66708W        W67572  25.019  15.907   1.401
66709W        W67573  23.250  15.631   1.473
66710W        W67574  23.204  16.123   2.762
66711W        W67575  24.424  17.136   2.725
66712W        W67576  23.281  15.620   2.829
66713W        W67577  23.025  17.989   1.477
66714W        W67578  22.413  18.121   3.349
66715W        W67579  22.493  17.431   0.343
66716W        W67580  25.044  17.150   1.106
66717W        W67581  22.818  15.784   2.641
66718W        W67582  25.476  15.646   0.376
66719W        W67583  23.107  16.906   0.714
66720W        W67584  24.074  16.297   2.931
66721W        W67585  24.076  15.939   2.525
66722W        W67586  22.688  16.314   2.483
66723W        W67587  24.871  18.028   2.395
66724W        W67588  24.660  14.836   3.331
66725W        W67589  22.157  14.920   3.071
66726W        W67590  22.635  16.092   2.010
66727W        W67591  22.895  15.606   0.109
66728W        W67592  21.942  17.461   2.788
66729W        W67593  23.440  16.344   2.079
66730W        W67594  23.355  15.367   0.241
66731W        W67595  22.645  16.234   1.045
66732W        W67596  22.129  18.121   2.502
66733W        W67597  24.919  16.308   0.527
66734W        W67598  25.072  15.102   3.179
66735W        W67599  24.547  17.317   1.235
66736W        W67600  22.178  16.165   3.200
66737W        W67601  25.213  14.760   0.593
66738W        W67602  24.607  17.017   0.833
66739W        W67603  23.193  16.288   0.757
66740W        W67604  24.767  15.018   0.214
66741W        W67605  24.547  15.701   2.541
66742W        W67606  22.219  16.163   1.674
66743W        W67607  22.599  17.119   1.337
66744W        W67608  24.536  15.756   1.294
66745W        W67609  23.518  15.328   1.970
66746W        W67610  25.330  17.076   2.397
66747W        W67611  25.348  15.173   2.146
66748W        W67612  21.991  17.938   1.589
66749W        W67613  22.233  17.054   0.982
66750W        W67614  22.287  14.958   3.574
66751W        W67615  23.410  17.668   3.574
66752W        W67616  25.222  16.407   1.512
66753W        W67617  24.679  16.748   0.407
66754W        W67618  24.043  18.207   2.348
66755W        W67619  24.725  16.911   3.434
66756W        W67620  23.273  14.476   0.696
66757W        W67621  24.268  15.579   1.716
66758W        W67622  21.913  17.131   1.950
66759W        W67623  23.374  15.237   0.742
66760W        W67624  22.943  16.846   3.445
66761W        W67625  24.048  15.575   1.233
66762W        W67626  24.159  17.005   2.295
66763W        W67627  22.373  17.686   2.646
66764W        W67628  22.956  17.613   3.341
66765W        W67629  22.891  15.426   0.619
66766W        W67630  24.401  15.514   0.842
66767W        W67631  24.253  17.608   2.903
66768W        W67632  23.071  16.183   1.741
66769W        W67633  22.692  17.998   2.390
66770W        W67634  25.354  17.996   0.165
66771W        W67635  22.136  16.759   3.210
66772W        W67636  24.195  16.909   1.783
66773W        W67637  22.691  16.767   0.975
66774W        W67638  23.100  17.660   2.422
66775W        W67639  23.484  14.990   1.600
66776W        W67640  21.895  16.938   0.626
66777W        W67641  23.593  15.812   0.354
66778W        W67642  22.317  16.650   1.327
66779W        W67643  23.390  15.114   2.955
66780W        W67644  25.253  14.857   0.097
66781W        W67645  25.185  16.728   3.286
66782W        W67646  23.829  17.986   3.385
66783W        W67647  25.421  16.982   2.898
66784W        W67648  24.918  17.682   3.419
66785W        W67649  22.684  18.256   1.941
66786W        W67650  25.409  16.696   1.120
66787W        W67651  24.077  16.044   1.467
66788W        W67652  23.803  14.783   1.277
66789W        W67653  22.757  17.614   1.217
66790W        W67654  23.189  15.553   2.321
66791W        W67655  23.133  14.683   1.793
66792W        W67656  22.108  17.886   0.461
66793W        W67657  23.816  16.885   1.187
66794W        W67658  22.852  17.758   2.860
66795W        W67659  22.258  16.541   0.836
66796W        W67660  22.078  15.260   1.749
66797W        W67661  23.685  17.021   1.685
66798W        W67662  22.071  14.971   0.785
66799W        W67663  24.514  16.171   2.721
66800W        W67664  24.590  15.490   0.345
66801W        W67665  25.037  17.213   1.964
66802W        W67666  23.639  17.528   1.732
66803W        W67667  22.994  17.802   0.786
66804W        W67668  24.348  14.676   0.211
66805W        W67669  22.268  17.959   2.030
66806W        W67670  24.269  15.766   3.547
66807W        W67671  22.341  15.355   3.238
66808W        W67672  22.237  15.937   0.857
66809W        W67673  22.798  15.943   0.629
66810W        W67674  24.471  16.177   3.259
66811W        W67675  22.954  16.560   2.085
66812W        W67676  24.304  14.745   1.342
66813W        W67677  23.529  18.009   1.602
66814W        W67678  24.626  17.569   2.533
66815W        W67679  24.448  17.599   1.654
66816W        W67680  24.329  16.809   1.272
66817W        W67681  23.830  15.154   0.445
66818W        W67682  25.505  14.667   1.244
66819W        W67683  23.161  16.067   0.248
66820W        W67684  25.392  15.591   1.255
66821W        W67685  23.870  16.775   0.288
66822W        W67686  24.879  16.938   2.928
66823W        W67687  24.533  17.734   0.385
66824W        W67688  23.308  15.462   3.329
66825W        W67689  23.072  16.053   2.269
66826W        W67690  25.099  17.400   2.828
66827W        W67691  24.241  15.285   3.061
66828W        W67692  21.852  15.899   2.860
66829W        W67693  23.755  16.355   2.491
66830W        W67694  22.071  17.088   1.463
66831W        W67695  22.193  16.270   2.184
66832W        W67696  24.583  16.664   2.596
66833W        W67697  24.456  17.996   3.211
66834W        W67698  24.184  15.800   3.018
66835W        W67699  24.709  17.837   1.234
66836W        W67700  23.579  17.699   2.625
66837W        W67701  22.955  17.820   1.951
66838W        W67702  24.834  17.083   2.431
66839W        W67703  23.785  17.240   3.524
66840W        W67704  22.427  17.025   1.819
66841W        W67705  24.839  16.700   1.245
66842W        W67706  24.436  17.843   2.130
66843W        W67707  22.551  17.548   2.174
66844W        W67708  23.770  15.733   3.375
66845W        W67709  23.867  17.725   0.898
66846W        W67710  23.298  17.207   3.355
66847W        W67711  23.155  17.358   0.986
66848W        W67712  22.656  16.074   0.154
66849W        W67713  21.897  18.203   7.107
66850W        W67714  22.374  17.095   6.643
66851W        W67715  25.017  16.760   4.317
66852W        W67716  25.380  17.968   6.300
66853W        W67717  22.965  17.946   3.738
66854W        W67718  23.336  16.161   4.690
66855W        W67719  22.840  15.971   5.247
66856W        W67720  23.750  16.725   4.214
66857W        W67721  23.337  17.920   6.589
66858W        W67722  22.005  15.307   6.619
66859W        W67723  22.465  14.922   6.297
66860W        W67724  24.591  14.990   5.388
66861W        W67725  24.292  15.845   4.101
66862W        W67726  24.638  15.522   6.967
66863W        W67727  21.987  15.082   6.161
66864W        W67728  22.125  17.732   7.144
66865W        W67729  23.430  17.429   4.081
66866W        W67730  22.075  15.711   5.687
66867W        W67731  23.076  15.934   6.828
66868W        W67732  25.377  15.403   5.444
66869W        W67733  25.095  16.653   6.186
66870W        W67734  23.669  15.913   5.410
66871W        W67735  24.161  17.380   5.686
66872W        W67736  22.572  16.753   6.058
66873W        W67737  21.687  16.095   5.610
66874W        W67738  23.172  16.340   6.512
66875W        W67739  25.203  16.120   6.874
66876W        W67740  22.801  17.382   5.351
66877W        W67741  23.998  17.279   6.382
66878W        W67742  23.189  15.801   5.608
66879W        W67743  23.538  16.670   5.201
66880W        W67744  24.329  17.688   7.109
66881W        W67745  23.521  16.716   7.107
66882W        W67746  23.655  16.538   6.623
66883W        W67747  21.964  15.571   7.078
66884W        W67748  24.678  17.290   6.952
66885W        W67749  22.296  14.898   4.813
66886W        W67750  22.903  17.036   5.760
66887W        W67751  25.231  17.027   5.221
66888W        W67752  24.947  15.259   5.676
66889W        W67753  25.126  15.417   3.603
66890W        W67754  25.508  15.956   6.059
66891W        W67755  23.592  17.824   5.807
66892W        W67756  25.185  17.253   4.287
66893W        W67757  22.433  18.242   4.394
66894W        W67758  22.715  18.142   4.861
66895W        W67759  22.775  14.982   5.892
66896W        W67760  25.090  16.055   6.346
66897W        W67761  24.468  16.229   4.918
66898W        W67762  24.537  16.170   3.810
66899W        W67763  23.732  17.282   5.930
66900W        W67764  23.756  15.460   5.170
66901W        W67765  24.148  17.689   6.110
66902W        W67766  24.889  16.364   4.645
66903W        W67767  24.150  14.987   4.561
66904W        W67768  22.554  17.760   4.528
66905W        W67769  21.889  15.196   4.985
66906W        W67770  24.578  15.905   5.319
66907W        W67771  22.243  17.473   5.449
66908W        W67772  23.381  17.941   4.043
66909W        W67773  24.787  15.830   3.524
66910W        W67774  22.009  17.482   5.914
66911W        W67775  22.704  17.220   6.255
66912W        W67776  23.558  16.630   4.679
66913W        W67777  23.261  15.108   5.967
66914W        W67778  25.479  14.792   5.486
66915W        W67779  22.628  16.363   3.436
66916W        W67780  22.206  15.465   3.720
66917W        W67781  22.433  17.456   4.962
66918W        W67782  23.425  17.085   4.880
66919W        W67783  24.919  17.945   6.532
66920W        W67784  23.893  15.566   4.306
66921W        W67785  25.166  18.026   5.262
66922W        W67786  24.730  15.968   6.727
66923W        W67787  25.406  17.257   4.785
66924W        W67788  24.110  16.786   6.487
66925W        W67789  21.682  16.073   4.751
66926W        W67790  23.080  16.707   6.149
66927W        W67791  24.155  15.948   4.595
66928W        W67792  24.102  16.529   4.667
66929W        W67793  22.472  15.826   6.018
66930W        W67794  22.390  15.774   6.799
66931W        W67795  22.213  14.747   5.292
66932W        W67796  24.199  15.114   5.707
66933W        W67797  23.775  15.251   6.874
66934W        W67798  24.246  15.030   4.056
66935W        W67799  25.326  17.828   6.852
66936W        W67800  24.160  14.883   6.884
66937W        W67801  25.173  17.166   7.043
66938W        W67802  24.751  15.219   6.561
66939W        W67803  24.541  15.149   4.880
66940W        W67804  24.790  16.365   7.104
66941W        W67805  22.583  17.848   5.288
66942W        W67806  23.397  15.415   4.254
66943W        W67807  22.721  14.938   6.797
66944W        W67808  24.882  15.465   4.589
66945W        W67809  25.171  15.890   4.448
66946W        W67810  22.905  18.124   6.830
66947W        W67811  22.882  14.666   4.134
66948W        W67812  25.108  15.021   5.217
66949W        W67813  25.344  17.511   3.686
66950W        W67814  22.035  16.514   5.551
66951W        W67815  24.265  15.093   3.541
66952W        W67816  25.425  17.499   5.411
66953W        W67817  25.338  14.731   6.134
66954W        W67818  23.927  16.131   6.777
66955W        W67819  23.738  17.192   4.470
66956W        W67820  24.375  16.517   7.338
66957W        W67821  24.156  14.675   5.447
66958W        W67822  22.626  15.642   5.575
66959W        W67823  22.266  16.598   6.447
66960W        W67824  24.123  17.807   5.116
66961W        W67825  25.141  15.575   6.066
66962W        W67826  23.977  18.021   6.494
66963W        W67827  25.216  16.579   3.853
66964W        W67828  23.772  16.249   4.969
66965W        W67829  25.393  14.753   6.661
66966W        W67830  23.622  16.916   6.272
66967W        W67831  23.958  15.576   5.693
66968W        W67832  24.660  15.924   4.477
66969W        W67833  24.849  15.772   4.033
66970W        W67834  24.997  17.620   4.580
66971W        W67835  24.716  17.111   5.304
66972W        W67836  24.442  16.344   4.316
66973W        W67837  24.015  16.530   5.343
66974W        W67838  25.038  16.243   5.340
66975W        W67839  22.384  15.328   5.918
66976W        W67840  24.892  16.442   6.617
66977W        W67841  25.408  17.939   5.746
66978W        W67842  23.294  17.518   5.175
66979W        W67843  24.475  18.080   6.288
66980W        W67844  24.249  15.361   6.161
66981W        W67845  23.560  18.175   6.205
66982W        W67846  25.095  15.001   4.684
66983W        W67847  25.095  16.239   5.865
66984W        W67848  22.037  15.604   6.189
66985W        W67849  24.824  15.458   5.217
66986W        W67850  25.075  15.606   6.604
66987W        W67851  24.175  17.269   5.191
66988W        W67852  23.456  17.900   4.861
66989W        W67853  22.512  15.012   4.033
66990W        W67854  23.592  14.724   5.798
66991W        W67855  22.493  18.157   3.859
66992W        W67856  23.312  16.454   4.243
66993W        W67857  23.709  17.050   6.753
66994W        W67858  23.616  15.225   4.698
66995W        W67859  24.787  14.693   5.011
66996W        W67860  24.626  18.108   5.376
66997W        W67861  24.064  17.871   5.624
66998W        W67862  23.415  16.874   5.785
66999W        W67863  25.176  17.561   6.059
67000W        W67864  22.746  14.957   4.541
67001W        W67865  23.303  17.389   5.680
67002W        W67866  22.729  15.317   3.566
67003W        W67867  23.738  16.006   5.931
67004W        W67868  24.512  14.711   5.853
67005W        W67869  21.932  16.645   6.052
67006W        W67870  23.592  16.357   3.819
67007W        W67871  22.791  14.812   3.642
67008W        W67872  23.677  15.775   4.743
67009W        W67873  24.417  14.902   6.357
67010W        W67874  23.240  16.874   6.642
67011W        W67875  24.025  16.689   6.987
67012W        W67876  24.518  16.807   6.864
67013W        W67877  23.799  14.903   7.285
67014W        W67878  23.023  15.309   5.558
67015W        W67879  22.799  15.449   5.115
67016W        W67880  22.234  17.953   4.904
67017W        W67881  23.821  17.577   6.767
67018W        W67882  22.995  16.778   3.959
67019W        W67883  24.539  16.428   5.421
67020W        W67884  24.628  16.058   5.797
67021W        W67885  23.901  16.720   5.881
67022W        W67886  24.294  17.098   3.657
67023W        W67887  24.048  15.032   5.084
67024W        W67888  25.382  15.378   4.442
67025W        W67889  22.052  17.949   6.661
67026W        W67890  22.195  17.076   6.161
67027W        W67891  21.939  18.150   4.536
67028W        W67892  23.785  15.165   6.014
67029W        W67893  22.949  17.648   4.165
67030W        W67894  25.328  17.743   4.178
67031W        W67895  24.076  16.342   3.970
67032W        W67896  23.100  15.317   4.695
67033W        W67897  23.979  15.409   3.815
67034W        W67898  24.175  17.211   6.865
67035W        W67899  24.666  14.986   4.391
67036W        W67900  21.954  14.723   3.952
67037W        W67901  23.215  17.206   6.152
67038W        W67902  23.197  17.031   5.332
67039W        W67903  23.009  17.309   3.765
67040W        W67904  21.994  17.620   4.573
67041W        W67905  22.648  16.243   6.746
67042W        W67906  23.072  14.731   7.104
67043W        W67907  23.934  14.989   6.453
67044W        W67908  23.200  14.765   4.843
67045W        W67909  24.045  14.588   4.230
67046W        W67910  22.268  14.836   5.809
67047W        W67911  22.258  15.535   5.216
67048W        W67912  24.996  14.741   5.646
67049W        W67913  22.163  15.146   4.381
67050W        W67914  24.869  14.991   6.096
67051W        W67915  25.184  16.056   3.748
67052W        W67916  22.529  15.142   5.466
67053W        W67917  23.813  15.532   6.420
67054W        W67918  21.808  15.220   3.966
67055W        W67919  22.755  16.738   6.567
67056W        W67920  24.143  16.085   5.585
67057W        W67921  23.862  18.178   4.037
67058W        W67922  21.856  16.424   3.516
67059W        W67923  22.863  17.261   6.747
67060W        W67924  22.282  16.084   6.409
67061W        W67925  23.519  16.433   6.128
67062W        W67926  24.893  14.708   6.520
67063W        W67927  25.422  16.461   6.544
67064W        W67928  25.364  16.382   4.379
67065W        W67929  24.256  16.805   4.126
67066W        W67930  24.700  18.045   3.684
67067W        W67931  23.936  16.249   7.269
67068W        W67932  22.468  17.300   7.152
67069W        W67933  25.570  15.179   7.191
67070W        W67934  25.018  15.777   5.597
67071W        W67935  23.355  18.112   7.073
67072W        W67936  23.351  14.729   3.900
67073W        W67937  25.043  17.074   3.812
67074W        W67938  22.842  15.473   6.772
67075W        W67939  23.351  17.398   6.600
67076W        W67940  25.246  15.172   6.387
67077W        W67941  24.884  18.043   4.172
67078W        W67942  24.759  16.793   5.788
67079W        W67943  22.936  15.149   6.373
67080W        W67944  23.481  16.212   6.991
67081W        W67945  22.928  17.177   4.883
67082W        W67946  24.565  16.768   4.574
67083W        W67947  22.473  15.424   6.416
67084W        W67948  23.760  17.480   4.902
67085W        W67949  25.365  15.856   5.220
67086W        W67950  23.615  14.774   6.817
67087W        W67951  24.644  17.323   5.783
67088W        W67952  24.973  17.691   5.600
67089W        W67953  23.841  17.689   3.844
67090W        W67954  21.994  17.272   6.934
67091W        W67955  22.913  15.531   6.016
67092W        W67956  22.780  14.909   5.092
67093W        W67957  24.520  15.554   5.739
67094W        W67958  23.441  16.981   3.837
67095W        W67959  25.260  16.690   5.658
67096W        W67960  22.435  17.615   6.749
67097W        W67961  25.093  18.153   4.635
67098W        W67962  23.287  15.164   5.142
67099W        W67963  22.559  16.547   5.582
67100W        W67964  23.206  18.170   5.838
67101W        W67965  25.041  18.258   6.926
67102W        W67966  24.346  16.480   5.904
67103W        W67967  22.041  15.983   3.707
67104W        W67968  25.397  17.786   4.871
67105W        W67969  24.986  15.288   4.105
67106W        W67970  23.135  14.707   6.585
67107W        W67971  25.018  17.489   5.104
67108W        W67972  24.943  15.898   4.928
67109W        W67973  23.284  15.687   5.099
67110W        W67974  23.572  16.009   6.432
67111W        W67975  24.509  17.181   6.481
67112W        W67976  23.239  15.588   6.452
67113W        W67977  23.096  18.045   5.219
67114W        W67978  22.413  18.147   6.974
67115W        W67979  22.544  17.656   3.671
67116W        W67980  24.915  17.104   4.748
67117W        W67981  22.778  15.842   6.424
67118W        W67982  25.372  15.650   4.000
67119W        W67983  23.286  16.979   4.364
67120W        W67984  24.372  16.355   6.718
67121W        W67985  24.219  15.868   6.050
67122W        W67986  22.735  16.308   6.234
67123W        W67987  24.949  18.058   6.006
67124W        W67988  24.662  14.996   7.055
67125W        W67989  22.216  14.833   6.739
67126W        W67990  22.802  16.124   5.750
67127W        W67991  23.352  15.855   3.684
67128W        W67992  21.959  17.434   6.450
67129W        W67993  23.585  16.388   5.619
67130W        W67994  23.497  15.236   3.770
67131W        W67995  22.398  15.957   4.963
67132W        W67996  22.080  18.101   6.174
67133W        W67997  24.921  16.263   4.145
67134W        W67998  25.143  15.144   6.899
67135W        W67999  24.544  17.431   4.867
67136W        W68000  22.102  16.221   6.878
67137W        W68001  25.115  14.792   4.169
67138W        W68002  24.679  17.133   4.197
67139W        W68003  23.783  16.236   4.396
67140W        W68004  24.701  14.948   3.840
67141W        W68005  24.670  15.671   6.265
67142W        W68006  22.348  16.083   5.467
67143W        W68007  22.698  16.896   5.252
67144W        W68008  24.502  15.668   4.874
67145W        W68009  23.552  15.231   5.571
67146W        W68010  25.433  17.069   6.118
67147W        W68011  25.438  15.160   5.886
67148W        W68012  21.957  17.902   5.332
67149W        W68013  21.845  17.105   4.695
67150W        W68014  22.201  14.899   7.256
67151W        W68015  23.102  17.660   6.970
67152W        W68016  25.490  16.582   5.213
67153W        W68017  24.705  16.673   3.916
67154W        W68018  24.038  18.208   6.012
67155W        W68019  24.816  16.858   7.283
67156W        W68020  23.536  14.499   4.347
67157W        W68021  24.295  15.432   5.288
67158W        W68022  21.888  17.017   5.628
67159W        W68023  23.264  14.932   4.375
67160W        W68024  23.056  16.495   6.980
67161W        W68025  24.074  15.445   4.777
67162W        W68026  24.293  17.026   6.042
67163W        W68027  22.372  17.662   6.242
67164W        W68028  22.670  17.779   7.198
67165W        W68029  23.026  15.143   3.966
67166W        W68030  24.409  15.436   4.385
67167W        W68031  24.334  17.656   6.600
67168W        W68032  23.297  16.211   5.212
67169W        W68033  22.733  17.980   6.031
67170W        W68034  25.222  18.015   3.745
67171W        W68035  22.074  16.743   6.909
67172W        W68036  24.309  16.898   5.553
67173W        W68037  23.092  16.662   4.964
67174W        W68038  23.187  17.723   6.104
67175W        W68039  23.627  14.791   5.274
67176W        W68040  21.631  16.875   4.274
67177W        W68041  23.837  15.898   3.870
67178W        W68042  22.117  16.399   5.059
67179W        W68043  23.456  15.117   6.430
67180W        W68044  25.167  14.853   3.647
67181W        W68045  25.213  16.645   6.987
67182W        W68046  23.892  18.024   7.014
67183W        W68047  25.468  17.007   6.639
67184W        W68048  24.866  17.759   7.050
67185W        W68049  22.756  18.246   5.587
67186W        W68050  25.264  16.739   4.773
67187W        W68051  24.090  15.872   5.107
67188W        W68052  23.746  14.731   4.768
67189W        W68053  22.905  17.682   4.903
67190W        W68054  23.471  15.575   5.989
67191W        W68055  23.150  14.803   5.534
67192W        W68056  22.186  17.845   4.142
67193W        W68057  23.901  16.925   4.936
67194W        W68058  22.861  17.716   6.489
67195W        W68059  21.755  16.589   4.719
67196W        W68060  22.014  15.206   5.525
67197W        W68061  23.803  17.019   5.464
67198W        W68062  21.827  14.805   4.581
67199W        W68063  24.573  16.188   6.282
67200W        W68064  24.518  15.431   3.857
67201W        W68065  25.122  17.188   5.695
67202W        W68066  23.748  17.524   5.415
67203W        W68067  23.083  17.993   4.517
67204W        W68068  24.301  14.606   3.708
67205W        W68069  22.302  17.911   5.734
67206W        W68070  24.030  15.685   7.001
67207W        W68071  22.386  15.286   6.952
67208W        W68072  22.019  15.651   4.745
67209W        W68073  23.436  15.928   4.203
67210W        W68074  24.394  16.019   7.124
67211W        W68075  23.078  16.563   5.537
67212W        W68076  24.276  14.598   4.918
67213W        W68077  23.635  18.033   5.334
67214W        W68078  24.686  17.598   6.226
67215W        W68079  24.533  17.601   5.355
67216W        W68080  24.377  16.778   5.055
67217W        W68081  23.745  15.023   4.201
67218W        W68082  25.396  14.646   4.910
67219W        W68083  23.112  16.364   3.646
67220W        W68084  25.259  15.438   4.939
67221W        W68085  23.893  16.770   3.730
67222W        W68086  24.954  16.941   6.636
67223W        W68087  24.894  17.572   3.941
67224W        W68088  23.241  15.170   6.880
67225W        W68089  23.171  16.003   6.102
67226W        W68090  25.055  17.445   6.590
67227W        W68091  24.255  15.335   6.673
67228W        W68092  21.904  15.814   6.623
67229W        W68093  24.023  16.302   6.289
67230W        W68094  22.161  17.001   5.186
67231W        W68095  22.303  16.305   5.947
67232W        W68096  24.592  16.706   6.309
67233W        W68097  24.525  18.105   6.832
67234W        W68098  24.267  15.834   6.556
67235W        W68099  24.764  17.898   4.942
67236W        W68100  23.664  17.659   6.284
67237W        W68101  22.980  17.771   5.624
67238W        W68102  24.912  17.129   6.168
67239W        W68103  23.799  17.163   7.243
67240W        W68104  22.394  17.035   5.668
67241W        W68105  24.873  16.658   5.083
67242W        W68106  24.529  17.846   5.811
67243W        W68107  22.606  17.486   5.823
67244W        W68108  23.548  15.714   6.855
67245W        W68109  23.698  17.743   4.414
67246W        W68110  23.302  17.187   7.073
67247W        W68111  23.277  17.486   4.588
67248W        W68112  22.527  15.818   3.382
67249W        W68113  21.837  18.407  10.756
67250W        W68114  22.460  17.218  10.277
67251W        W68115  25.156  16.672   8.040
67252W        W68116  25.299  17.934  10.049
67253W        W68117  23.129  17.840   7.470
67254W        W68118  23.410  16.148   8.295
67255W        W68119  22.835  16.014   9.069
67256W        W68120  23.788  16.476   8.126
67257W        W68121  23.348  17.936  10.221
67258W        W68122  22.016  15.340  10.350
67259W        W68123  22.722  14.614  10.195
67260W        W68124  24.470  15.268   9.019
67261W        W68125  24.084  15.808   7.498
67262W        W68126  24.746  15.422  10.592
67263W        W68127  22.146  15.036   9.948
67264W        W68128  22.095  17.970  10.822
67265W        W68129  23.393  17.353   7.594
67266W        W68130  22.095  15.741   9.387
67267W        W68131  23.154  15.962  10.470
67268W        W68132  25.206  15.421   9.300
67269W        W68133  25.206  16.679   9.915
67270W        W68134  23.673  15.938   8.838
67271W        W68135  24.160  17.441   9.284
67272W        W68136  22.469  16.699   9.648
67273W        W68137  21.824  16.201   9.305
67274W        W68138  23.145  16.368  10.100
67275W        W68139  25.284  16.135  10.506
67276W        W68140  22.764  17.380   8.990
67277W        W68141  23.976  17.293  10.036
67278W        W68142  23.320  15.910   9.263
67279W        W68143  23.403  16.748   8.916
67280W        W68144  24.282  17.579  10.780
67281W        W68145  23.590  16.702  10.778
67282W        W68146  23.648  16.513  10.250
67283W        W68147  21.583  15.536  10.576
67284W        W68148  24.715  17.340  10.539
67285W        W68149  22.283  14.748   8.503
67286W        W68150  22.892  17.285   9.478
67287W        W68151  25.326  16.936   8.943
67288W        W68152  24.720  15.439   9.449
67289W        W68153  24.995  15.383   7.333
67290W        W68154  25.710  16.136   9.802
67291W        W68155  23.418  17.649   9.466
67292W        W68156  25.364  17.126   8.123
67293W        W68157  22.216  18.067   7.992
67294W        W68158  22.631  18.111   8.458
67295W        W68159  22.648  14.941   9.788
67296W        W68160  25.196  16.087   9.968
67297W        W68161  24.626  16.266   8.658
67298W        W68162  24.593  16.105   7.606
67299W        W68163  23.778  17.291   9.561
67300W        W68164  23.632  15.411   8.773
67301W        W68165  24.207  17.649   9.770
67302W        W68166  25.113  16.335   8.439
67303W        W68167  24.032  15.017   8.135
67304W        W68168  22.513  17.681   8.159
67305W        W68169  21.922  15.109   8.724
67306W        W68170  24.592  15.807   8.982
67307W        W68171  22.267  17.458   9.138
67308W        W68172  23.432  17.772   7.904
67309W        W68173  24.893  15.882   7.215
67310W        W68174  22.058  17.579   9.593
67311W        W68175  22.890  17.193  10.000
67312W        W68176  23.414  16.790   8.399
67313W        W68177  23.135  15.007   9.608
67314W        W68178  25.502  14.727   9.238
67315W        W68179  22.839  16.928   7.126
67316W        W68180  22.323  15.387   7.447
67317W        W68181  22.345  17.499   8.631
67318W        W68182  23.061  17.094   8.682
67319W        W68183  24.843  17.853  10.301
67320W        W68184  23.860  15.496   7.865
67321W        W68185  25.163  18.053   8.958
67322W        W68186  24.839  15.930  10.337
67323W        W68187  25.504  17.286   8.618
67324W        W68188  24.169  16.776  10.102
67325W        W68189  21.964  16.311   8.496
67326W        W68190  23.013  16.752   9.724
67327W        W68191  24.225  15.833   7.984
67328W        W68192  24.173  16.427   8.484
67329W        W68193  22.374  15.842   9.902
67330W        W68194  22.448  15.793  10.414
67331W        W68195  22.281  14.795   9.000
67332W        W68196  23.965  15.190   9.128
67333W        W68197  23.896  15.219  10.405
67334W        W68198  24.125  15.122   7.652
67335W        W68199  25.354  17.749  10.514
67336W        W68200  24.162  14.767  10.481
67337W        W68201  25.230  17.251  10.649
67338W        W68202  24.847  15.305  10.085
67339W        W68203  24.489  15.337   8.519
67340W        W68204  24.949  16.374  10.827
67341W        W68205  22.552  17.860   8.922
67342W        W68206  23.365  15.505   7.722
67343W        W68207  22.778  14.970  10.574
67344W        W68208  24.950  15.410   8.315
67345W        W68209  25.245  15.837   8.157
67346W        W68210  22.958  17.933  10.722
67347W        W68211  22.720  14.619   7.891
67348W        W68212  25.338  15.103   8.906
67349W        W68213  25.327  17.553   7.324
67350W        W68214  22.133  16.607   9.260
67351W        W68215  24.249  15.276   7.199
67352W        W68216  25.423  17.592   9.132
67353W        W68217  25.427  14.712   9.780
67354W        W68218  24.029  16.064  10.322
67355W        W68219  23.685  17.194   8.191
67356W        W68220  24.475  16.538  10.953
67357W        W68221  24.255  14.789   8.982
67358W        W68222  22.527  15.591   9.120
67359W        W68223  22.166  16.893  10.008
67360W        W68224  24.123  17.836   8.926
67361W        W68225  25.214  15.566   9.820
67362W        W68226  24.008  18.052  10.179
67363W        W68227  25.106  16.483   7.515
67364W        W68228  23.681  16.409   8.637
67365W        W68229  25.489  14.716  10.316
67366W        W68230  23.703  16.874   9.875
67367W        W68231  23.744  15.632   9.237
67368W        W68232  24.717  15.783   8.074
67369W        W68233  25.036  15.783   7.683
67370W        W68234  25.046  17.499   8.302
67371W        W68235  24.750  17.085   8.991
67372W        W68236  24.484  16.245   8.130
67373W        W68237  24.009  16.584   8.970
67374W        W68238  24.922  16.224   9.117
67375W        W68239  22.417  15.381   9.604
67376W        W68240  24.933  16.442  10.294
67377W        W68241  25.429  18.022   9.419
67378W        W68242  23.245  17.585   8.843
67379W        W68243  24.498  18.065   9.969
67380W        W68244  24.355  15.383   9.830
67381W        W68245  23.609  18.263   9.869
67382W        W68246  25.299  15.053   8.388
67383W        W68247  24.907  16.366   9.629
67384W        W68248  21.988  15.516   9.861
67385W        W68249  24.935  15.439   8.860
67386W        W68250  25.208  15.570  10.364
67387W        W68251  24.143  17.265   8.801
67388W        W68252  23.465  17.932   8.539
67389W        W68253  22.297  14.954   7.764
67390W        W68254  23.827  14.733   9.335
67391W        W68255  22.344  18.065   7.477
67392W        W68256  23.292  16.552   7.953
67393W        W68257  23.752  16.991  10.371
67394W        W68258  23.576  15.105   8.357
67395W        W68259  24.852  14.980   8.647
67396W        W68260  24.665  18.144   9.031
67397W        W68261  23.890  17.885   9.405
67398W        W68262  23.440  16.797   9.426
67399W        W68263  25.219  17.587   9.676
67400W        W68264  22.691  14.969   8.273
67401W        W68265  23.321  17.226   9.183
67402W        W68266  22.833  15.237   7.220
67403W        W68267  23.703  15.935   9.647
67404W        W68268  24.323  15.028   9.455
67405W        W68269  21.927  16.551   9.712
67406W        W68270  23.500  16.383   7.512
67407W        W68271  22.686  14.811   7.418
67408W        W68272  23.912  16.003   8.379
67409W        W68273  24.571  14.897   9.888
67410W        W68274  23.272  16.878  10.177
67411W        W68275  24.069  16.624  10.587
67412W        W68276  24.553  16.794  10.466
67413W        W68277  23.753  14.817  10.804
67414W        W68278  23.024  15.472   9.263
67415W        W68279  22.432  15.220   8.730
67416W        W68280  22.155  17.960   8.499
67417W        W68281  23.863  17.557  10.462
67418W        W68282  22.741  17.090   7.770
67419W        W68283  24.480  16.464   9.113
67420W        W68284  24.552  16.033   9.449
67421W        W68285  23.929  16.670   9.469
67422W        W68286  24.324  17.029   7.314
67423W        W68287  24.033  15.101   8.642
67424W        W68288  25.551  15.408   8.106
67425W        W68289  22.172  17.957  10.285
67426W        W68290  22.450  17.227   9.740
67427W        W68291  21.698  17.998   7.990
67428W        W68292  23.882  15.299   9.619
67429W        W68293  22.965  17.550   7.889
67430W        W68294  25.257  17.552   7.835
67431W        W68295  24.135  16.307   7.752
67432W        W68296  23.539  15.637   8.260
67433W        W68297  23.750  15.405   7.367
67434W        W68298  24.214  17.170  10.470
67435W        W68299  24.811  14.959   8.113
67436W        W68300  21.888  14.630   7.584
67437W        W68301  23.317  17.192   9.728
67438W        W68302  22.980  16.851   9.203
67439W        W68303  22.929  17.372   7.381
67440W        W68304  21.988  17.607   8.156
67441W        W68305  22.696  16.256  10.352
67442W        W68306  23.218  14.726  10.530
67443W        W68307  24.050  14.946   9.973
67444W        W68308  23.168  14.765   8.492
67445W        W68309  24.409  14.738   7.878
67446W        W68310  22.231  14.882   9.488
67447W        W68311  22.095  15.626   8.802
67448W        W68312  24.888  14.998   9.170
67449W        W68313  22.148  15.163   8.242
67450W        W68314  25.038  15.062   9.662
67451W        W68315  25.371  16.047   7.362
67452W        W68316  22.668  15.082   9.243
67453W        W68317  23.839  15.594  10.051
67454W        W68318  21.849  15.151   7.563
67455W        W68319  22.678  16.726  10.122
67456W        W68320  24.065  16.168   9.368
67457W        W68321  23.619  18.085   7.509
67458W        W68322  21.698  16.238   7.349
67459W        W68323  23.007  17.530  10.368
67460W        W68324  22.285  16.359  10.032
67461W        W68325  23.497  16.404   9.735
67462W        W68326  25.007  14.713  10.102
67463W        W68327  25.570  16.435  10.191
67464W        W68328  25.453  16.263   7.853
67465W        W68329  24.252  16.724   8.071
67466W        W68330  24.746  18.173   7.344
67467W        W68331  24.100  16.163  10.843
67468W        W68332  22.491  17.204  10.784
67469W        W68333  25.536  15.050  10.796
67470W        W68334  25.047  15.882   9.468
67471W        W68335  23.393  18.183  10.826
67472W        W68336  23.202  14.660   7.653
67473W        W68337  25.180  17.020   7.622
67474W        W68338  22.919  15.459  10.456
67475W        W68339  23.462  17.392  10.171
67476W        W68340  25.360  15.142  10.052
67477W        W68341  24.914  17.956   7.809
67478W        W68342  24.743  16.820   9.430
67479W        W68343  23.029  15.066  10.131
67480W        W68344  23.623  16.187  10.641
67481W        W68345  22.775  17.243   8.269
67482W        W68346  24.720  16.660   8.316
67483W        W68347  22.518  15.350  10.132
67484W        W68348  23.558  17.200   8.697
67485W        W68349  25.250  15.862   8.987
67486W        W68350  23.677  14.754  10.307
67487W        W68351  24.625  17.329   9.441
67488W        W68352  24.934  17.723   9.273
67489W        W68353  23.559  17.647   7.204
67490W        W68354  22.071  17.486  10.589
67491W        W68355  22.905  15.427   9.781
67492W        W68356  22.740  14.814   8.779
67493W        W68357  24.242  15.609   9.354
67494W        W68358  23.207  16.872   7.505
67495W        W68359  25.243  16.724   9.396
67496W        W68360  22.544  17.674  10.536
67497W        W68361  25.032  18.171   8.315
67498W        W68362  23.148  15.188   8.812
67499W        W68363  22.627  16.469   9.209
67500W        W68364  23.226  18.135   9.510
67501W        W68365  25.062  18.221  10.593
67502W        W68366  24.381  16.509   9.610
67503W        W68367  22.225  15.937   7.302
67504W        W68368  25.366  17.783   8.573
67505W        W68369  25.115  15.281   7.831
67506W        W68370  23.250  14.608  10.023
67507W        W68371  25.055  17.441   8.826
67508W        W68372  24.930  15.865   8.568
67509W        W68373  23.203  15.712   8.804
67510W        W68374  23.547  16.029  10.126
67511W        W68375  24.528  17.199  10.073
67512W        W68376  23.290  15.568  10.114
67513W        W68377  23.025  18.062   8.807
67514W        W68378  22.508  18.191  10.606
67515W        W68379  22.498  17.575   7.640
67516W        W68380  25.041  17.021   8.513
67517W        W68381  22.842  15.834  10.086
67518W        W68382  25.469  15.554   7.542
67519W        W68383  23.207  17.082   8.002
67520W        W68384  24.474  16.292  10.496
67521W        W68385  24.198  15.878   9.801
67522W        W68386  22.750  16.285   9.795
67523W        W68387  24.959  18.054   9.670
67524W        W68388  24.644  14.882  10.660
67525W        W68389  22.302  14.907  10.410
67526W        W68390  22.728  15.838   9.534
67527W        W68391  23.211  15.580   7.211
67528W        W68392  22.044  17.433  10.074
67529W        W68393  23.608  16.343   9.206
67530W        W68394  23.313  15.095   7.389
67531W        W68395  22.863  16.609   8.769
67532W        W68396  22.226  18.066   9.786
67533W        W68397  24.956  16.219   7.953
67534W        W68398  25.111  15.065  10.484
67535W        W68399  24.608  17.290   8.531
67536W        W68400  22.162  16.230  10.522
67537W        W68401  25.273  14.792   7.928
67538W        W68402  24.842  17.089   8.027
67539W        W68403  23.743  16.002   7.881
67540W        W68404  24.660  15.089   7.590
67541W        W68405  24.730  15.760   9.858
67542W        W68406  22.250  16.100   9.018
67543W        W68407  22.535  17.022   8.687
67544W        W68408  24.402  15.846   8.479
67545W        W68409  23.469  15.173   9.244
67546W        W68410  25.451  17.120   9.735
67547W        W68411  25.564  15.159   9.550
67548W        W68412  21.921  17.772   8.913
67549W        W68413  22.260  17.178   8.249
67550W        W68414  22.397  14.909  10.947
67551W        W68415  23.412  17.685  10.663
67552W        W68416  25.362  16.396   8.900
67553W        W68417  24.674  16.622   7.772
67554W        W68418  24.097  18.266   9.692
67555W        W68419  24.906  16.894  10.825
67556W        W68420  23.498  14.649   8.111
67557W        W68421  24.111  15.597   8.840
67558W        W68422  22.054  17.054   9.491
67559W        W68423  23.164  15.031   8.027
67560W        W68424  23.160  16.502  10.586
67561W        W68425  24.031  15.502   8.339
67562W        W68426  24.245  17.048   9.673
67563W        W68427  22.519  17.663  10.005
67564W        W68428  22.971  17.440  10.884
67565W        W68429  22.765  15.190   7.745
67566W        W68430  24.441  15.341   8.003
67567W        W68431  24.352  17.645  10.265
67568W        W68432  23.241  16.249   8.854
67569W        W68433  22.742  18.077   9.721
67570W        W68434  25.242  18.050   7.372
67571W        W68435  22.287  16.749  10.481
67572W        W68436  24.302  16.947   9.189
67573W        W68437  22.908  16.753   8.276
67574W        W68438  23.053  17.672   9.844
67575W        W68439  23.592  14.874   8.843
67576W        W68440  21.749  16.595   8.110
67577W        W68441  23.582  15.886   7.389
67578W        W68442  22.309  16.574   8.795
67579W        W68443  23.532  15.119   9.970
67580W        W68444  25.187  14.912   7.429
67581W        W68445  25.319  16.666  10.581
67582W        W68446  23.885  18.029  10.694
67583W        W68447  25.539  16.988  10.224
67584W        W68448  24.932  17.754  10.810
67585W        W68449  22.727  18.230   9.230
67586W        W68450  25.461  16.736   8.493
67587W        W68451  24.169  16.102   8.873
67588W        W68452  23.879  14.632   8.481
67589W        W68453  22.838  17.649   8.556
67590W        W68454  23.402  15.510   9.624
67591W        W68455  23.141  14.781   9.120
67592W        W68456  21.993  17.741   7.653
67593W        W68457  23.918  16.867   8.538
67594W        W68458  22.823  18.001  10.231
67595W        W68459  22.383  16.681   8.301
67596W        W68460  22.139  15.262   9.170
67597W        W68461  23.800  17.030   9.117
67598W        W68462  21.773  14.878   8.024
67599W        W68463  24.539  16.215   9.997
67600W        W68464  24.552  15.592   7.526
67601W        W68465  25.123  17.223   9.319
67602W        W68466  23.718  17.539   9.051
67603W        W68467  23.062  17.962   8.208
67604W        W68468  24.292  14.747   7.355
67605W        W68469  22.219  17.983   9.279
67606W        W68470  24.064  15.653  10.655
67607W        W68471  22.436  15.348  10.663
67608W        W68472  21.620  15.929   8.324
67609W        W68473  23.246  16.018   7.806
67610W        W68474  24.513  15.849  10.729
67611W        W68475  23.106  16.365   9.382
67612W        W68476  24.411  14.812   8.433
67613W        W68477  23.478  18.004   9.066
67614W        W68478  24.729  17.621   9.846
67615W        W68479  24.554  17.560   8.974
67616W        W68480  24.422  16.810   8.707
67617W        W68481  23.629  15.040   7.790
67618W        W68482  25.586  14.706   8.654
67619W        W68483  23.098  16.088   7.317
67620W        W68484  25.365  15.544   8.583
67621W        W68485  23.908  16.717   7.504
67622W        W68486  24.999  16.961  10.290
67623W        W68487  24.848  17.379   7.436
67624W        W68488  23.390  15.202  10.489
67625W        W68489  23.189  15.976   9.750
67626W        W68490  25.114  17.440  10.168
67627W        W68491  24.399  15.177  10.300
67628W        W68492  21.962  15.843  10.251
67629W        W68493  23.980  16.338   9.883
67630W        W68494  22.069  17.025   8.960
67631W        W68495  22.324  16.200   9.522
67632W        W68496  24.676  16.724   9.954
67633W        W68497  24.455  18.046  10.589
67634W        W68498  24.388  15.692  10.249
67635W        W68499  24.811  17.841   8.631
67636W        W68500  23.709  17.739   9.884
67637W        W68501  22.982  17.776   9.240
67638W        W68502  24.949  17.130   9.792
67639W        W68503  23.861  17.149  10.846
67640W        W68504  22.500  16.999   9.230
67641W        W68505  24.915  16.642   8.828
67642W        W68506  24.442  17.863   9.389
67643W        W68507  22.558  17.670   9.491
67644W        W68508  23.591  15.682  10.510
67645W        W68509  23.843  17.597   8.536
67646W        W68510  23.364  17.180  10.626
67647W        W68511  23.270  17.479   8.333
67648W        W68512  22.709  15.740   7.198
67649W        W68513  21.903  18.218  14.368
67650W        W68514  22.345  17.126  13.965
67651W        W68515  25.261  16.678  11.645
67652W        W68516  25.280  17.893  13.621
67653W        W68517  22.839  17.894  11.220
67654W        W68518  23.282  16.265  12.223
67655W        W68519  22.836  15.697  12.464
67656W        W68520  23.910  16.634  11.621
67657W        W68521  23.404  17.844  14.028
67658W        W68522  21.956  15.334  14.007
67659W        W68523  22.514  14.510  13.841
67660W        W68524  24.532  15.135  12.585
67661W        W68525  24.225  15.760  11.156
67662W        W68526  24.708  15.488  14.151
67663W        W68527  22.068  14.993  13.623
67664W        W68528  22.081  17.791  14.597
67665W        W68529  23.430  17.287  11.130
67666W        W68530  22.176  15.762  13.072
67667W        W68531  23.082  15.952  14.229
67668W        W68532  25.299  15.602  12.696
67669W        W68533  25.202  16.667  13.443
67670W        W68534  23.635  16.120  12.566
67671W        W68535  24.148  17.408  12.939
67672W        W68536  22.532  16.676  13.298
67673W        W68537  21.772  16.149  12.940
67674W        W68538  23.045  16.356  13.889
67675W        W68539  25.262  16.081  14.112
67676W        W68540  22.765  17.378  12.712
67677W        W68541  24.018  17.237  13.614
67678W        W68542  23.069  15.673  12.942
67679W        W68543  23.337  16.526  12.701
67680W        W68544  24.293  17.567  14.350
67681W        W68545  23.709  16.727  14.428
67682W        W68546  23.545  16.549  13.926
67683W        W68547  21.810  15.672  14.390
67684W        W68548  24.706  17.307  14.121
67685W        W68549  22.428  14.838  11.985
67686W        W68550  22.859  17.093  13.238
67687W        W68551  25.427  16.927  12.544
67688W        W68552  24.881  15.335  12.901
67689W        W68553  25.173  15.394  10.888
67690W        W68554  25.519  16.109  13.316
67691W        W68555  23.457  17.793  13.132
67692W        W68556  25.439  17.176  11.733
67693W        W68557  22.302  18.194  11.735
67694W        W68558  22.689  18.123  12.084
67695W        W68559  22.569  14.895  13.504
67696W        W68560  25.153  15.951  13.623
67697W        W68561  24.608  16.312  12.277
67698W        W68562  24.648  16.089  11.145
67699W        W68563  23.699  17.296  13.213
67700W        W68564  23.872  15.668  12.511
67701W        W68565  24.077  17.693  13.396
67702W        W68566  25.011  16.333  11.950
67703W        W68567  24.094  15.198  11.822
67704W        W68568  22.506  17.713  11.822
67705W        W68569  21.923  15.171  12.305
67706W        W68570  24.816  15.825  12.780
67707W        W68571  22.263  17.470  12.813
67708W        W68572  23.323  17.792  11.153
67709W        W68573  25.014  15.864  10.832
67710W        W68574  22.057  17.558  13.269
67711W        W68575  22.807  17.204  13.715
67712W        W68576  22.937  16.616  12.375
67713W        W68577  22.916  15.107  13.182
67714W        W68578  25.413  14.756  12.750
67715W        W68579  22.890  17.022  10.502
67716W        W68580  22.290  15.369  11.172
67717W        W68581  22.329  17.483  12.306
67718W        W68582  23.054  17.127  12.355
67719W        W68583  24.838  17.815  13.893
67720W        W68584  23.839  15.607  11.625
67721W        W68585  25.219  18.084  12.539
67722W        W68586  24.785  15.956  13.973
67723W        W68587  25.603  17.307  12.232
67724W        W68588  24.192  16.759  13.657
67725W        W68589  21.892  16.211  12.137
67726W        W68590  23.011  16.710  13.519
67727W        W68591  24.306  15.895  11.643
67728W        W68592  24.247  16.342  11.907
67729W        W68593  22.359  15.830  13.536
67730W        W68594  22.335  15.731  14.037
67731W        W68595  22.238  14.782  12.466
67732W        W68596  24.022  15.318  12.867
67733W        W68597  23.713  15.229  14.156
67734W        W68598  24.096  15.279  11.289
67735W        W68599  25.310  17.771  14.154
67736W        W68600  24.124  14.844  14.157
67737W        W68601  25.188  17.221  14.266
67738W        W68602  24.518  15.331  12.086
67739W        W68603  24.882  16.346  14.321
67740W        W68604  22.546  17.850  12.591
67741W        W68605  23.467  15.396  11.319
67742W        W68606  22.686  14.955  14.022
67743W        W68607  24.962  15.458  11.869
67744W        W68608  25.263  15.914  11.771
67745W        W68609  22.941  18.055  14.239
67746W        W68610  22.779  14.602  11.518
67747W        W68611  25.272  15.154  12.459
67748W        W68612  25.412  17.582  11.005
67749W        W68613  22.048  16.609  12.886
67750W        W68614  24.275  15.212  10.808
67751W        W68615  25.455  17.462  12.716
67752W        W68616  25.353  14.729  13.405
67753W        W68617  23.950  16.060  13.993
67754W        W68618  23.531  17.020  11.782
67755W        W68619  24.347  16.789  14.471
67756W        W68620  24.112  14.838  12.667
67757W        W68621  22.561  15.508  12.859
67758W        W68622  22.125  16.753  13.637
67759W        W68623  24.050  17.734  12.485
67760W        W68624  25.117  15.712  13.176
67761W        W68625  24.037  18.013  13.808
67762W        W68626  25.342  16.604  11.095
67763W        W68627  23.783  16.393  12.117
67764W        W68628  25.449  14.798  13.908
67765W        W68629  23.720  16.818  13.479
67766W        W68630  23.624  15.665  12.958
67767W        W68631  24.807  15.827  11.554
67768W        W68632  25.222  15.719  11.282
67769W        W68633  25.097  17.396  12.048
67770W        W68634  24.408  17.014  12.705
67771W        W68635  24.643  16.313  11.599
67772W        W68636  23.842  16.607  12.578
67773W        W68637  24.842  16.324  12.733
67774W        W68638  22.340  15.273  13.248
67775W        W68639  24.975  16.398  13.813
67776W        W68640  25.427  17.901  13.011
67777W        W68641  23.216  17.571  12.557
67778W        W68642  24.494  17.994  13.532
67779W        W68643  24.247  15.406  13.490
67780W        W68644  23.593  18.127  13.525
67781W        W68645  25.239  15.027  11.850
67782W        W68646  24.968  16.252  13.242
67783W        W68647  21.968  15.497  13.508
67784W        W68648  24.884  15.485  12.395
67785W        W68649  25.185  15.571  13.960
67786W        W68650  23.960  17.132  12.501
67787W        W68651  23.384  17.798  12.131
67788W        W68652  22.370  14.925  11.468
67789W        W68653  23.737  14.887  13.025
67790W        W68654  22.411  18.167  11.183
67791W        W68655  23.428  16.492  11.752
67792W        W68656  23.692  17.039  13.990
67793W        W68657  23.686  15.365  12.105
67794W        W68658  24.873  14.935  12.236
67795W        W68659  24.688  18.111  12.670
67796W        W68660  23.926  17.901  12.956
67797W        W68661  23.346  16.813  13.133
67798W        W68662  25.210  17.517  13.269
67799W        W68663  22.984  14.820  11.921
67800W        W68664  23.229  17.333  13.004
67801W        W68665  22.826  15.258  10.996
67802W        W68666  23.626  15.909  13.405
67803W        W68667  24.417  15.053  13.094
67804W        W68668  21.805  16.501  13.331
67805W        W68669  23.692  16.306  11.175
67806W        W68670  22.891  14.722  11.014
67807W        W68671  23.636  15.881  12.087
67808W        W68672  24.471  14.957  13.619
67809W        W68673  23.132  16.876  13.980
67810W        W68674  24.044  16.558  14.087
67811W        W68675  24.556  16.662  14.009
67812W        W68676  23.749  14.880  14.544
67813W        W68677  22.941  15.229  12.668
67814W        W68678  22.454  15.250  12.418
67815W        W68679  22.180  17.992  12.197
67816W        W68680  23.881  17.535  14.022
67817W        W68681  24.345  16.486  12.715
67818W        W68682  24.498  16.121  13.059
67819W        W68683  23.735  16.440  13.065
67820W        W68684  24.401  17.045  10.926
67821W        W68685  24.102  15.243  12.354
67822W        W68686  25.465  15.446  11.674
67823W        W68687  22.075  17.891  14.002
67824W        W68688  22.362  17.155  13.444
67825W        W68689  21.797  18.067  11.774
67826W        W68690  23.759  15.318  13.325
67827W        W68691  23.017  17.448  11.416
67828W        W68692  25.282  17.705  11.660
67829W        W68693  24.196  16.285  11.332
67830W        W68694  23.315  15.516  11.799
67831W        W68695  23.742  15.316  10.890
67832W        W68696  24.212  17.097  14.079
67833W        W68697  24.702  14.983  11.748
67834W        W68698  22.004  14.626  11.266
67835W        W68699  23.313  17.134  13.534
67836W        W68700  22.961  16.887  12.798
67837W        W68701  23.118  16.893  10.965
67838W        W68702  21.996  17.598  11.914
67839W        W68703  22.577  16.216  14.069
67840W        W68704  23.274  14.685  14.571
67841W        W68705  23.954  15.012  13.703
67842W        W68706  23.398  14.669  12.173
67843W        W68707  24.209  14.807  11.507
67844W        W68708  22.113  14.815  13.152
67845W        W68709  22.123  15.654  12.566
67846W        W68710  24.927  14.858  12.751
67847W        W68711  22.118  15.248  11.822
67848W        W68712  24.891  14.898  13.259
67849W        W68713  25.452  16.107  11.018
67850W        W68714  22.535  14.943  12.868
67851W        W68715  23.822  15.583  13.780
67852W        W68716  21.865  15.106  11.370
67853W        W68717  22.606  16.698  13.815
67854W        W68718  24.020  16.019  12.894
67855W        W68719  23.727  18.120  11.220
67856W        W68720  21.793  16.495  10.812
67857W        W68721  22.819  17.227  14.211
67858W        W68722  22.171  16.251  13.744
67859W        W68723  23.392  16.385  13.452
67860W        W68724  24.926  14.755  13.765
67861W        W68725  25.516  16.415  13.764
67862W        W68726  25.604  16.336  11.460
67863W        W68727  24.393  16.751  11.454
67864W        W68728  24.760  18.215  11.014
67865W        W68729  24.070  16.359  14.563
67866W        W68730  22.376  17.173  14.487
67867W        W68731  25.526  15.137  14.327
67868W        W68732  25.288  16.093  12.844
67869W        W68733  23.422  18.065  14.487
67870W        W68734  23.295  14.641  11.393
67871W        W68735  25.235  17.090  11.223
67872W        W68736  22.803  15.445  14.147
67873W        W68737  23.282  17.364  13.986
67874W        W68738  25.196  15.180  13.619
67875W        W68739  24.838  18.129  11.534
67876W        W68740  24.754  16.769  13.002
67877W        W68741  22.947  15.241  13.690
67878W        W68742  23.622  16.231  14.339
67879W        W68743  22.651  17.209  11.988
67880W        W68744  24.651  16.708  11.927
67881W        W68745  22.440  15.335  13.753
67882W        W68746  23.538  17.302  12.249
67883W        W68747  25.549  16.051  12.404
67884W        W68748  23.592  14.735  14.060
67885W        W68749  24.726  17.305  12.994
67886W        W68750  24.990  17.698  12.804
67887W        W68751  23.799  17.635  11.007
67888W        W68752  21.974  17.422  14.246
67889W        W68753  22.754  15.572  13.345
67890W        W68754  22.763  14.818  12.400
67891W        W68755  24.430  15.597  13.043
67892W        W68756  23.527  16.794  11.296
67893W        W68757  25.228  16.596  12.921
67894W        W68758  22.458  17.595  14.170
67895W        W68759  25.113  18.164  11.992
67896W        W68760  23.225  15.149  12.239
67897W        W68761  22.568  16.535  12.774
67898W        W68762  23.157  18.227  13.226
67899W        W68763  25.015  18.211  14.189
67900W        W68764  24.227  16.522  13.214
67901W        W68765  22.048  15.689  10.754
67902W        W68766  25.423  17.790  12.151
67903W        W68767  25.040  15.247  11.400
67904W        W68768  23.082  14.735  13.691
67905W        W68769  24.999  17.244  12.537
67906W        W68770  25.037  15.993  12.350
67907W        W68771  23.364  15.566  12.515
67908W        W68772  23.452  16.039  13.866
67909W        W68773  24.544  17.120  13.694
67910W        W68774  23.284  15.559  13.929
67911W        W68775  23.014  18.038  12.498
67912W        W68776  22.438  18.079  14.336
67913W        W68777  22.425  17.648  11.040
67914W        W68778  25.105  16.888  12.105
67915W        W68779  22.811  15.816  13.805
67916W        W68780  25.702  15.835  11.431
67917W        W68781  23.049  16.851  11.914
67918W        W68782  24.400  16.267  13.694
67919W        W68783  24.143  15.911  13.390
67920W        W68784  22.668  16.251  13.540
67921W        W68785  24.934  17.990  13.225
67922W        W68786  24.586  15.035  14.355
67923W        W68787  22.194  14.866  14.116
67924W        W68788  22.661  16.001  13.055
67925W        W68789  23.253  15.543  10.865
67926W        W68790  21.945  17.395  13.738
67927W        W68791  23.358  16.102  12.999
67928W        W68792  23.307  15.017  10.978
67929W        W68793  22.572  16.247  12.330
67930W        W68794  22.105  18.035  13.508
67931W        W68795  25.104  16.224  11.382
67932W        W68796  25.054  15.089  14.126
67933W        W68797  24.619  17.154  12.202
67934W        W68798  22.080  16.115  14.248
67935W        W68799  25.015  14.723  11.441
67936W        W68800  24.919  17.077  11.649
67937W        W68801  23.836  16.126  11.670
67938W        W68802  24.593  15.033  11.212
67939W        W68803  24.761  15.366  13.395
67940W        W68804  22.223  16.147  12.700
67941W        W68805  22.558  16.980  12.451
67942W        W68806  24.632  15.842  12.053
67943W        W68807  23.363  15.225  12.961
67944W        W68808  25.522  17.087  13.400
67945W        W68809  25.337  15.193  13.105
67946W        W68810  21.968  17.841  12.654
67947W        W68811  22.154  17.047  12.104
67948W        W68812  22.260  14.862  14.644
67949W        W68813  23.586  17.575  14.432
67950W        W68814  25.238  16.470  12.402
67951W        W68815  24.870  16.673  11.290
67952W        W68816  24.068  18.235  13.317
67953W        W68817  24.853  16.852  14.389
67954W        W68818  23.649  14.489  11.745
67955W        W68819  24.397  15.652  12.514
67956W        W68820  21.954  17.051  13.136
67957W        W68821  23.473  15.005  11.772
67958W        W68822  23.220  16.549  14.367
67959W        W68823  24.122  15.678  12.062
67960W        W68824  24.361  17.031  13.236
67961W        W68825  22.417  17.622  13.658
67962W        W68826  23.083  17.597  14.427
67963W        W68827  23.046  15.080  11.444
67964W        W68828  24.501  15.419  11.572
67965W        W68829  24.361  17.589  13.836
67966W        W68830  22.971  16.160  12.658
67967W        W68831  22.741  17.970  13.385
67968W        W68832  25.237  18.012  11.240
67969W        W68833  22.203  16.611  14.140
67970W        W68834  23.934  16.911  12.979
67971W        W68835  22.562  16.694  12.030
67972W        W68836  23.076  17.582  13.434
67973W        W68837  23.649  15.096  12.550
67974W        W68838  21.829  16.814  11.455
67975W        W68839  23.718  15.811  11.017
67976W        W68840  22.177  16.591  12.383
67977W        W68841  23.451  15.126  13.714
67978W        W68842  25.053  14.919  10.976
67979W        W68843  25.303  16.613  14.200
67980W        W68844  23.933  17.972  14.333
67981W        W68845  25.515  16.996  13.905
67982W        W68846  24.866  17.688  14.417
67983W        W68847  22.717  18.255  12.884
67984W        W68848  25.600  16.806  12.067
67985W        W68849  24.135  16.112  12.381
67986W        W68850  23.861  14.850  12.131
67987W        W68851  22.836  17.633  12.222
67988W        W68852  23.282  15.508  13.393
67989W        W68853  23.229  14.802  12.662
67990W        W68854  22.121  17.810  11.440
67991W        W68855  23.443  16.769  12.243
67992W        W68856  22.886  17.680  13.901
67993W        W68857  22.097  16.602  11.848
67994W        W68858  22.087  15.211  12.804
67995W        W68859  23.484  17.022  12.688
67996W        W68860  21.950  14.770  11.777
67997W        W68861  24.668  15.863  13.463
67998W        W68862  24.710  15.542  11.110
67999W        W68863  25.218  17.094  12.979
68000W        W68864  23.674  17.499  12.745
68001W        W68865  23.033  17.865  11.751
68002W        W68866  24.227  14.716  10.990
68003W        W68867  22.327  17.943  13.049
68004W        W68868  24.187  15.741  14.350
68005W        W68869  22.347  15.302  14.341
68006W        W68870  21.931  15.670  12.089
68007W        W68871  23.434  15.905  11.444
68008W        W68872  24.404  16.196  14.215
68009W        W68873  22.969  16.432  13.100
68010W        W68874  24.377  14.837  12.152
68011W        W68875  23.516  18.007  12.638
68012W        W68876  24.718  17.549  13.448
68013W        W68877  24.529  17.532  12.582
68014W        W68878  24.258  16.729  12.272
68015W        W68879  23.712  14.948  11.313
68016W        W68880  25.475  14.735  12.234
68017W        W68881  23.251  16.061  10.970
68018W        W68882  25.341  15.610  12.182
68019W        W68883  24.009  16.711  11.096
68020W        W68884  24.994  16.907  13.882
68021W        W68885  24.969  17.537  11.287
68022W        W68886  23.180  15.047  14.163
68023W        W68887  23.082  15.981  13.406
68024W        W68888  25.116  17.399  13.780
68025W        W68889  24.241  15.311  14.010
68026W        W68890  21.858  15.830  13.888
68027W        W68891  23.890  16.337  13.572
68028W        W68892  22.073  17.047  12.610
68029W        W68893  22.244  16.257  13.220
68030W        W68894  24.673  16.654  13.489
68031W        W68895  24.460  18.045  14.156
68032W        W68896  24.333  15.777  13.851
68033W        W68897  24.880  17.793  12.293
68034W        W68898  23.584  17.599  13.607
68035W        W68899  22.968  17.801  12.952
68036W        W68900  24.945  17.090  13.399
68037W        W68901  23.918  17.190  14.493
68038W        W68902  22.451  17.021  12.946
68039W        W68903  24.791  16.756  12.480
68040W        W68904  24.469  17.808  13.039
68041W        W68905  22.602  17.523  13.186
68042W        W68906  23.661  15.726  14.274
68043W        W68907  23.485  17.621  11.611
68044W        W68908  23.334  17.094  14.416
68045W        W68909  23.149  17.370  11.912
68046W        W68910  22.782  15.783  10.821
68047W        W68911  21.919  18.293  17.958
68048W        W68912  22.387  17.125  17.579
68049W        W68913  25.086  16.723  15.258
68050W        W68914  25.279  17.864  17.317
68051W        W68915  22.971  17.966  14.761
68052W        W68916  23.266  16.055  15.495
68053W        W68917  22.819  15.507  16.073
68054W        W68918  23.802  16.689  15.319
68055W        W68919  23.407  17.884  17.703
68056W        W68920  21.981  15.340  17.602
68057W        W68921  22.532  14.846  17.299
68058W        W68922  24.591  15.022  16.274
68059W        W68923  24.424  15.905  14.920
68060W        W68924  24.770  15.366  17.906
68061W        W68925  22.040  15.041  17.185
68062W        W68926  22.080  17.792  18.103
68063W        W68927  23.350  17.378  14.852
68064W        W68928  22.045  15.709  16.638
68065W        W68929  23.144  16.019  17.819
68066W        W68930  25.398  15.629  16.290
68067W        W68931  25.184  16.615  17.214
68068W        W68932  23.617  15.973  16.348
68069W        W68933  24.232  17.395  16.635
68070W        W68934  22.389  16.649  16.856
68071W        W68935  21.701  16.088  16.542
68072W        W68936  23.014  16.391  17.466
68073W        W68937  25.300  16.049  17.847
68074W        W68938  22.848  17.385  16.319
68075W        W68939  23.974  17.232  17.266
68076W        W68940  23.029  15.840  16.410
68077W        W68941  23.481  16.580  16.211
68078W        W68942  24.251  17.566  18.052
68079W        W68943  23.706  16.788  18.094
68080W        W68944  23.535  16.472  17.485
68081W        W68945  21.598  15.632  18.236
68082W        W68946  24.639  17.259  17.835
68083W        W68947  22.254  14.787  15.706
68084W        W68948  22.994  17.087  16.912
68085W        W68949  25.389  16.977  16.186
68086W        W68950  24.950  15.425  16.505
68087W        W68951  25.094  15.377  14.545
68088W        W68952  25.605  16.101  17.011
68089W        W68953  23.543  17.785  16.739
68090W        W68954  25.297  17.245  15.251
68091W        W68955  22.388  18.147  15.358
68092W        W68956  22.761  18.117  15.754
68093W        W68957  22.761  14.982  16.866
68094W        W68958  25.145  15.984  17.304
68095W        W68959  24.549  16.202  15.708
68096W        W68960  24.561  16.363  14.714
68097W        W68961  23.826  17.107  16.728
68098W        W68962  23.884  15.575  16.156
68099W        W68963  24.136  17.674  17.065
68100W        W68964  25.064  16.272  15.536
68101W        W68965  24.019  14.978  15.558
68102W        W68966  22.601  17.701  15.492
68103W        W68967  21.885  15.145  15.894
68104W        W68968  24.583  15.935  16.184
68105W        W68969  22.298  17.441  16.458
68106W        W68970  23.413  17.864  14.981
68107W        W68971  24.914  15.853  14.476
68108W        W68972  22.001  17.519  16.911
68109W        W68973  22.767  17.342  17.295
68110W        W68974  23.064  16.635  15.913
68111W        W68975  23.260  15.093  16.851
68112W        W68976  25.568  14.746  16.427
68113W        W68977  22.719  16.731  14.308
68114W        W68978  22.210  15.337  14.854
68115W        W68979  22.480  17.462  15.946
68116W        W68980  23.155  17.178  15.948
68117W        W68981  24.831  17.749  17.587
68118W        W68982  24.011  15.575  15.106
68119W        W68983  25.125  18.121  16.146
68120W        W68984  24.744  15.820  17.617
68121W        W68985  25.580  17.402  15.983
68122W        W68986  24.154  16.747  17.288
68123W        W68987  21.784  16.270  15.629
68124W        W68988  22.707  16.810  17.251
68125W        W68989  24.222  15.936  15.401
68126W        W68990  24.081  16.389  15.625
68127W        W68991  22.500  15.809  16.974
68128W        W68992  22.350  15.709  17.475
68129W        W68993  22.209  14.706  16.219
68130W        W68994  24.166  15.191  16.573
68131W        W68995  23.890  15.301  17.779
68132W        W68996  23.982  15.081  14.973
68133W        W68997  25.327  17.709  17.810
68134W        W68998  24.191  14.827  17.758
68135W        W68999  25.144  17.181  17.948
68136W        W69000  24.841  15.286  17.406
68137W        W69001  24.511  15.127  15.709
68138W        W69002  24.902  16.303  18.105
68139W        W69003  22.621  17.858  16.241
68140W        W69004  23.650  15.258  15.324
68141W        W69005  22.841  14.844  17.758
68142W        W69006  24.943  15.429  15.476
68143W        W69007  25.260  15.831  15.335
68144W        W69008  22.931  18.050  17.882
68145W        W69009  22.615  14.578  15.321
68146W        W69010  25.337  15.137  16.154
68147W        W69011  25.384  17.493  14.653
68148W        W69012  22.015  16.554  16.482
68149W        W69013  24.113  15.249  14.504
68150W        W69014  25.414  17.431  16.487
68151W        W69015  25.355  14.771  16.932
68152W        W69016  23.840  16.060  17.578
68153W        W69017  23.648  17.196  15.246
68154W        W69018  24.259  16.839  18.205
68155W        W69019  24.139  14.693  16.411
68156W        W69020  22.515  15.696  16.447
68157W        W69021  22.227  16.671  17.396
68158W        W69022  24.117  17.813  16.097
68159W        W69023  25.297  15.734  16.804
68160W        W69024  24.000  17.982  17.483
68161W        W69025  25.106  16.561  14.741
68162W        W69026  23.559  16.418  15.719
68163W        W69027  25.460  14.695  17.449
68164W        W69028  23.695  16.772  17.105
68165W        W69029  23.911  15.637  16.675
68166W        W69030  24.742  15.899  15.343
68167W        W69031  24.920  15.605  14.970
68168W        W69032  25.004  17.615  15.458
68169W        W69033  24.467  17.000  16.375
68170W        W69034  24.657  16.399  15.235
68171W        W69035  23.918  16.347  16.108
68172W        W69036  24.875  16.330  16.058
68173W        W69037  22.355  15.332  16.831
68174W        W69038  24.858  16.339  17.582
68175W        W69039  25.437  17.887  16.751
68176W        W69040  23.330  17.590  16.194
68177W        W69041  24.495  17.993  17.263
68178W        W69042  24.241  15.416  17.056
68179W        W69043  23.585  18.216  17.191
68180W        W69044  25.306  15.052  15.580
68181W        W69045  25.101  16.241  16.850
68182W        W69046  22.005  15.568  17.118
68183W        W69047  24.886  15.362  15.992
68184W        W69048  25.194  15.562  17.666
68185W        W69049  24.107  17.227  16.090
68186W        W69050  23.437  17.867  15.784
68187W        W69051  22.232  14.874  15.166
68188W        W69052  23.649  14.768  16.651
68189W        W69053  22.496  18.110  14.841
68190W        W69054  23.326  16.524  15.250
68191W        W69055  23.645  16.985  17.595
68192W        W69056  23.630  15.211  15.852
68193W        W69057  24.953  14.823  15.949
68194W        W69058  24.607  18.092  16.289
68195W        W69059  24.033  17.888  16.607
68196W        W69060  23.406  16.801  16.697
68197W        W69061  25.170  17.495  16.945
68198W        W69062  22.663  15.052  15.532
68199W        W69063  23.318  17.325  16.613
68200W        W69064  22.743  15.379  14.660
68201W        W69065  23.553  15.972  16.862
68202W        W69066  24.542  14.792  16.730
68203W        W69067  21.909  16.611  16.990
68204W        W69068  23.655  16.382  14.859
68205W        W69069  22.786  14.879  14.519
68206W        W69070  23.664  15.898  15.797
68207W        W69071  24.486  14.965  17.224
68208W        W69072  23.216  16.855  17.321
68209W        W69073  23.978  16.559  17.727
68210W        W69074  24.472  16.689  17.716
68211W        W69075  23.784  14.965  18.181
68212W        W69076  23.110  15.180  16.360
68213W        W69077  22.386  15.232  15.945
68214W        W69078  22.265  17.934  15.849
68215W        W69079  23.795  17.505  17.715
68216W        W69080  23.116  17.056  15.187
68217W        W69081  24.424  16.451  16.312
68218W        W69082  24.622  16.134  16.661
68219W        W69083  23.751  16.402  16.631
68220W        W69084  24.612  17.244  14.624
68221W        W69085  24.086  15.086  16.062
68222W        W69086  25.599  15.426  15.332
68223W        W69087  22.084  17.932  17.593
68224W        W69088  22.335  17.143  17.063
68225W        W69089  21.899  18.001  15.462
68226W        W69090  23.746  15.221  16.914
68227W        W69091  22.918  17.559  15.091
68228W        W69092  25.359  17.755  15.102
68229W        W69093  24.160  16.350  15.080
68230W        W69094  23.321  15.547  15.592
68231W        W69095  23.659  15.409  14.718
68232W        W69096  24.131  17.093  17.759
68233W        W69097  24.874  14.923  15.357
68234W        W69098  21.906  14.569  14.931
68235W        W69099  23.484  17.225  17.086
68236W        W69100  23.045  16.896  16.372
68237W        W69101  22.891  17.182  14.714
68238W        W69102  22.088  17.535  15.562
68239W        W69103  22.557  16.180  17.648
68240W        W69104  23.326  15.077  17.910
68241W        W69105  23.984  15.067  17.342
68242W        W69106  23.023  14.674  15.636
68243W        W69107  24.397  14.906  15.199
68244W        W69108  22.247  14.838  16.762
68245W        W69109  22.091  15.605  16.131
68246W        W69110  25.055  14.857  16.486
68247W        W69111  22.152  15.261  15.470
68248W        W69112  24.913  15.096  16.918
68249W        W69113  25.360  16.108  14.612
68250W        W69114  22.586  15.163  16.410
68251W        W69115  23.777  15.653  17.225
68252W        W69116  21.781  15.060  14.983
68253W        W69117  22.644  16.679  17.754
68254W        W69118  24.138  16.039  16.456
68255W        W69119  23.865  18.107  14.884
68256W        W69120  21.968  16.443  14.613
68257W        W69121  22.928  17.092  17.696
68258W        W69122  22.174  16.167  17.309
68259W        W69123  23.317  16.411  17.029
68260W        W69124  24.965  14.749  17.315
68261W        W69125  25.517  16.332  17.489
68262W        W69126  25.400  16.322  15.107
68263W        W69127  24.335  16.778  15.371
68264W        W69128  24.740  18.154  14.619
68265W        W69129  24.022  16.374  18.203
68266W        W69130  22.557  17.240  18.047
68267W        W69131  25.628  15.086  18.016
68268W        W69132  25.043  15.974  16.403
68269W        W69133  23.416  18.167  18.163
68270W        W69134  23.060  14.636  15.068
68271W        W69135  25.102  17.071  14.793
68272W        W69136  23.058  15.432  17.603
68273W        W69137  23.298  17.399  17.525
68274W        W69138  25.306  15.191  17.229
68275W        W69139  24.896  18.024  15.100
68276W        W69140  24.764  16.648  16.673
68277W        W69141  23.049  15.011  17.314
68278W        W69142  23.575  16.303  17.960
68279W        W69143  22.788  17.226  15.579
68280W        W69144  24.778  16.694  15.671
68281W        W69145  22.705  15.387  17.213
68282W        W69146  23.646  17.360  15.825
68283W        W69147  25.371  16.103  16.006
68284W        W69148  23.691  14.800  17.681
68285W        W69149  24.763  17.317  16.660
68286W        W69150  24.991  17.761  16.491
68287W        W69151  23.839  17.562  14.881
68288W        W69152  22.017  17.299  17.935
68289W        W69153  22.881  15.474  16.739
68290W        W69154  22.703  14.837  16.015
68291W        W69155  24.458  15.641  16.633
68292W        W69156  23.490  16.873  14.873
68293W        W69157  25.206  16.497  16.395
68294W        W69158  22.508  17.638  17.710
68295W        W69159  25.051  18.147  15.592
68296W        W69160  23.099  15.148  15.835
68297W        W69161  22.538  16.576  16.337
68298W        W69162  23.211  18.160  16.851
68299W        W69163  25.022  18.122  17.903
68300W        W69164  24.255  16.470  16.828
68301W        W69165  22.113  15.905  14.734
68302W        W69166  25.350  17.803  15.803
68303W        W69167  25.212  15.208  15.077
68304W        W69168  23.246  14.584  17.546
68305W        W69169  25.012  17.345  16.184
68306W        W69170  24.959  15.858  15.827
68307W        W69171  23.358  15.574  16.108
68308W        W69172  23.370  15.997  17.345
68309W        W69173  24.494  17.108  17.373
68310W        W69174  23.233  15.543  17.125
68311W        W69175  23.112  18.067  16.163
68312W        W69176  22.427  18.123  17.924
68313W        W69177  22.597  17.627  14.659
68314W        W69178  25.123  17.106  15.738
68315W        W69179  22.861  15.862  17.377
68316W        W69180  25.446  15.630  14.860
68317W        W69181  23.401  16.910  15.598
68318W        W69182  24.290  16.281  17.412
68319W        W69183  24.204  15.952  16.971
68320W        W69184  22.643  16.288  17.128
68321W        W69185  24.938  18.014  16.950
68322W        W69186  24.697  14.889  17.753
68323W        W69187  22.166  14.830  17.665
68324W        W69188  22.660  16.167  16.620
68325W        W69189  23.227  15.487  14.437
68326W        W69190  21.986  17.431  17.432
68327W        W69191  23.226  16.291  16.539
68328W        W69192  23.179  15.128  14.802
68329W        W69193  22.721  16.141  16.108
68330W        W69194  22.083  18.096  17.108
68331W        W69195  24.958  16.109  14.934
68332W        W69196  25.195  15.052  17.732
68333W        W69197  24.619  17.182  15.876
68334W        W69198  22.042  16.247  17.829
68335W        W69199  25.338  14.717  15.126
68336W        W69200  24.781  17.132  15.337
68337W        W69201  23.747  16.141  15.314
68338W        W69202  24.761  15.076  14.859
68339W        W69203  24.826  15.619  17.006
68340W        W69204  22.207  16.108  16.288
68341W        W69205  22.680  16.993  16.034
68342W        W69206  24.517  15.640  15.707
68343W        W69207  23.648  15.182  16.371
68344W        W69208  25.454  17.071  17.054
68345W        W69209  25.424  15.229  16.686
68346W        W69210  22.020  17.871  16.317
68347W        W69211  22.241  17.050  15.728
68348W        W69212  22.225  14.798  18.200
68349W        W69213  23.473  17.654  18.179
68350W        W69214  25.261  16.602  15.879
68351W        W69215  24.662  16.818  14.924
68352W        W69216  24.077  18.195  17.011
68353W        W69217  24.790  16.819  18.115
68354W        W69218  23.515  14.799  15.566
68355W        W69219  24.386  15.473  16.160
68356W        W69220  22.003  17.040  16.681
68357W        W69221  23.150  15.086  15.322
68358W        W69222  23.248  16.702  17.830
68359W        W69223  24.021  15.498  15.646
68360W        W69224  24.399  16.977  16.887
68361W        W69225  22.385  17.677  17.208
68362W        W69226  22.999  17.548  17.937
68363W        W69227  22.699  14.999  15.010
68364W        W69228  24.492  15.429  15.217
68365W        W69229  24.316  17.564  17.539
68366W        W69230  23.246  16.131  16.027
68367W        W69231  22.772  17.959  17.005
68368W        W69232  25.225  17.978  14.657
68369W        W69233  22.144  16.767  17.917
68370W        W69234  23.999  16.781  16.368
68371W        W69235  22.547  16.563  15.798
68372W        W69236  23.149  17.600  17.035
68373W        W69237  23.373  14.804  16.084
68374W        W69238  21.926  16.830  14.974
68375W        W69239  23.883  15.916  14.747
68376W        W69240  22.072  16.540  15.976
68377W        W69241  23.507  15.229  17.424
68378W        W69242  25.214  14.887  14.648
68379W        W69243  25.225  16.596  17.844
68380W        W69244  23.872  17.962  17.986
68381W        W69245  25.448  16.948  17.547
68382W        W69246  24.893  17.632  18.100
68383W        W69247  22.764  18.237  16.570
68384W        W69248  25.536  16.868  15.546
68385W        W69249  24.155  15.939  15.919
68386W        W69250  23.852  14.644  15.952
68387W        W69251  22.953  17.656  15.864
68388W        W69252  23.396  15.547  16.630
68389W        W69253  23.153  14.696  16.542
68390W        W69254  22.284  17.704  15.084
68391W        W69255  23.829  16.828  15.867
68392W        W69256  22.947  17.787  17.460
68393W        W69257  22.053  16.667  15.452
68394W        W69258  22.051  15.177  16.404
68395W        W69259  23.567  17.071  16.251
68396W        W69260  21.781  14.827  15.462
68397W        W69261  24.674  16.086  17.160
68398W        W69262  24.548  15.489  14.640
68399W        W69263  25.164  16.980  16.632
68400W        W69264  23.791  17.505  16.381
68401W        W69265  23.098  17.942  15.401
68402W        W69266  24.261  14.760  14.658
68403W        W69267  22.355  17.896  16.707
68404W        W69268  24.368  15.685  17.962
68405W        W69269  22.508  15.239  17.661
68406W        W69270  21.952  15.713  15.639
68407W        W69271  23.512  15.721  15.128
68408W        W69272  24.421  16.195  17.898
68409W        W69273  22.896  16.603  16.785
68410W        W69274  24.398  14.667  15.943
68411W        W69275  23.638  18.000  16.259
68412W        W69276  24.682  17.524  17.136
68413W        W69277  24.533  17.546  16.260
68414W        W69278  24.330  16.750  15.918
68415W        W69279  23.533  14.837  15.034
68416W        W69280  25.503  14.713  15.903
68417W        W69281  23.372  15.932  14.673
68418W        W69282  25.347  15.521  15.790
68419W        W69283  24.012  16.802  14.861
68420W        W69284  24.917  16.888  17.570
68421W        W69285  24.929  17.533  14.930
68422W        W69286  23.523  15.669  17.725
68423W        W69287  23.033  15.974  16.913
68424W        W69288  25.113  17.349  17.446
68425W        W69289  24.369  15.297  17.598
68426W        W69290  21.819  15.845  17.497
68427W        W69291  23.855  16.291  17.126
68428W        W69292  22.220  16.964  16.233
68429W        W69293  22.175  16.181  16.800
68430W        W69294  24.645  16.612  17.190
68431W        W69295  24.448  17.994  17.828
68432W        W69296  24.249  15.770  17.455
68433W        W69297  24.826  17.780  15.916
68434W        W69298  23.636  17.694  17.249
68435W        W69299  23.029  17.780  16.573
68436W        W69300  24.912  17.042  17.071
68437W        W69301  23.849  17.271  18.181
68438W        W69302  22.588  17.029  16.590
68439W        W69303  24.891  16.836  16.166
68440W        W69304  24.525  17.810  16.730
68441W        W69305  22.672  17.489  16.810
68442W        W69306  23.910  15.890  18.051
68443W        W69307  23.703  17.698  15.379
68444W        W69308  23.365  17.181  17.998
68445W        W69309  23.256  17.451  15.492
68446W        W69310  22.596  15.836  14.452
68447W        W69311  21.793  18.260  21.648
68448W        W69312  22.342  17.100  21.133
68449W        W69313  25.078  16.807  18.883
68450W        W69314  25.311  17.977  20.939
68451W        W69315  23.035  17.903  18.377
68452W        W69316  23.360  16.299  19.240
68453W        W69317  22.968  15.920  19.975
68454W        W69318  23.738  16.645  19.032
68455W        W69319  23.457  17.902  21.191
68456W        W69320  21.958  15.301  21.297
68457W        W69321  22.576  14.472  21.110
68458W        W69322  24.623  15.023  19.963
68459W        W69323  24.373  15.952  18.685
68460W        W69324  24.608  15.553  21.438
68461W        W69325  22.065  14.964  20.890
68462W        W69326  22.063  17.825  21.758
68463W        W69327  23.578  17.364  18.619
68464W        W69328  22.097  15.703  20.373
68465W        W69329  23.246  16.035  21.419
68466W        W69330  25.268  15.581  20.331
68467W        W69331  25.204  16.752  20.784
68468W        W69332  23.913  15.865  20.044
68469W        W69333  24.140  17.477  20.205
68470W        W69334  22.598  16.652  20.411
68471W        W69335  21.869  16.118  20.191
68472W        W69336  23.170  16.359  21.034
68473W        W69337  25.222  16.109  21.303
68474W        W69338  22.796  17.431  19.894
68475W        W69339  23.972  17.303  20.924
68476W        W69340  23.418  15.823  20.239
68477W        W69341  23.489  16.664  19.829
68478W        W69342  24.285  17.637  21.661
68479W        W69343  23.612  16.782  21.739
68480W        W69344  23.652  16.557  21.216
68481W        W69345  21.549  15.487  21.544
68482W        W69346  24.689  17.367  21.440
68483W        W69347  22.119  14.693  19.388
68484W        W69348  22.927  17.103  20.321
68485W        W69349  25.308  17.005  19.804
68486W        W69350  24.639  15.329  20.379
68487W        W69351  25.204  15.333  18.179
68488W        W69352  25.595  16.211  20.680
68489W        W69353  23.387  17.977  20.482
68490W        W69354  25.281  17.285  18.944
68491W        W69355  22.167  18.203  18.937
68492W        W69356  22.541  18.075  19.273
68493W        W69357  22.563  14.821  20.714
68494W        W69358  25.220  15.885  20.816
68495W        W69359  24.620  16.319  19.462
68496W        W69360  24.492  16.370  18.393
68497W        W69361  23.757  17.248  20.445
68498W        W69362  23.858  15.400  19.815
68499W        W69363  24.114  17.734  20.691
68500W        W69364  25.033  16.392  19.178
68501W        W69365  24.207  15.146  19.095
68502W        W69366  22.418  17.752  18.870
68503W        W69367  21.845  15.124  19.746
68504W        W69368  24.484  15.959  20.081
68505W        W69369  22.240  17.482  19.928
68506W        W69370  23.423  17.838  18.701
68507W        W69371  24.949  15.790  18.111
68508W        W69372  22.099  17.468  20.447
68509W        W69373  22.842  17.181  20.840
68510W        W69374  23.381  16.835  19.354
68511W        W69375  23.048  15.022  20.508
68512W        W69376  25.492  14.757  20.073
68513W        W69377  22.936  16.916  18.177
68514W        W69378  22.019  15.737  17.949
68515W        W69379  22.327  17.583  19.364
68516W        W69380  23.060  17.231  19.476
68517W        W69381  24.867  17.842  21.159
68518W        W69382  24.006  15.649  18.954
68519W        W69383  25.134  18.051  19.789
68520W        W69384  24.761  15.934  21.119
68521W        W69385  25.419  17.380  19.457
68522W        W69386  24.171  16.823  21.013
68523W        W69387  21.785  16.206  19.330
68524W        W69388  23.054  16.702  20.647
68525W        W69389  24.278  16.003  19.218
68526W        W69390  24.185  16.512  19.280
68527W        W69391  22.407  15.766  20.795
68528W        W69392  22.405  15.714  21.311
68529W        W69393  22.181  14.746  19.911
68530W        W69394  24.112  15.097  20.160
68531W        W69395  23.802  15.214  21.381
68532W        W69396  24.361  15.106  18.609
68533W        W69397  25.322  17.861  21.461
68534W        W69398  24.115  14.789  21.382
68535W        W69399  25.190  17.363  21.592
68536W        W69400  24.765  15.200  21.106
68537W        W69401  24.699  15.307  19.540
68538W        W69402  24.973  16.367  21.751
68539W        W69403  22.487  17.893  19.755
68540W        W69404  23.570  15.615  18.672
68541W        W69405  22.661  14.879  21.429
68542W        W69406  25.005  15.523  19.179
68543W        W69407  25.266  15.934  18.964
68544W        W69408  22.899  18.127  21.785
68545W        W69409  23.020  14.584  18.874
68546W        W69410  25.099  15.146  20.119
68547W        W69411  25.376  17.523  18.298
68548W        W69412  22.156  16.558  20.127
68549W        W69413  24.286  15.197  18.105
68550W        W69414  25.427  17.546  19.959
68551W        W69415  25.395  14.661  20.817
68552W        W69416  24.049  16.219  21.349
68553W        W69417  23.740  17.157  19.064
68554W        W69418  24.503  16.569  21.779
68555W        W69419  24.247  14.661  19.930
68556W        W69420  22.520  15.563  20.121
68557W        W69421  22.263  16.642  20.832
68558W        W69422  24.098  17.848  19.810
68559W        W69423  25.037  15.427  20.748
68560W        W69424  23.977  18.075  21.086
68561W        W69425  25.226  16.643  18.369
68562W        W69426  23.770  16.370  19.514
68563W        W69427  25.733  14.643  21.273
68564W        W69428  23.696  16.875  20.815
68565W        W69429  23.801  15.458  20.366
68566W        W69430  24.762  15.958  19.094
68567W        W69431  24.900  15.836  18.622
68568W        W69432  24.984  17.628  19.170
68569W        W69433  24.771  17.123  19.867
68570W        W69434  24.531  16.374  18.940
68571W        W69435  24.011  16.590  19.903
68572W        W69436  24.887  16.181  19.890
68573W        W69437  22.396  15.295  20.575
68574W        W69438  24.957  16.542  21.270
68575W        W69439  25.371  17.992  20.266
68576W        W69440  23.234  17.645  19.749
68577W        W69441  24.486  18.115  20.885
68578W        W69442  24.199  15.222  20.644
68579W        W69443  23.527  18.311  20.859
68580W        W69444  25.165  15.046  19.337
68581W        W69445  25.194  16.146  20.359
68582W        W69446  21.975  15.477  20.819
68583W        W69447  24.859  15.619  20.007
68584W        W69448  25.128  15.576  21.247
68585W        W69449  24.103  17.331  19.690
68586W        W69450  23.667  17.816  19.521
68587W        W69451  23.814  14.630  20.260
68588W        W69452  22.330  18.124  18.432
68589W        W69453  23.247  16.644  18.869
68590W        W69454  23.679  17.091  21.298
68591W        W69455  23.769  15.337  19.299
68592W        W69456  25.071  14.777  19.765
68593W        W69457  24.638  18.134  19.921
68594W        W69458  23.868  17.935  20.272
68595W        W69459  23.427  16.819  20.317
68596W        W69460  25.168  17.636  20.591
68597W        W69461  23.035  14.821  19.374
68598W        W69462  23.300  17.506  20.294
68599W        W69463  23.157  15.544  18.092
68600W        W69464  23.794  15.947  20.577
68601W        W69465  24.460  14.796  20.404
68602W        W69466  21.861  16.499  20.551
68603W        W69467  23.630  16.482  18.520
68604W        W69468  23.022  14.777  18.268
68605W        W69469  23.834  15.848  19.522
68606W        W69470  24.426  14.847  20.933
68607W        W69471  23.239  16.875  21.086
68608W        W69472  24.071  16.714  21.508
68609W        W69473  24.558  16.861  21.360
68610W        W69474  23.781  14.872  21.781
68611W        W69475  23.009  15.477  20.254
68612W        W69476  22.372  15.197  19.729
68613W        W69477  22.034  17.988  19.418
68614W        W69478  23.871  17.616  21.320
68615W        W69479  22.864  16.970  18.691
68616W        W69480  24.512  16.530  19.945
68617W        W69481  24.717  16.325  20.357
68618W        W69482  23.923  16.727  20.386
68619W        W69483  24.583  17.260  18.356
68620W        W69484  24.222  15.078  19.629
68621W        W69485  25.433  15.315  18.986
68622W        W69486  22.022  18.041  21.223
68623W        W69487  22.393  17.089  20.616
68624W        W69488  21.660  18.048  18.995
68625W        W69489  23.585  14.989  20.548
68626W        W69490  22.943  17.671  18.842
68627W        W69491  25.286  17.935  18.880
68628W        W69492  24.100  16.470  18.715
68629W        W69493  23.487  15.769  19.164
68630W        W69494  24.096  15.554  18.449
68631W        W69495  24.187  17.211  21.374
68632W        W69496  24.733  15.077  19.060
68633W        W69497  21.835  14.690  18.526
68634W        W69498  23.311  17.175  20.673
68635W        W69499  23.292  17.151  19.933
68636W        W69500  23.089  17.377  18.426
68637W        W69501  21.878  17.595  19.093
68638W        W69502  22.751  16.314  21.350
68639W        W69503  23.164  14.878  21.454
68640W        W69504  23.909  14.928  20.939
68641W        W69505  23.459  14.601  19.541
68642W        W69506  23.983  14.688  18.573
68643W        W69507  22.149  14.814  20.421
68644W        W69508  22.064  15.647  19.847
68645W        W69509  25.095  14.643  20.352
68646W        W69510  21.713  15.145  19.256
68647W        W69511  24.874  14.959  20.665
68648W        W69512  25.290  16.102  18.382
68649W        W69513  22.629  15.063  20.179
68650W        W69514  23.809  15.487  20.917
68651W        W69515  21.643  15.194  18.501
68652W        W69516  22.727  16.737  21.051
68653W        W69517  24.141  16.249  20.305
68654W        W69518  23.770  18.220  18.553
68655W        W69519  21.916  16.598  18.378
68656W        W69520  22.783  17.308  21.336
68657W        W69521  22.301  16.181  21.072
68658W        W69522  23.515  16.415  20.668
68659W        W69523  24.913  14.698  21.098
68660W        W69524  25.533  16.501  21.092
68661W        W69525  25.418  16.411  18.815
68662W        W69526  24.218  16.925  18.982
68663W        W69527  24.692  18.057  18.324
68664W        W69528  24.130  16.235  21.859
68665W        W69529  22.388  17.194  21.648
68666W        W69530  25.564  15.067  21.616
68667W        W69531  24.808  15.825  20.483
68668W        W69532  23.413  18.061  21.711
68669W        W69533  23.457  14.705  18.579
68670W        W69534  25.067  17.121  18.473
68671W        W69535  22.871  15.418  21.324
68672W        W69536  23.251  17.408  21.121
68673W        W69537  25.269  15.083  21.068
68674W        W69538  24.746  18.004  18.861
68675W        W69539  24.744  16.854  20.345
68676W        W69540  22.918  15.026  21.010
68677W        W69541  23.648  16.261  21.646
68678W        W69542  22.695  17.295  19.095
68679W        W69543  24.671  16.781  19.186
68680W        W69544  22.446  15.245  21.083
68681W        W69545  23.580  17.299  19.533
68682W        W69546  25.307  15.894  19.931
68683W        W69547  23.618  14.704  21.305
68684W        W69548  24.628  17.354  20.318
68685W        W69549  24.921  17.756  20.163
68686W        W69550  23.915  17.732  18.457
68687W        W69551  21.926  17.373  21.502
68688W        W69552  22.856  15.477  20.767
68689W        W69553  22.669  14.747  19.750
68690W        W69554  24.246  15.693  20.431
68691W        W69555  23.365  16.929  18.461
68692W        W69556  25.231  16.697  20.234
68693W        W69557  22.350  17.630  21.337
68694W        W69558  25.028  18.200  19.254
68695W        W69559  23.399  15.122  19.584
68696W        W69560  22.860  16.896  19.836
68697W        W69561  23.031  18.202  20.776
68698W        W69562  25.013  18.267  21.518
68699W        W69563  24.363  16.593  20.589
68700W        W69564  21.765  16.121  18.277
68701W        W69565  25.398  17.879  19.383
68702W        W69566  24.993  15.329  18.676
68703W        W69567  23.138  14.573  20.989
68704W        W69568  24.997  17.552  19.683
68705W        W69569  25.102  15.965  19.473
68706W        W69570  23.398  15.616  19.759
68707W        W69571  23.625  16.051  21.061
68708W        W69572  24.506  17.232  20.980
68709W        W69573  23.315  15.614  21.120
68710W        W69574  22.962  18.089  19.712
68711W        W69575  22.442  18.110  21.538
68712W        W69576  22.589  17.729  18.222
68713W        W69577  24.998  17.125  19.368
68714W        W69578  22.855  15.888  21.078
68715W        W69579  25.411  15.626  18.547
68716W        W69580  23.229  17.175  18.971
68717W        W69581  24.473  16.397  21.127
68718W        W69582  24.422  16.078  20.727
68719W        W69583  22.731  16.297  20.786
68720W        W69584  24.914  18.100  20.569
68721W        W69585  24.598  14.879  21.459
68722W        W69586  22.166  14.838  21.369
68723W        W69587  22.765  15.904  20.453
68724W        W69588  23.437  15.938  18.275
68725W        W69589  22.005  17.455  20.975
68726W        W69590  23.650  16.316  20.187
68727W        W69591  23.661  15.468  18.190
68728W        W69592  23.056  16.480  19.614
68729W        W69593  22.116  17.904  20.726
68730W        W69594  24.935  16.346  18.660
68731W        W69595  25.043  15.131  21.525
68732W        W69596  24.555  17.360  19.411
68733W        W69597  22.007  16.201  21.517
68734W        W69598  25.180  14.876  18.812
68735W        W69599  24.750  17.223  18.911
68736W        W69600  23.828  16.144  19.049
68737W        W69601  24.787  15.024  18.285
68738W        W69602  24.541  15.565  20.836
68739W        W69603  22.371  16.053  20.034
68740W        W69604  22.507  17.162  19.573
68741W        W69605  24.622  15.823  19.592
68742W        W69606  23.435  15.213  20.105
68743W        W69607  25.446  17.201  20.685
68744W        W69608  25.382  15.087  20.542
68745W        W69609  21.853  17.876  19.894
68746W        W69610  22.058  17.125  19.297
68747W        W69611  22.351  14.846  21.887
68748W        W69612  23.449  17.534  21.574
68749W        W69613  25.317  16.406  19.765
68750W        W69614  24.622  16.802  18.632
68751W        W69615  24.075  18.261  20.608
68752W        W69616  24.932  16.907  21.714
68753W        W69617  23.480  14.390  19.014
68754W        W69618  24.359  15.489  19.932
68755W        W69619  21.955  16.981  20.337
68756W        W69620  23.457  14.930  19.063
68757W        W69621  23.211  16.554  21.503
68758W        W69622  24.235  15.540  19.421
68759W        W69623  24.255  17.094  20.564
68760W        W69624  22.494  17.556  20.850
68761W        W69625  23.007  17.758  21.439
68762W        W69626  23.339  15.176  18.442
68763W        W69627  24.527  15.527  18.923
68764W        W69628  24.351  17.682  21.149
68765W        W69629  23.414  16.126  19.779
68766W        W69630  22.612  17.995  20.567
68767W        W69631  25.203  18.012  18.386
68768W        W69632  22.302  16.625  21.353
68769W        W69633  24.303  16.996  20.074
68770W        W69634  22.874  16.820  19.235
68771W        W69635  23.010  17.665  20.708
68772W        W69636  23.770  14.889  19.835
68773W        W69637  21.873  16.928  18.849
68774W        W69638  23.875  16.017  18.555
68775W        W69639  22.383  16.679  19.679
68776W        W69640  23.422  15.107  21.036
68777W        W69641  25.251  14.801  18.262
68778W        W69642  25.374  16.672  21.553
68779W        W69643  23.945  18.047  21.621
68780W        W69644  25.550  17.024  21.161
68781W        W69645  24.848  17.794  21.676
68782W        W69646  22.630  18.247  20.109
68783W        W69647  25.360  16.769  19.331
68784W        W69648  24.203  16.156  19.710
68785W        W69649  23.882  14.815  19.336
68786W        W69650  22.835  17.682  19.411
68787W        W69651  23.361  15.450  20.629
68788W        W69652  23.174  14.782  19.958
68789W        W69653  21.940  17.819  18.623
68790W        W69654  23.881  16.881  19.489
68791W        W69655  22.688  17.973  21.095
68792W        W69656  22.090  16.617  19.225
68793W        W69657  22.108  15.233  20.163
68794W        W69658  23.794  17.048  19.982
68795W        W69659  21.696  14.674  19.030
68796W        W69660  24.929  16.307  20.813
68797W        W69661  24.603  15.505  18.386
68798W        W69662  25.130  17.234  20.242
68799W        W69663  23.690  17.553  19.972
68800W        W69664  23.070  18.077  19.142
68801W        W69665  24.382  14.713  18.236
68802W        W69666  22.244  17.906  20.221
68803W        W69667  24.176  15.737  21.681
68804W        W69668  22.388  15.283  21.602
68805W        W69669  21.828  15.665  19.368
68806W        W69670  23.391  16.109  18.763
68807W        W69671  24.538  16.092  21.560
68808W        W69672  23.134  16.292  20.322
68809W        W69673  24.640  14.778  19.493
68810W        W69674  23.447  18.058  19.978
68811W        W69675  24.658  17.660  20.720
68812W        W69676  24.526  17.592  19.878
68813W        W69677  24.388  16.883  19.588
68814W        W69678  23.826  15.168  18.704
68815W        W69679  25.509  14.578  19.586
68816W        W69680  23.185  16.447  18.280
68817W        W69681  25.192  15.446  19.672
68818W        W69682  23.879  16.930  18.584
68819W        W69683  25.027  17.042  21.205
68820W        W69684  24.966  17.604  18.622
68821W        W69685  23.348  15.333  21.575
68822W        W69686  23.231  15.951  20.714
68823W        W69687  25.264  17.484  21.088
68824W        W69688  24.255  15.271  21.161
68825W        W69689  21.910  15.816  21.203
68826W        W69690  23.992  16.362  20.846
68827W        W69691  22.015  17.032  19.814
68828W        W69692  22.313  16.217  20.510
68829W        W69693  24.711  16.779  20.880
68830W        W69694  24.490  18.097  21.418
68831W        W69695  24.202  15.788  21.145
68832W        W69696  24.665  17.890  19.469
68833W        W69697  23.592  17.617  20.778
68834W        W69698  22.958  17.861  20.180
68835W        W69699  24.935  17.204  20.716
68836W        W69700  23.864  17.248  21.763
68837W        W69701  22.443  17.046  20.103
68838W        W69702  24.916  16.688  19.639
68839W        W69703  24.420  17.896  20.315
68840W        W69704  22.602  17.513  20.354
68841W        W69705  23.698  15.736  21.473
68842W        W69706  23.799  17.685  19.013
68843W        W69707  23.223  17.082  21.543
68844W        W69708  23.315  17.622  19.205
68845W        W69709  22.704  15.710  17.853
68846W        W69710  22.038  18.221  25.412
68847W        W69711  22.301  17.093  25.007
68848W        W69712  25.350  16.628  22.610
68849W        W69713  25.388  17.862  24.561
68850W        W69714  22.855  17.960  22.304
68851W        W69715  23.321  16.308  23.262
68852W        W69716  22.686  15.823  23.456
68853W        W69717  23.872  16.709  22.535
68854W        W69718  23.462  17.921  24.987
68855W        W69719  21.901  15.316  24.962
68856W        W69720  22.587  14.661  24.775
68857W        W69721  24.469  15.347  23.553
68858W        W69722  24.240  15.844  22.221
68859W        W69723  24.614  15.533  25.309
68860W        W69724  22.062  15.009  24.538
68861W        W69725  22.287  17.791  25.527
68862W        W69726  23.396  17.253  22.010
68863W        W69727  22.030  15.722  24.007
68864W        W69728  23.045  15.886  25.151
68865W        W69729  25.317  15.708  23.653
68866W        W69730  25.227  16.693  24.555
68867W        W69731  23.700  16.186  23.588
68868W        W69732  24.181  17.417  23.964
68869W        W69733  22.563  16.722  24.248
68870W        W69734  21.811  16.190  23.918
68871W        W69735  23.061  16.351  24.906
68872W        W69736  25.264  16.151  25.275
68873W        W69737  22.779  17.446  23.688
68874W        W69738  23.999  17.238  24.612
68875W        W69739  23.044  15.719  23.936
68876W        W69740  23.345  16.571  23.723
68877W        W69741  24.182  17.514  25.429
68878W        W69742  23.484  16.719  25.387
68879W        W69743  23.552  16.537  24.898
68880W        W69744  21.808  15.670  25.327
68881W        W69745  24.657  17.315  25.224
68882W        W69746  22.366  14.816  22.987
68883W        W69747  22.871  17.132  24.297
68884W        W69748  25.387  16.929  23.553
68885W        W69749  24.908  15.466  23.881
68886W        W69750  25.260  15.429  21.873
68887W        W69751  25.472  16.212  24.443
68888W        W69752  23.472  17.801  24.120
68889W        W69753  25.481  17.108  22.747
68890W        W69754  22.462  18.160  22.617
68891W        W69755  22.720  18.162  23.094
68892W        W69756  22.589  14.903  24.320
68893W        W69757  25.069  15.936  24.670
68894W        W69758  24.597  16.167  23.074
68895W        W69759  24.640  16.149  22.093
68896W        W69760  23.693  17.304  24.187
68897W        W69761  23.658  15.461  23.330
68898W        W69762  24.184  17.664  24.416
68899W        W69763  25.056  16.285  22.878
68900W        W69764  24.114  15.120  22.691
68901W        W69765  22.607  17.720  22.821
68902W        W69766  21.989  15.175  23.146
68903W        W69767  24.556  15.876  23.595
68904W        W69768  22.261  17.540  23.765
68905W        W69769  23.128  17.695  21.943
68906W        W69770  24.979  15.839  21.680
68907W        W69771  22.117  17.559  24.265
68908W        W69772  22.824  17.293  24.784
68909W        W69773  22.961  16.674  23.381
68910W        W69774  22.999  15.190  24.079
68911W        W69775  25.536  14.847  23.856
68912W        W69776  22.766  16.829  21.554
68913W        W69777  22.267  15.307  22.124
68914W        W69778  22.422  17.525  23.290
68915W        W69779  23.091  17.188  23.372
68916W        W69780  24.948  17.856  24.832
68917W        W69781  23.883  15.533  22.420
68918W        W69782  25.147  18.088  23.473
68919W        W69783  24.775  15.980  25.096
68920W        W69784  25.515  17.333  23.243
68921W        W69785  24.165  16.751  24.756
68922W        W69786  21.689  16.337  23.060
68923W        W69787  23.035  16.727  24.545
68924W        W69788  24.247  15.988  22.748
68925W        W69789  24.237  16.498  22.866
68926W        W69790  22.338  15.818  24.422
68927W        W69791  22.332  15.789  25.029
68928W        W69792  22.354  14.722  23.524
68929W        W69793  23.939  15.264  23.759
68930W        W69794  23.741  15.276  25.123
68931W        W69795  24.252  15.244  22.185
68932W        W69796  25.432  17.759  25.088
68933W        W69797  24.108  14.887  25.120
68934W        W69798  25.201  17.246  25.282
68935W        W69799  24.752  15.535  24.796
68936W        W69800  24.578  15.179  23.060
68937W        W69801  24.783  16.417  25.375
68938W        W69802  22.583  17.926  23.565
68939W        W69803  23.405  15.406  22.231
68940W        W69804  22.755  14.960  25.157
68941W        W69805  24.922  15.492  22.805
68942W        W69806  25.278  15.882  22.648
68943W        W69807  23.084  18.161  25.226
68944W        W69808  22.735  14.576  22.612
68945W        W69809  25.308  15.207  23.573
68946W        W69810  25.557  17.430  21.972
68947W        W69811  22.126  16.630  23.882
68948W        W69812  24.259  15.223  21.671
68949W        W69813  25.421  17.442  23.786
68950W        W69814  25.280  14.864  24.381
68951W        W69815  23.879  16.132  25.037
68952W        W69816  23.609  17.051  22.854
68953W        W69817  24.301  16.469  25.558
68954W        W69818  23.822  14.740  23.873
68955W        W69819  22.531  15.616  23.886
68956W        W69820  22.209  16.704  24.614
68957W        W69821  24.150  17.860  23.556
68958W        W69822  25.254  15.771  24.217
68959W        W69823  23.940  17.951  24.757
68960W        W69824  25.328  16.606  22.068
68961W        W69825  23.807  16.467  23.134
68962W        W69826  25.427  14.899  24.887
68963W        W69827  23.739  16.809  24.473
68964W        W69828  23.697  15.725  23.849
68965W        W69829  24.746  15.931  22.605
68966W        W69830  25.027  15.771  22.197
68967W        W69831  25.099  17.441  22.890
68968W        W69832  24.429  17.017  23.752
68969W        W69833  24.658  16.425  22.596
68970W        W69834  23.829  16.681  23.595
68971W        W69835  24.691  16.378  23.552
68972W        W69836  22.299  15.312  24.204
68973W        W69837  24.980  16.407  24.897
68974W        W69838  25.435  17.909  24.036
68975W        W69839  23.269  17.628  23.594
68976W        W69840  24.507  18.049  24.583
68977W        W69841  24.353  15.436  24.476
68978W        W69842  23.568  18.250  24.562
68979W        W69843  25.194  15.138  23.071
68980W        W69844  24.992  16.310  24.296
68981W        W69845  21.930  15.513  24.483
68982W        W69846  24.918  15.494  23.353
68983W        W69847  25.174  15.650  25.124
68984W        W69848  24.000  17.166  23.526
68985W        W69849  23.420  17.892  23.178
68986W        W69850  22.361  14.865  22.413
68987W        W69851  23.547  15.034  24.198
68988W        W69852  22.407  18.076  22.080
68989W        W69853  23.434  16.557  22.790
68990W        W69854  23.661  17.037  24.953
68991W        W69855  23.663  15.038  22.952
68992W        W69856  24.857  14.964  23.455
68993W        W69857  24.639  18.087  23.636
68994W        W69858  23.968  17.935  24.036
68995W        W69859  23.355  16.857  24.148
68996W        W69860  25.178  17.506  24.248
68997W        W69861  22.857  14.977  22.920
68998W        W69862  23.207  17.368  24.020
68999W        W69863  22.880  15.204  21.795
69000W        W69864  23.669  15.932  24.335
69001W        W69865  24.539  14.845  24.171
69002W        W69866  21.822  16.571  24.285
69003W        W69867  23.706  16.367  22.163
69004W        W69868  22.866  14.694  21.863
69005W        W69869  23.731  15.948  23.134
69006W        W69870  24.385  14.954  24.678
69007W        W69871  23.168  16.918  24.990
69008W        W69872  23.964  16.654  25.221
69009W        W69873  24.520  16.795  25.136
69010W        W69874  23.745  14.913  25.496
69011W        W69875  22.918  15.379  23.582
69012W        W69876  22.484  15.212  23.320
69013W        W69877  22.230  17.978  23.156
69014W        W69878  23.810  17.531  25.057
69015W        W69879  23.298  16.974  22.444
69016W        W69880  24.267  16.528  23.798
69017W        W69881  24.546  16.187  24.064
69018W        W69882  23.778  16.438  24.062
69019W        W69883  24.413  17.080  21.816
69020W        W69884  24.079  15.152  23.263
69021W        W69885  25.423  15.391  22.668
69022W        W69886  22.168  17.913  25.001
69023W        W69887  22.397  17.177  24.490
69024W        W69888  21.956  18.073  22.697
69025W        W69889  23.884  15.454  24.257
69026W        W69890  23.034  17.459  22.405
69027W        W69891  25.395  17.538  22.456
69028W        W69892  24.207  16.343  22.356
69029W        W69893  23.510  15.504  22.790
69030W        W69894  23.801  15.380  21.888
69031W        W69895  24.144  17.138  25.093
69032W        W69896  24.639  15.080  22.552
69033W        W69897  21.993  14.576  22.227
69034W        W69898  23.328  17.168  24.552
69035W        W69899  22.966  16.949  23.820
69036W        W69900  22.875  17.248  21.875
69037W        W69901  22.106  17.585  22.845
69038W        W69902  22.605  16.238  25.155
69039W        W69903  23.246  14.855  25.345
69040W        W69904  23.891  15.084  24.653
69041W        W69905  23.262  14.695  23.116
69042W        W69906  22.173  14.821  24.045
69043W        W69907  22.169  15.630  23.490
69044W        W69908  25.021  14.927  23.946
69045W        W69909  22.237  15.249  22.706
69046W        W69910  24.848  15.231  24.358
69047W        W69911  25.359  16.099  21.937
69048W        W69912  22.564  15.095  23.824
69049W        W69913  23.846  15.650  24.757
69050W        W69914  21.868  15.055  22.335
69051W        W69915  22.660  16.716  24.913
69052W        W69916  24.092  16.050  23.882
69053W        W69917  23.716  18.206  22.172
69054W        W69918  21.788  16.942  21.864
69055W        W69919  22.762  17.106  25.261
69056W        W69920  22.250  16.210  24.757
69057W        W69921  23.405  16.393  24.423
69058W        W69922  24.871  14.812  24.689
69059W        W69923  25.506  16.439  24.916
69060W        W69924  25.604  16.230  22.375
69061W        W69925  24.388  16.826  22.427
69062W        W69926  24.848  18.192  22.007
69063W        W69927  23.884  16.150  25.537
69064W        W69928  22.348  17.248  25.543
69065W        W69929  25.455  15.225  25.363
69066W        W69930  24.973  16.013  23.862
69067W        W69931  23.557  18.113  25.485
69068W        W69932  23.150  14.546  22.295
69069W        W69933  25.211  17.066  22.277
69070W        W69934  22.743  15.471  25.066
69071W        W69935  23.290  17.430  24.996
69072W        W69936  25.253  15.410  24.628
69073W        W69937  25.044  17.915  22.435
69074W        W69938  24.716  16.710  24.066
69075W        W69939  22.865  15.139  24.678
69076W        W69940  23.411  16.229  25.300
69077W        W69941  22.727  17.252  22.996
69078W        W69942  24.727  16.653  23.088
69079W        W69943  22.385  15.370  24.718
69080W        W69944  23.575  17.359  23.278
69081W        W69945  25.523  16.129  23.417
69082W        W69946  23.621  14.769  25.013
69083W        W69947  24.743  17.326  24.012
69084W        W69948  24.985  17.743  23.819
69085W        W69949  23.701  17.714  21.974
69086W        W69950  21.982  17.475  25.252
69087W        W69951  22.773  15.550  24.361
69088W        W69952  22.874  14.884  23.450
69089W        W69953  24.322  15.600  23.979
69090W        W69954  23.138  16.791  21.965
69091W        W69955  25.124  16.503  23.823
69092W        W69956  22.508  17.548  25.131
69093W        W69957  25.071  18.171  22.919
69094W        W69958  23.230  15.208  23.204
69095W        W69959  22.611  16.575  23.756
69096W        W69960  23.195  18.231  24.202
69097W        W69961  25.180  18.222  25.148
69098W        W69962  24.257  16.547  24.297
69099W        W69963  22.015  15.652  21.691
69100W        W69964  25.383  17.809  23.103
69101W        W69965  25.055  15.263  22.312
69102W        W69966  23.103  14.696  24.867
69103W        W69967  25.032  17.348  23.473
69104W        W69968  25.009  16.010  23.340
69105W        W69969  23.314  15.821  23.506
69106W        W69970  23.441  16.014  24.801
69107W        W69971  24.521  17.161  24.756
69108W        W69972  23.155  15.581  24.746
69109W        W69973  23.063  18.095  23.498
69110W        W69974  22.563  18.172  25.304
69111W        W69975  22.610  17.684  21.785
69112W        W69976  25.123  16.980  23.114
69113W        W69977  22.735  15.888  24.751
69114W        W69978  25.544  15.691  22.238
69115W        W69979  23.094  16.912  22.927
69116W        W69980  24.363  16.326  25.042
69117W        W69981  24.191  15.923  24.378
69118W        W69982  22.701  16.334  24.533
69119W        W69983  24.950  18.009  24.280
69120W        W69984  24.589  15.016  25.269
69121W        W69985  22.239  14.935  25.033
69122W        W69986  22.689  16.061  24.087
69123W        W69987  23.307  15.756  21.853
69124W        W69988  22.014  17.432  24.748
69125W        W69989  23.366  16.118  23.971
69126W        W69990  23.311  14.952  21.988
69127W        W69991  22.586  16.309  23.314
69128W        W69992  22.159  18.107  24.486
69129W        W69993  25.080  16.259  22.351
69130W        W69994  25.024  15.170  25.059
69131W        W69995  24.610  17.147  23.236
69132W        W69996  22.032  16.140  25.236
69133W        W69997  25.275  14.891  22.604
69134W        W69998  24.900  16.885  22.654
69135W        W69999  23.801  16.209  22.670
69136W        W70000  24.725  15.084  21.930
69137W        W70001  24.733  15.759  24.297
69138W        W70002  22.302  16.115  23.732
69139W        W70003  22.578  17.032  23.455
69140W        W70004  24.486  15.676  23.114
69141W        W70005  23.397  15.323  23.770
69142W        W70006  25.485  17.113  24.396
69143W        W70007  25.406  15.290  24.101
69144W        W70008  21.940  17.936  23.594
69145W        W70009  22.215  17.117  23.079
69146W        W70010  22.326  14.931  25.549
69147W        W70011  23.482  17.610  25.467
69148W        W70012  25.175  16.504  23.321
69149W        W70013  24.824  16.674  22.171
69150W        W70014  24.079  18.298  24.385
69151W        W70015  24.827  16.920  25.533
69152W        W70016  23.536  14.600  22.674
69153W        W70017  24.083  15.702  23.475
69154W        W70018  21.998  17.059  24.168
69155W        W70019  23.278  15.031  22.587
69156W        W70020  22.973  16.623  25.351
69157W        W70021  24.010  15.559  22.944
69158W        W70022  24.390  17.056  24.285
69159W        W70023  22.463  17.688  24.637
69160W        W70024  22.965  17.597  25.364
69161W        W70025  22.851  14.982  22.286
69162W        W70026  24.417  15.531  22.602
69163W        W70027  24.317  17.614  24.914
69164W        W70028  22.971  16.204  23.656
69165W        W70029  22.727  18.041  24.362
69166W        W70030  25.319  17.940  21.981
69167W        W70031  22.175  16.611  25.121
69168W        W70032  23.976  16.921  24.015
69169W        W70033  22.590  16.749  23.016
69170W        W70034  23.071  17.632  24.442
69171W        W70035  23.607  14.958  23.462
69172W        W70036  21.682  16.941  22.402
69173W        W70037  23.783  15.881  21.983
69174W        W70038  22.216  16.661  23.363
69175W        W70039  23.380  15.116  24.697
69176W        W70040  25.228  14.889  21.953
69177W        W70041  25.228  16.693  25.282
69178W        W70042  24.021  17.986  25.259
69179W        W70043  25.503  16.977  24.909
69180W        W70044  24.988  17.751  25.348
69181W        W70045  22.733  18.297  23.909
69182W        W70046  25.578  16.736  23.100
69183W        W70047  24.187  16.210  23.381
69184W        W70048  23.774  14.565  23.180
69185W        W70049  22.914  17.682  23.232
69186W        W70050  23.364  15.514  24.280
69187W        W70051  23.256  14.818  23.814
69188W        W70052  21.988  17.751  22.276
69189W        W70053  23.452  16.821  23.281
69190W        W70054  22.898  17.818  24.891
69191W        W70055  22.009  16.694  22.851
69192W        W70056  22.080  15.158  23.662
69193W        W70057  23.513  17.089  23.720
69194W        W70058  21.901  14.783  22.769
69195W        W70059  24.597  16.170  24.599
69196W        W70060  24.602  15.589  21.960
69197W        W70061  25.162  17.022  23.991
69198W        W70062  23.746  17.570  23.737
69199W        W70063  23.079  17.933  22.790
69200W        W70064  24.295  14.746  21.870
69201W        W70065  22.332  17.976  24.015
69202W        W70066  24.022  15.702  25.272
69203W        W70067  22.281  15.391  25.317
69204W        W70068  21.966  15.892  22.946
69205W        W70069  23.486  15.900  22.393
69206W        W70070  24.402  15.984  25.455
69207W        W70071  22.998  16.475  24.100
69208W        W70072  24.304  14.864  23.684
69209W        W70073  23.570  18.079  23.684
69210W        W70074  24.700  17.564  24.480
69211W        W70075  24.546  17.532  23.593
69212W        W70076  24.278  16.734  23.331
69213W        W70077  23.749  15.021  22.305
69214W        W70078  25.566  14.815  23.323
69215W        W70079  23.233  16.262  21.938
69216W        W70080  25.344  15.674  23.127
69217W        W70081  24.057  16.736  22.025
69218W        W70082  24.964  16.947  24.931
69219W        W70083  25.038  17.513  22.070
69220W        W70084  23.214  15.330  25.199
69221W        W70085  23.102  15.978  24.398
69222W        W70086  25.174  17.395  24.767
69223W        W70087  24.254  15.349  24.972
69224W        W70088  21.866  15.843  24.850
69225W        W70089  23.902  16.320  24.574
69226W        W70090  22.071  17.070  23.641
69227W        W70091  22.261  16.296  24.239
69228W        W70092  24.661  16.679  24.596
69229W        W70093  24.554  18.032  25.115
69230W        W70094  24.323  15.840  24.878
69231W        W70095  24.839  17.772  23.227
69232W        W70096  23.594  17.610  24.589
69233W        W70097  22.976  17.846  23.947
69234W        W70098  24.919  17.088  24.431
69235W        W70099  23.769  17.145  25.454
69236W        W70100  22.474  17.112  23.953
69237W        W70101  24.874  16.863  23.569
69238W        W70102  24.512  17.810  24.051
69239W        W70103  22.620  17.559  24.167
69240W        W70104  23.523  15.738  25.258
69241W        W70105  23.370  17.863  22.364
69242W        W70106  23.235  17.157  25.453
69243W        W70107  23.220  17.427  22.901
69244W        W70108  22.818  15.837  21.617
69245W        W70109  21.994  18.238  28.834
69246W        W70110  22.372  17.082  28.481
69247W        W70111  25.120  16.602  26.202
69248W        W70112  25.252  17.907  28.252
69249W        W70113  23.070  17.971  25.702
69250W        W70114  23.070  15.954  26.603
69251W        W70115  22.603  15.821  26.806
69252W        W70116  23.611  16.529  26.274
69253W        W70117  23.365  17.830  28.267
69254W        W70118  22.205  15.420  28.524
69255W        W70119  22.515  14.636  28.237
69256W        W70120  24.465  15.105  27.188
69257W        W70121  24.059  15.697  25.795
69258W        W70122  24.675  15.375  28.797
69259W        W70123  22.217  15.074  28.136
69260W        W70124  22.145  17.757  28.977
69261W        W70125  23.397  16.893  25.872
69262W        W70126  22.109  15.808  27.573
69263W        W70127  22.984  15.980  28.757
69264W        W70128  25.400  15.659  27.425
69265W        W70129  25.097  16.707  28.022
69266W        W70130  23.477  15.881  26.972
69267W        W70131  24.154  17.529  27.560
69268W        W70132  22.534  16.737  27.820
69269W        W70133  21.846  16.249  27.393
69270W        W70134  23.086  16.307  28.364
69271W        W70135  25.277  16.207  28.740
69272W        W70136  22.688  17.427  27.128
69273W        W70137  23.996  17.264  28.211
69274W        W70138  23.279  15.652  27.482
69275W        W70139  23.344  16.616  27.169
69276W        W70140  24.139  17.550   0.082
69277W        W70141  23.465  16.732  28.907
69278W        W70142  23.591  16.489  28.398
69279W        W70143  21.996  15.646  28.961
69280W        W70144  24.585  17.390  28.859
69281W        W70145  22.256  14.635  26.715
69282W        W70146  22.832  17.205  27.697
69283W        W70147  25.300  16.980  27.046
69284W        W70148  24.570  15.396  27.613
69285W        W70149  25.041  15.476  25.596
69286W        W70150  25.683  16.134  27.967
69287W        W70151  23.375  17.924  27.701
69288W        W70152  25.367  17.042  26.286
69289W        W70153  22.438  18.320  26.249
69290W        W70154  22.744  18.065  26.598
69291W        W70155  22.660  14.955  27.861
69292W        W70156  25.152  15.770  28.068
69293W        W70157  24.662  16.296  26.977
69294W        W70158  24.379  16.119  25.963
69295W        W70159  23.813  17.134  27.657
69296W        W70160  23.481  15.340  27.051
69297W        W70161  24.255  17.683  28.035
69298W        W70162  25.007  16.360  26.623
69299W        W70163  23.954  15.149  26.464
69300W        W70164  22.478  17.806  26.227
69301W        W70165  22.097  15.137  26.775
69302W        W70166  24.521  15.959  27.369
69303W        W70167  22.163  17.473  27.120
69304W        W70168  23.475  17.878  25.990
69305W        W70169  24.903  15.986  25.625
69306W        W70170  22.057  17.665  27.925
69307W        W70171  22.817  17.145  28.207
69308W        W70172  23.065  16.690  26.741
69309W        W70173  23.190  14.951  27.833
69310W        W70174  25.522  14.712  27.452
69311W        W70175  22.492  16.732  25.515
69312W        W70176  22.227  15.367  25.849
69313W        W70177  22.442  17.540  26.677
69314W        W70178  23.279  17.169  26.753
69315W        W70179  24.844  17.741  28.565
69316W        W70180  23.748  15.532  26.176
69317W        W70181  25.145  18.264  27.102
69318W        W70182  24.887  15.950  28.456
69319W        W70183  25.597  17.287  26.694
69320W        W70184  24.058  16.738  28.258
69321W        W70185  21.801  16.353  26.478
69322W        W70186  23.035  16.740  27.977
69323W        W70187  24.146  15.806  26.331
69324W        W70188  23.895  16.181  26.579
69325W        W70189  22.554  15.844  27.841
69326W        W70190  22.483  15.764  28.795
69327W        W70191  22.192  14.804  27.174
69328W        W70192  24.078  15.225  27.522
69329W        W70193  23.713  15.089  28.775
69330W        W70194  23.969  15.140  25.904
69331W        W70195  25.344  17.691  28.730
69332W        W70196  24.148  14.801  28.729
69333W        W70197  25.085  17.248  28.829
69334W        W70198  24.793  15.440  28.283
69335W        W70199  24.375  15.387  26.694
69336W        W70200  24.874  16.397   0.021
69337W        W70201  22.469  17.894  27.092
69338W        W70202  23.250  15.510  26.096
69339W        W70203  22.848  14.820  28.737
69340W        W70204  24.938  15.408  26.723
69341W        W70205  25.072  15.864  26.562
69342W        W70206  23.088  17.992  28.733
69343W        W70207  22.866  14.611  26.137
69344W        W70208  25.303  15.138  27.106
69345W        W70209  25.467  17.551  25.619
69346W        W70210  22.137  16.666  27.246
69347W        W70211  24.181  15.274  25.474
69348W        W70212  25.528  17.580  27.533
69349W        W70213  25.255  14.825  27.888
69350W        W70214  23.892  15.819  28.672
69351W        W70215  23.609  17.048  26.339
69352W        W70216  24.349  16.534   0.097
69353W        W70217  24.061  14.720  27.325
69354W        W70218  22.589  15.644  27.337
69355W        W70219  22.167  16.726  28.189
69356W        W70220  24.003  17.876  27.155
69357W        W70221  25.066  15.394  27.740
69358W        W70222  23.899  17.917  28.316
69359W        W70223  25.172  16.422  25.730
69360W        W70224  23.419  16.322  26.718
69361W        W70225  25.422  14.768  28.386
69362W        W70226  23.577  16.833  28.017
69363W        W70227  23.782  15.665  27.345
69364W        W70228  24.652  15.692  26.355
69365W        W70229  25.080  15.708  26.054
69366W        W70230  25.123  17.421  26.560
69367W        W70231  24.442  17.155  27.338
69368W        W70232  24.461  16.155  26.523
69369W        W70233  23.789  16.364  27.077
69370W        W70234  24.845  16.355  27.453
69371W        W70235  22.370  15.375  27.728
69372W        W70236  24.910  16.457  28.460
69373W        W70237  25.401  18.032  27.746
69374W        W70238  23.195  17.509  27.183
69375W        W70239  24.430  18.042  28.416
69376W        W70240  24.322  15.376  28.080
69377W        W70241  23.632  18.250  28.031
69378W        W70242  25.267  15.042  26.576
69379W        W70243  24.916  16.234  27.974
69380W        W70244  22.108  15.648  28.071
69381W        W70245  24.912  15.490  27.232
69382W        W70246  25.178  15.545  28.589
69383W        W70247  24.008  17.345  27.100
69384W        W70248  23.292  17.954  26.639
69385W        W70249  22.592  15.028  26.007
69386W        W70250  23.557  14.703  27.519
69387W        W70251  22.592  18.116  25.817
69388W        W70252  23.105  16.403  26.315
69389W        W70253  23.676  16.996  28.499
69390W        W70254  23.474  15.009  26.616
69391W        W70255  24.855  14.939  26.907
69392W        W70256  24.659  18.220  27.253
69393W        W70257  23.906  17.970  27.666
69394W        W70258  23.293  16.913  27.587
69395W        W70259  25.144  17.601  27.860
69396W        W70260  22.603  14.976  26.531
69397W        W70261  23.296  17.408  27.698
69398W        W70262  22.715  15.279  25.552
69399W        W70263  23.625  15.877  27.815
69400W        W70264  24.434  14.860  27.654
69401W        W70265  21.980  16.643  27.735
69402W        W70266  23.403  16.358  25.822
69403W        W70267  22.813  14.761  25.622
69404W        W70268  23.394  15.527  26.586
69405W        W70269  24.504  15.021  28.417
69406W        W70270  23.194  16.822  28.452
69407W        W70271  23.955  16.666  28.790
69408W        W70272  24.440  16.618  28.595
69409W        W70273  23.809  14.706   0.122
69410W        W70274  23.088  15.172  27.345
69411W        W70275  22.557  15.323  26.924
69412W        W70276  22.219  18.013  26.640
69413W        W70277  23.686  17.524  28.583
69414W        W70278  22.658  16.724  26.356
69415W        W70279  24.336  16.480  27.312
69416W        W70280  24.416  16.267  27.770
69417W        W70281  23.685  16.577  27.566
69418W        W70282  24.276  16.982  25.562
69419W        W70283  23.970  15.162  27.004
69420W        W70284  25.423  15.503  26.382
69421W        W70285  22.169  17.908  28.464
69422W        W70286  22.332  17.186  27.961
69423W        W70287  21.903  18.345  26.341
69424W        W70288  23.835  15.414  27.941
69425W        W70289  23.159  17.465  25.870
69426W        W70290  25.317  17.941  26.134
69427W        W70291  23.872  16.142  26.041
69428W        W70292  22.882  15.498  26.498
69429W        W70293  23.587  15.379  25.642
69430W        W70294  24.232  17.083  28.639
69431W        W70295  24.719  15.090  26.392
69432W        W70296  21.955  14.707  25.862
69433W        W70297  23.343  17.286  28.213
69434W        W70298  22.997  17.011  27.174
69435W        W70299  22.814  17.093  25.784
69436W        W70300  21.992  17.652  26.244
69437W        W70301  22.558  16.269  28.660
69438W        W70302  23.337  14.726  28.871
69439W        W70303  23.954  15.027  28.276
69440W        W70304  23.042  14.668  26.631
69441W        W70305  24.314  14.847  26.156
69442W        W70306  22.141  14.922  27.656
69443W        W70307  22.167  15.798  27.062
69444W        W70308  24.917  14.998  27.443
69445W        W70309  22.384  15.462  26.444
69446W        W70310  24.786  15.037  27.969
69447W        W70311  25.409  15.970  25.747
69448W        W70312  22.589  15.078  27.377
69449W        W70313  23.635  15.470  28.418
69450W        W70314  21.741  15.148  25.976
69451W        W70315  22.673  16.659  28.349
69452W        W70316  23.975  16.143  27.497
69453W        W70317  23.838  18.252  25.952
69454W        W70318  22.075  16.416  25.670
69455W        W70319  22.826  17.049  28.722
69456W        W70320  22.328  16.238  28.175
69457W        W70321  23.363  16.338  27.915
69458W        W70322  24.896  14.664  28.304
69459W        W70323  25.423  16.428  28.303
69460W        W70324  25.361  16.139  26.232
69461W        W70325  24.152  16.509  26.247
69462W        W70326  24.823  18.246  25.504
69463W        W70327  24.038  16.135   0.042
69464W        W70328  22.410  17.030   0.019
69465W        W70329  25.532  15.151  28.793
69466W        W70330  24.965  15.874  27.597
69467W        W70331  23.510  18.073  28.980
69468W        W70332  23.278  14.622  25.797
69469W        W70333  25.287  16.933  25.774
69470W        W70334  22.725  15.329  28.673
69471W        W70335  22.979  17.531  28.510
69472W        W70336  25.258  15.240  28.196
69473W        W70337  24.873  18.495  25.963
69474W        W70338  24.667  16.797  27.625
69475W        W70339  22.930  15.055  28.284
69476W        W70340  23.459  16.210  28.807
69477W        W70341  22.779  17.368  26.253
69478W        W70342  24.632  16.623  26.395
69479W        W70343  22.601  15.437  28.181
69480W        W70344  23.593  17.588  26.867
69481W        W70345  25.608  16.083  27.220
69482W        W70346  23.699  14.638  28.517
69483W        W70347  24.671  17.521  27.660
69484W        W70348  25.045  17.813  27.395
69485W        W70349  23.653  17.367  25.916
69486W        W70350  22.023  17.269  28.830
69487W        W70351  22.878  15.434  27.738
69488W        W70352  22.690  14.748  27.002
69489W        W70353  24.176  15.720  27.690
69490W        W70354  22.940  16.606  25.875
69491W        W70355  25.176  16.764  27.511
69492W        W70356  22.513  17.479  28.769
69493W        W70357  25.193  18.238  26.569
69494W        W70358  23.026  15.141  26.829
69495W        W70359  22.632  16.656  27.021
69496W        W70360  22.961  18.164  27.895
69497W        W70361  25.106  18.157  28.728
69498W        W70362  24.148  16.716  27.739
69499W        W70363  22.171  15.877  25.655
69500W        W70364  25.473  17.803  26.673
69501W        W70365  25.124  15.184  26.059
69502W        W70366  23.168  14.592  28.400
69503W        W70367  25.318  17.497  27.068
69504W        W70368  25.069  15.980  27.103
69505W        W70369  23.024  15.624  27.025
69506W        W70370  23.501  15.970  28.325
69507W        W70371  24.587  17.370  28.303
69508W        W70372  23.103  15.590  28.413
69509W        W70373  22.978  17.969  27.056
69510W        W70374  22.575  17.996  28.822
69511W        W70375  22.676  17.601  25.794
69512W        W70376  24.998  16.902  26.636
69513W        W70377  22.708  15.918  28.325
69514W        W70378  25.769  15.806  26.126
69515W        W70379  23.103  16.968  26.288
69516W        W70380  24.044  16.263  28.501
69517W        W70381  24.016  15.847  28.168
69518W        W70382  22.787  16.297  27.938
69519W        W70383  24.905  18.198  27.725
69520W        W70384  24.664  14.706  28.793
69521W        W70385  22.357  14.932  28.623
69522W        W70386  22.911  16.022  27.507
69523W        W70387  23.105  15.635  25.608
69524W        W70388  22.007  17.417  28.352
69525W        W70389  23.423  16.153  27.414
69526W        W70390  23.140  15.130  25.772
69527W        W70391  22.610  15.922  26.306
69528W        W70392  22.078  18.180  28.026
69529W        W70393  24.850  16.152  26.163
69530W        W70394  25.038  15.040  28.641
69531W        W70395  24.850  17.298  27.013
69532W        W70396  22.141  16.178  28.945
69533W        W70397  25.303  14.692  26.180
69534W        W70398  24.855  17.013  26.085
69535W        W70399  23.489  15.973  26.320
69536W        W70400  24.603  15.152  25.772
69537W        W70401  24.611  15.805  27.966
69538W        W70402  22.523  16.170  27.180
69539W        W70403  22.764  17.105  26.703
69540W        W70404  24.636  15.795  26.876
69541W        W70405  23.560  15.219  27.550
69542W        W70406  25.430  17.170  27.904
69543W        W70407  25.502  15.191  27.597
69544W        W70408  21.932  17.941  27.100
69545W        W70409  22.322  17.132  26.373
69546W        W70410  22.497  14.766   0.106
69547W        W70411  23.542  17.570   0.109
69548W        W70412  25.206  16.465  27.081
69549W        W70413  24.691  16.551  25.880
69550W        W70414  24.174  18.238  28.012
69551W        W70415  24.723  16.892  28.923
69552W        W70416  23.403  14.587  26.289
69553W        W70417  24.260  15.569  27.173
69554W        W70418  22.040  17.127  27.534
69555W        W70419  23.052  15.065  26.290
69556W        W70420  22.992  16.514  28.842
69557W        W70421  23.894  15.629  26.762
69558W        W70422  24.366  17.160  27.873
69559W        W70423  22.500  17.558  28.263
69560W        W70424  22.948  17.560   0.017
69561W        W70425  22.738  15.528  25.995
69562W        W70426  24.326  15.361  26.167
69563W        W70427  24.212  17.595  28.565
69564W        W70428  23.029  16.219  27.047
69565W        W70429  22.515  17.922  27.896
69566W        W70430  25.383  18.054  25.606
69567W        W70431  22.195  16.647  28.706
69568W        W70432  23.981  16.840  27.231
69569W        W70433  22.696  16.305  26.656
69570W        W70434  22.952  17.632  28.008
69571W        W70435  23.319  14.787  27.062
69572W        W70436  21.991  16.690  26.102
69573W        W70437  23.526  15.860  25.794
69574W        W70438  22.196  16.377  26.823
69575W        W70439  23.436  15.023  28.302
69576W        W70440  25.052  14.966  25.566
69577W        W70441  25.209  16.725  28.788
69578W        W70442  23.975  17.960  28.835
69579W        W70443  25.417  16.943  28.373
69580W        W70444  24.950  17.683   0.076
69581W        W70445  22.633  18.219  27.475
69582W        W70446  25.452  16.646  26.637
69583W        W70447  24.185  16.045  26.985
69584W        W70448  23.795  14.677  26.871
69585W        W70449  22.956  17.583  26.701
69586W        W70450  23.332  15.429  27.980
69587W        W70451  23.002  14.661  27.447
69588W        W70452  22.091  18.075  25.932
69589W        W70453  23.656  16.780  26.786
69590W        W70454  22.764  17.994  28.344
69591W        W70455  22.300  16.339  26.310
69592W        W70456  22.146  15.331  27.266
69593W        W70457  23.541  17.118  27.192
69594W        W70458  22.139  15.043  26.270
69595W        W70459  24.484  16.214  28.264
69596W        W70460  24.583  15.657  25.834
69597W        W70461  25.098  17.265  27.471
69598W        W70462  23.664  17.583  27.407
69599W        W70463  22.993  17.834  26.203
69600W        W70464  24.242  14.786  25.626
69601W        W70465  22.163  18.002  27.540
69602W        W70466  24.317  15.702  28.968
69603W        W70467  22.367  15.279   0.022
69604W        W70468  22.121  15.913  26.554
69605W        W70469  23.055  15.973  26.038
69606W        W70470  24.501  16.143  28.775
69607W        W70471  22.900  16.558  27.471
69608W        W70472  24.334  14.872  26.737
69609W        W70473  23.476  18.006  27.179
69610W        W70474  24.745  17.838  28.066
69611W        W70475  24.529  17.695  27.200
69612W        W70476  24.213  16.541  26.798
69613W        W70477  23.523  15.057  26.100
69614W        W70478  25.544  14.706  26.909
69615W        W70479  22.971  16.164  25.573
69616W        W70480  25.379  15.620  26.907
69617W        W70481  23.851  16.631  25.770
69618W        W70482  24.878  16.965  28.437
69619W        W70483  25.148  17.434  26.010
69620W        W70484  23.214  15.213  28.751
69621W        W70485  23.100  15.884  27.971
69622W        W70486  25.150  17.394  28.328
69623W        W70487  24.134  15.354  28.615
69624W        W70488  22.077  15.919  28.504
69625W        W70489  23.890  16.321  27.988
69626W        W70490  22.305  17.041  26.901
69627W        W70491  22.337  16.281  27.646
69628W        W70492  24.567  16.704  28.106
69629W        W70493  24.494  17.916  28.908
69630W        W70494  24.418  15.741  28.463
69631W        W70495  24.972  17.828  26.879
69632W        W70496  23.712  17.588  27.945
69633W        W70497  22.884  17.763  27.519
69634W        W70498  24.888  17.154  27.941
69635W        W70499  23.817  17.159  28.954
69636W        W70500  22.506  17.008  27.373
69637W        W70501  24.797  16.784  27.125
69638W        W70502  24.427  17.977  27.640
69639W        W70503  22.414  17.524  27.567
69640W        W70504  23.408  15.695  28.845
69641W        W70505  23.749  17.876  26.432
69642W        W70506  23.306  17.223  28.794
69643W        W70507  23.352  17.501  26.359
69644W        W70508  22.631  15.785  25.460
69645W        W70509  21.886  21.802   3.409
69646W        W70510  22.273  20.787   2.985
69647W        W70511  25.118  20.637   0.711
69648W        W70512  25.339  21.550   2.608
69649W        W70513  23.074  21.611   0.226
69650W        W70514  23.092  19.678   1.168
69651W        W70515  22.734  19.413   1.480
69652W        W70516  23.731  20.287   0.771
69653W        W70517  23.254  21.503   2.560
69654W        W70518  21.907  18.960   2.929
69655W        W70519  22.542  18.182   2.845
69656W        W70520  24.450  18.636   1.667
69657W        W70521  24.033  19.372   0.479
69658W        W70522  24.666  18.981   3.215
69659W        W70523  22.007  18.619   2.550
69660W        W70524  21.948  21.304   3.457
69661W        W70525  23.384  20.801   0.448
69662W        W70526  22.009  19.420   2.022
69663W        W70527  23.027  19.500   3.163
69664W        W70528  25.312  19.176   1.773
69665W        W70529  25.209  20.334   2.548
69666W        W70530  23.474  19.749   1.525
69667W        W70531  24.097  21.110   2.017
69668W        W70532  22.462  20.387   2.199
69669W        W70533  21.718  19.980   1.983
69670W        W70534  23.084  19.935   2.890
69671W        W70535  25.137  19.641   3.111
69672W        W70536  22.726  21.057   1.626
69673W        W70537  23.934  20.869   2.530
69674W        W70538  23.487  19.421   1.941
69675W        W70539  23.380  20.258   1.647
69676W        W70540  24.247  21.124   3.431
69677W        W70541  23.473  20.283   3.263
69678W        W70542  23.588  20.059   2.804
69679W        W70543  21.940  19.291   3.326
69680W        W70544  24.625  20.954   3.104
69681W        W70545  22.365  18.519   1.116
69682W        W70546  22.750  20.825   2.139
69683W        W70547  25.374  20.427   1.556
69684W        W70548  24.911  18.756   1.874
69685W        W70549  25.147  19.010   0.081
69686W        W70550  25.475  19.804   2.360
69687W        W70551  23.326  21.563   2.063
69688W        W70552  25.306  21.127   0.605
69689W        W70553  22.376  21.887   0.619
69690W        W70554  22.701  21.783   1.048
69691W        W70555  22.506  18.494   2.411
69692W        W70556  25.056  19.540   2.569
69693W        W70557  24.622  19.958   1.249
69694W        W70558  24.518  19.598   0.465
69695W        W70559  23.732  20.750   2.074
69696W        W70560  23.792  19.341   1.545
69697W        W70561  24.143  21.333   2.482
69698W        W70562  25.036  20.137   0.873
69699W        W70563  24.030  18.628   1.095
69700W        W70564  22.610  21.376   0.723
69701W        W70565  22.028  18.889   1.200
69702W        W70566  24.764  19.267   1.858
69703W        W70567  22.205  21.177   1.614
69704W        W70568  23.460  21.384   0.461
69705W        W70569  24.708  19.476  28.982
69706W        W70570  21.952  21.314   2.246
69707W        W70571  22.665  20.897   2.668
69708W        W70572  22.987  20.273   1.297
69709W        W70573  22.936  18.653   2.175
69710W        W70574  25.450  18.304   1.809
69711W        W70575  22.499  20.228   0.001
69712W        W70576  22.592  19.223   0.291
69713W        W70577  22.423  21.118   1.159
69714W        W70578  23.097  20.832   1.281
69715W        W70579  24.908  21.572   2.880
69716W        W70580  23.826  19.006   0.785
69717W        W70581  25.111  21.695   1.511
69718W        W70582  24.706  19.404   2.918
69719W        W70583  25.504  20.972   1.423
69720W        W70584  24.069  20.392   2.666
69721W        W70585  21.845  19.884   1.137
69722W        W70586  22.889  20.482   2.473
69723W        W70587  24.288  19.618   0.925
69724W        W70588  24.145  20.095   1.022
69725W        W70589  22.325  19.431   2.415
69726W        W70590  22.312  19.371   2.928
69727W        W70591  22.273  18.360   1.601
69728W        W70592  24.059  18.622   2.039
69729W        W70593  23.753  18.778   3.221
69730W        W70594  24.267  18.691   0.593
69731W        W70595  25.372  21.465   3.115
69732W        W70596  24.114  18.387   3.147
69733W        W70597  25.105  20.808   3.290
69734W        W70598  24.744  18.914   2.712
69735W        W70599  24.496  18.844   1.198
69736W        W70600  24.802  19.957   3.375
69737W        W70601  22.544  21.526   1.480
69738W        W70602  23.441  19.341   0.967
69739W        W70603  22.652  18.575   3.170
69740W        W70604  24.927  19.109   0.942
69741W        W70605  25.299  19.458   0.782
69742W        W70606  22.897  21.677   3.219
69743W        W70607  22.957  18.295   0.627
69744W        W70608  25.319  18.717   1.560
69745W        W70609  25.386  21.080   0.107
69746W        W70610  21.986  20.433   2.011
69747W        W70611  24.270  18.706   0.056
69748W        W70612  25.326  21.139   1.884
69749W        W70613  25.346  18.343   2.376
69750W        W70614  23.884  19.635   3.044
69751W        W70615  23.722  20.816   0.831
69752W        W70616  24.306  20.148   3.475
69753W        W70617  24.056  18.298   1.569
69754W        W70618  22.511  19.257   1.929
69755W        W70619  22.224  20.369   2.658
69756W        W70620  24.011  21.437   1.571
69757W        W70621  24.992  19.074   2.272
69758W        W70622  23.752  21.624   2.619
69759W        W70623  25.321  20.561   0.191
69760W        W70624  23.440  20.075   1.134
69761W        W70625  25.355  18.369   2.902
69762W        W70626  23.572  20.513   2.519
69763W        W70627  23.909  19.121   1.999
69764W        W70628  24.826  19.621   0.907
69765W        W70629  24.925  19.290   0.453
69766W        W70630  24.894  21.082   0.923
69767W        W70631  24.420  20.747   1.767
69768W        W70632  24.564  20.030   0.723
69769W        W70633  23.865  20.086   1.454
69770W        W70634  24.885  19.955   1.774
69771W        W70635  22.215  18.953   2.223
69772W        W70636  24.919  20.012   2.831
69773W        W70637  25.336  21.602   2.095
69774W        W70638  23.197  21.260   1.576
69775W        W70639  24.470  21.717   2.606
69776W        W70640  24.092  18.990   2.458
69777W        W70641  23.465  21.969   2.378
69778W        W70642  25.214  18.691   1.061
69779W        W70643  24.946  19.981   2.290
69780W        W70644  21.814  19.183   2.458
69781W        W70645  24.920  19.005   1.438
69782W        W70646  25.150  19.152   2.964
69783W        W70647  23.951  20.864   1.577
69784W        W70648  23.390  21.537   1.155
69785W        W70649  22.577  18.703   0.488
69786W        W70650  23.635  18.326   2.000
69787W        W70651  22.567  21.589   0.236
69788W        W70652  23.068  20.027   0.779
69789W        W70653  23.740  20.651   2.983
69790W        W70654  23.616  18.956   1.246
69791W        W70655  24.890  18.461   1.441
69792W        W70656  24.609  21.772   1.640
69793W        W70657  23.850  21.583   2.076
69794W        W70658  23.255  20.543   2.116
69795W        W70659  25.073  21.197   2.339
69796W        W70660  22.835  18.658   0.967
69797W        W70661  23.190  21.060   2.050
69798W        W70662  22.835  18.817   0.047
69799W        W70663  23.630  19.272   2.413
69800W        W70664  24.489  18.348   2.106
69801W        W70665  21.784  20.229   2.424
69802W        W70666  23.694  19.708   0.180
69803W        W70667  22.925  18.305   0.113
69804W        W70668  23.802  19.682   1.111
69805W        W70669  24.391  18.560   2.561
69806W        W70670  23.206  20.434   2.856
69807W        W70671  23.957  20.156   3.127
69808W        W70672  24.467  20.208   2.978
69809W        W70673  23.775  18.460   3.615
69810W        W70674  22.938  18.997   1.763
69811W        W70675  22.560  18.925   1.392
69812W        W70676  22.230  21.585   1.010
69813W        W70677  23.599  21.151   2.832
69814W        W70678  22.908  20.606   0.435
69815W        W70679  24.373  20.060   1.699
69816W        W70680  24.543  19.706   2.063
69817W        W70681  23.676  20.221   2.116
69818W        W70682  24.407  20.570   0.103
69819W        W70683  23.974  18.821   1.573
69820W        W70684  25.601  19.043   0.784
69821W        W70685  22.001  21.515   2.982
69822W        W70686  22.208  20.825   2.351
69823W        W70687  21.866  21.806   0.713
69824W        W70688  23.627  18.762   2.288
69825W        W70689  22.978  21.143   0.432
69826W        W70690  25.024  21.541   0.691
69827W        W70691  24.058  19.900   0.526
69828W        W70692  22.953  19.160   1.064
69829W        W70693  23.838  18.884   0.297
69830W        W70694  24.233  20.619   3.147
69831W        W70695  24.761  18.598   0.819
69832W        W70696  21.977  18.379   0.328
69833W        W70697  23.204  20.908   2.559
69834W        W70698  22.929  20.582   1.718
69835W        W70699  23.211  20.585  28.985
69836W        W70700  21.958  21.129   0.904
69837W        W70701  22.608  19.847   3.067
69838W        W70702  23.155  18.568   3.180
69839W        W70703  23.898  18.571   2.711
69840W        W70704  23.221  18.314   1.128
69841W        W70705  24.156  18.170   0.774
69842W        W70706  22.122  18.445   2.084
69843W        W70707  22.181  19.268   1.536
69844W        W70708  24.966  18.253   1.941
69845W        W70709  22.459  19.021   0.891
69846W        W70710  24.880  18.565   2.353
69847W        W70711  25.425  19.825   0.129
69848W        W70712  22.516  18.731   1.876
69849W        W70713  23.772  19.132   2.870
69850W        W70714  21.817  18.883   0.311
69851W        W70715  22.666  20.390   2.932
69852W        W70716  23.880  19.780   1.878
69853W        W70717  23.896  21.641   0.362
69854W        W70718  21.974  20.251   0.204
69855W        W70719  22.752  20.889   3.180
69856W        W70720  22.226  19.843   2.708
69857W        W70721  23.238  20.110   2.434
69858W        W70722  24.815  18.372   2.837
69859W        W70723  25.440  19.982   2.852
69860W        W70724  25.409  20.177   0.526
69861W        W70725  24.229  20.393   0.580
69862W        W70726  24.811  21.765   0.254
69863W        W70727  24.047  19.688   3.520
69864W        W70728  22.346  20.998   3.546
69865W        W70729  25.532  18.813   3.408
69866W        W70730  25.128  19.568   2.047
69867W        W70731  23.406  21.584   3.037
69868W        W70732  23.379  18.410   0.337
69869W        W70733  24.903  20.857   0.147
69870W        W70734  22.762  19.095   3.006
69871W        W70735  23.011  21.247   2.930
69872W        W70736  25.264  18.794   2.608
69873W        W70737  24.638  21.892   0.757
69874W        W70738  24.651  20.358   2.011
69875W        W70739  22.887  18.691   2.709
69876W        W70740  23.478  19.758   3.307
69877W        W70741  22.794  20.895   0.860
69878W        W70742  24.659  20.454   1.005
69879W        W70743  22.390  18.895   2.726
69880W        W70744  23.585  21.076   1.284
69881W        W70745  25.539  19.670   1.447
69882W        W70746  23.589  18.324   3.058
69883W        W70747  24.587  21.063   2.152
69884W        W70748  24.889  21.433   1.913
69885W        W70749  23.827  21.045   0.339
69886W        W70750  21.839  20.833   3.263
69887W        W70751  22.721  19.087   2.376
69888W        W70752  22.761  18.453   1.464
69889W        W70753  24.493  18.882   2.137
69890W        W70754  23.338  20.286   0.421
69891W        W70755  25.164  20.402   2.032
69892W        W70756  22.470  21.315   3.105
69893W        W70757  25.100  21.901   1.030
69894W        W70758  23.152  18.775   1.360
69895W        W70759  22.542  20.237   1.653
69896W        W70760  22.954  21.872   2.299
69897W        W70761  25.096  21.931   3.191
69898W        W70762  24.196  20.085   2.202
69899W        W70763  22.160  19.593   0.279
69900W        W70764  25.291  21.393   1.117
69901W        W70765  25.165  18.844   0.569
69902W        W70766  23.093  18.218   2.764
69903W        W70767  24.996  21.178   1.471
69904W        W70768  25.031  19.531   1.487
69905W        W70769  23.264  19.281   1.473
69906W        W70770  23.435  19.552   2.822
69907W        W70771  24.434  20.755   2.672
69908W        W70772  23.148  19.157   2.678
69909W        W70773  23.023  21.721   1.463
69910W        W70774  22.408  21.840   3.094
69911W        W70775  22.471  21.077   0.295
69912W        W70776  25.089  20.712   1.232
69913W        W70777  22.764  19.522   2.691
69914W        W70778  25.494  19.308   0.329
69915W        W70779  23.244  20.531   0.884
69916W        W70780  24.070  19.891   2.665
69917W        W70781  24.101  19.521   2.286
69918W        W70782  22.684  20.019   2.538
69919W        W70783  24.902  21.702   2.350
69920W        W70784  24.630  18.480   3.357
69921W        W70785  22.168  18.503   3.029
69922W        W70786  22.710  19.690   2.134
69923W        W70787  23.086  19.326   0.147
69924W        W70788  21.892  21.053   2.728
69925W        W70789  23.316  19.887   1.989
69926W        W70790  23.335  18.878   0.174
69927W        W70791  22.610  19.890   1.252
69928W        W70792  22.078  21.781   2.551
69929W        W70793  25.022  19.806   0.472
69930W        W70794  25.080  18.690   3.170
69931W        W70795  24.605  20.871   1.311
69932W        W70796  22.115  19.776   3.223
69933W        W70797  25.196  18.332   0.582
69934W        W70798  24.628  20.738   0.569
69935W        W70799  23.530  19.793   0.674
69936W        W70800  24.745  18.669   0.292
69937W        W70801  24.566  19.306   2.404
69938W        W70802  22.369  19.730   1.718
69939W        W70803  22.611  20.649   1.312
69940W        W70804  24.585  19.361   1.272
69941W        W70805  23.483  18.905   1.775
69942W        W70806  25.412  20.798   2.384
69943W        W70807  25.374  18.761   2.090
69944W        W70808  21.960  21.591   1.425
69945W        W70809  22.278  20.709   0.868
69946W        W70810  22.290  18.563   3.583
69947W        W70811  23.261  21.272   3.421
69948W        W70812  25.155  20.020   1.350
69949W        W70813  24.890  20.317   0.378
69950W        W70814  24.079  21.939   2.347
69951W        W70815  24.714  20.472   3.349
69952W        W70816  23.456  18.089   0.720
69953W        W70817  24.306  19.184   1.670
69954W        W70818  21.882  20.921   1.901
69955W        W70819  23.352  18.740   0.844
69956W        W70820  22.999  20.467   3.324
69957W        W70821  24.100  19.185   1.177
69958W        W70822  24.249  20.615   2.224
69959W        W70823  22.336  21.299   2.597
69960W        W70824  22.764  21.294   3.530
69961W        W70825  23.000  18.994   0.558
69962W        W70826  24.442  19.154   0.783
69963W        W70827  24.127  21.078   2.940
69964W        W70828  22.948  19.867   1.638
69965W        W70829  22.493  21.679   2.271
69966W        W70830  25.319  21.585   0.250
69967W        W70831  22.071  20.315   3.170
69968W        W70832  24.023  20.413   1.812
69969W        W70833  22.707  20.384   0.877
69970W        W70834  22.840  21.281   2.375
69971W        W70835  23.584  18.500   1.475
69972W        W70836  21.830  20.647   0.535
69973W        W70837  23.508  19.290   0.454
69974W        W70838  22.033  20.129   1.590
69975W        W70839  23.411  18.718   2.759
69976W        W70840  25.218  18.503   0.100
69977W        W70841  25.167  20.297   3.177
69978W        W70842  23.919  21.515   3.092
69979W        W70843  25.418  20.654   2.891
69980W        W70844  24.918  21.301   3.326
69981W        W70845  22.640  21.958   1.837
69982W        W70846  25.461  20.405   1.045
69983W        W70847  24.194  19.658   1.443
69984W        W70848  23.761  18.180   1.127
69985W        W70849  22.903  21.312   1.158
69986W        W70850  23.213  19.074   2.186
69987W        W70851  23.171  18.418   1.768
69988W        W70852  22.142  21.430   0.506
69989W        W70853  23.643  20.535   1.267
69990W        W70854  22.724  21.625   2.734
69991W        W70855  22.269  20.268   1.157
69992W        W70856  22.029  18.812   1.717
69993W        W70857  23.415  20.769   1.673
69994W        W70858  22.087  18.696   0.717
69995W        W70859  24.548  19.778   2.584
69996W        W70860  24.455  19.122   0.281
69997W        W70861  24.927  20.810   1.826
69998W        W70862  23.634  21.202   1.814
69999W        W70863  23.083  21.591   0.742
70000W        W70864  24.353  18.246   0.293
70001W        W70865  22.182  21.638   1.871
70002W        W70866  24.233  19.266   3.291
70003W        W70867  22.322  18.954   3.241
70004W        W70868  22.124  19.419   1.045
70005W        W70869  23.059  19.506   0.655
70006W        W70870  24.384  19.740   3.131
70007W        W70871  22.894  20.175   2.047
70008W        W70872  24.459  18.318   1.182
70009W        W70873  23.543  21.683   1.624
70010W        W70874  24.630  21.222   2.639
70011W        W70875  24.489  21.249   1.657
70012W        W70876  24.271  20.455   1.363
70013W        W70877  23.778  18.495   0.655
70014W        W70878  25.513  18.311   1.284
70015W        W70879  23.188  19.825   0.264
70016W        W70880  25.359  19.198   1.234
70017W        W70881  23.798  20.479   0.292
70018W        W70882  24.873  20.568   2.862
70019W        W70883  24.716  21.244   0.431
70020W        W70884  23.305  19.061   3.149
70021W        W70885  23.170  19.576   2.370
70022W        W70886  25.090  21.075   2.847
70023W        W70887  24.237  18.877   2.949
70024W        W70888  21.818  19.492   2.876
70025W        W70889  23.654  19.778   2.371
70026W        W70890  22.110  20.715   1.370
70027W        W70891  22.215  19.930   2.182
70028W        W70892  24.587  20.291   2.502
70029W        W70893  24.447  21.469   3.081
70030W        W70894  24.220  19.380   2.773
70031W        W70895  24.750  21.542   1.170
70032W        W70896  23.610  21.201   2.325
70033W        W70897  22.845  21.488   1.905
70034W        W70898  24.881  20.703   2.361
70035W        W70899  23.735  21.065   3.323
70036W        W70900  22.374  20.720   1.809
70037W        W70901  24.787  20.397   1.514
70038W        W70902  24.397  21.549   2.088
70039W        W70903  22.426  21.208   2.066
70040W        W70904  23.719  19.281   3.364
70041W        W70905  23.782  21.359   0.863
70042W        W70906  23.286  20.853   3.128
70043W        W70907  23.280  21.102   0.864
70044W        W70908  22.684  19.722   0.125
70045W        W70909  21.855  21.825   7.119
70046W        W70910  22.318  20.752   6.599
70047W        W70911  24.962  20.335   4.202
70048W        W70912  25.289  21.501   6.408
70049W        W70913  22.777  21.624   3.927
70050W        W70914  23.524  19.637   4.826
70051W        W70915  22.841  19.489   5.285
70052W        W70916  23.675  20.518   3.970
70053W        W70917  23.517  21.564   6.785
70054W        W70918  21.882  18.939   6.646
70055W        W70919  22.511  18.109   6.475
70056W        W70920  24.542  18.649   5.343
70057W        W70921  24.244  19.310   3.826
70058W        W70922  24.623  19.106   6.838
70059W        W70923  22.004  18.616   6.235
70060W        W70924  22.157  21.428   7.209
70061W        W70925  23.378  20.808   3.640
70062W        W70926  21.932  19.334   5.727
70063W        W70927  23.135  19.531   6.811
70064W        W70928  25.401  19.177   5.405
70065W        W70929  25.197  20.227   6.167
70066W        W70930  23.746  19.587   5.289
70067W        W70931  24.149  21.036   5.682
70068W        W70932  22.433  20.239   5.961
70069W        W70933  21.705  19.796   5.623
70070W        W70934  23.065  19.917   6.450
70071W        W70935  25.156  19.711   6.831
70072W        W70936  22.728  21.014   5.386
70073W        W70937  23.940  20.935   6.490
70074W        W70938  23.418  19.428   5.656
70075W        W70939  23.445  20.282   5.446
70076W        W70940  24.317  21.318   7.193
70077W        W70941  23.524  20.327   7.177
70078W        W70942  23.589  20.179   6.647
70079W        W70943  21.467  19.178   6.866
70080W        W70944  24.664  21.005   6.928
70081W        W70945  22.347  18.495   4.842
70082W        W70946  22.907  20.802   5.828
70083W        W70947  25.364  20.665   5.261
70084W        W70948  25.010  18.942   5.674
70085W        W70949  25.095  19.084   3.524
70086W        W70950  25.654  19.686   6.074
70087W        W70951  23.316  21.554   6.017
70088W        W70952  25.301  21.066   4.244
70089W        W70953  22.317  21.819   4.084
70090W        W70954  22.675  21.848   4.758
70091W        W70955  22.580  18.495   6.128
70092W        W70956  25.188  19.706   6.309
70093W        W70957  24.522  19.844   4.774
70094W        W70958  24.504  19.757   3.780
70095W        W70959  23.721  20.963   6.005
70096W        W70960  23.778  19.052   5.107
70097W        W70961  24.176  21.231   6.171
70098W        W70962  24.984  19.960   4.548
70099W        W70963  24.182  18.517   4.513
70100W        W70964  22.549  21.483   4.386
70101W        W70965  21.998  18.866   4.884
70102W        W70966  24.563  19.577   5.235
70103W        W70967  22.220  21.055   5.455
70104W        W70968  23.299  21.665   3.907
70105W        W70969  24.712  19.439   3.439
70106W        W70970  21.996  21.128   5.913
70107W        W70971  22.731  20.678   6.291
70108W        W70972  23.103  20.403   5.048
70109W        W70973  23.017  18.633   5.887
70110W        W70974  25.509  18.375   5.485
70111W        W70975  22.482  20.514   3.411
70112W        W70976  22.213  19.075   3.724
70113W        W70977  22.363  21.099   4.978
70114W        W70978  22.931  20.897   4.926
70115W        W70979  24.847  21.453   6.713
70116W        W70980  23.950  19.127   4.201
70117W        W70981  25.208  21.618   5.394
70118W        W70982  24.728  19.584   6.565
70119W        W70983  25.641  21.062   5.070
70120W        W70984  24.078  20.394   6.513
70121W        W70985  21.874  19.916   4.751
70122W        W70986  22.940  20.278   6.051
70123W        W70987  24.239  19.497   4.394
70124W        W70988  24.029  19.921   4.612
70125W        W70989  22.345  19.375   6.106
70126W        W70990  22.287  19.334   6.613
70127W        W70991  22.319  18.289   5.308
70128W        W70992  24.041  18.749   5.557
70129W        W70993  23.721  18.836   6.804
70130W        W70994  24.227  18.690   3.982
70131W        W70995  25.305  21.408   6.971
70132W        W70996  24.133  18.438   6.759
70133W        W70997  25.140  20.898   7.099
70134W        W70998  24.705  18.986   6.341
70135W        W70999  24.579  18.786   4.825
70136W        W71000  24.850  20.012   7.118
70137W        W71001  22.531  21.486   5.280
70138W        W71002  23.447  19.044   4.063
70139W        W71003  22.640  18.555   6.697
70140W        W71004  24.916  19.080   4.528
70141W        W71005  25.238  19.526   4.380
70142W        W71006  22.862  21.774   7.084
70143W        W71007  22.910  18.292   4.139
70144W        W71008  25.251  18.731   5.213
70145W        W71009  25.321  21.123   3.654
70146W        W71010  22.192  20.206   5.508
70147W        W71011  24.222  18.774   3.464
70148W        W71012  25.449  21.101   5.548
70149W        W71013  25.355  18.397   5.987
70150W        W71014  23.961  19.834   6.751
70151W        W71015  23.432  20.931   4.202
70152W        W71016  24.402  20.138   7.340
70153W        W71017  24.126  18.286   5.359
70154W        W71018  22.436  19.293   5.575
70155W        W71019  22.114  20.354   6.350
70156W        W71020  24.433  21.367   5.364
70157W        W71021  25.306  19.331   5.904
70158W        W71022  24.007  21.702   6.612
70159W        W71023  25.143  20.203   3.702
70160W        W71024  23.696  20.084   5.034
70161W        W71025  25.356  18.439   6.529
70162W        W71026  23.634  20.563   6.314
70163W        W71027  23.944  19.244   5.603
70164W        W71028  24.733  19.544   4.396
70165W        W71029  24.856  19.355   3.943
70166W        W71030  24.976  21.269   4.633
70167W        W71031  24.902  20.443   5.332
70168W        W71032  24.490  19.989   4.266
70169W        W71033  23.989  20.228   5.435
70170W        W71034  25.008  19.931   5.303
70171W        W71035  22.219  18.923   5.879
70172W        W71036  24.918  20.103   6.605
70173W        W71037  25.443  21.515   5.843
70174W        W71038  23.130  21.279   5.233
70175W        W71039  24.498  21.644   6.368
70176W        W71040  24.214  19.100   6.097
70177W        W71041  23.551  21.863   6.360
70178W        W71042  25.192  18.662   4.678
70179W        W71043  25.151  19.839   5.815
70180W        W71044  21.858  19.127   6.180
70181W        W71045  24.815  19.086   5.184
70182W        W71046  25.121  19.249   6.534
70183W        W71047  24.136  20.742   5.233
70184W        W71048  23.239  21.595   4.813
70185W        W71049  22.469  18.645   4.070
70186W        W71050  23.640  18.452   5.754
70187W        W71051  22.358  21.626   3.579
70188W        W71052  23.247  20.654   4.606
70189W        W71053  23.694  20.659   6.826
70190W        W71054  23.704  18.659   4.731
70191W        W71055  24.895  18.412   5.036
70192W        W71056  24.732  21.741   5.544
70193W        W71057  23.792  21.432   5.793
70194W        W71058  23.352  20.546   5.867
70195W        W71059  25.258  21.106   6.062
70196W        W71060  22.806  18.563   4.577
70197W        W71061  23.298  21.129   5.746
70198W        W71062  22.873  18.952   3.481
70199W        W71063  23.799  19.495   6.026
70200W        W71064  24.467  18.366   5.780
70201W        W71065  21.910  20.146   5.951
70202W        W71066  23.764  20.088   3.647
70203W        W71067  22.878  18.449   3.630
70204W        W71068  24.000  19.444   4.848
70205W        W71069  24.378  18.588   6.237
70206W        W71070  23.160  20.442   6.486
70207W        W71071  24.008  20.287   7.015
70208W        W71072  24.488  20.305   6.837
70209W        W71073  23.776  18.496   7.190
70210W        W71074  22.993  19.021   5.504
70211W        W71075  22.465  18.983   5.128
70212W        W71076  22.238  21.578   4.780
70213W        W71077  23.873  21.196   6.928
70214W        W71078  22.219  20.810   4.171
70215W        W71079  24.501  20.120   5.356
70216W        W71080  24.651  19.783   5.697
70217W        W71081  23.836  20.331   5.909
70218W        W71082  24.354  20.660   3.653
70219W        W71083  24.121  18.670   5.032
70220W        W71084  25.423  19.033   4.396
70221W        W71085  22.089  21.514   6.707
70222W        W71086  22.275  20.752   6.085
70223W        W71087  21.878  21.674   4.337
70224W        W71088  23.730  18.940   5.972
70225W        W71089  23.100  21.197   3.923
70226W        W71090  25.282  21.582   4.331
70227W        W71091  24.051  19.797   4.025
70228W        W71092  23.603  19.141   4.615
70229W        W71093  23.838  18.951   3.738
70230W        W71094  24.205  20.766   6.896
70231W        W71095  24.749  18.555   4.397
70232W        W71096  21.976  18.252   3.900
70233W        W71097  23.245  20.885   6.228
70234W        W71098  23.214  20.777   5.387
70235W        W71099  22.851  20.805   3.681
70236W        W71100  22.088  21.178   4.514
70237W        W71101  22.640  19.704   6.661
70238W        W71102  23.166  18.601   6.776
70239W        W71103  23.884  18.601   6.335
70240W        W71104  23.229  18.368   4.847
70241W        W71105  24.385  18.208   4.147
70242W        W71106  22.208  18.418   5.793
70243W        W71107  21.988  19.233   5.241
70244W        W71108  24.995  18.413   5.570
70245W        W71109  22.433  18.939   4.591
70246W        W71110  24.863  18.581   6.035
70247W        W71111  25.166  19.622   3.623
70248W        W71112  22.578  18.719   5.573
70249W        W71113  23.798  19.177   6.423
70250W        W71114  21.874  18.756   3.948
70251W        W71115  22.607  20.188   6.449
70252W        W71116  24.144  19.728   5.617
70253W        W71117  23.637  21.673   3.498
70254W        W71118  21.882  20.068   3.628
70255W        W71119  22.905  21.026   6.609
70256W        W71120  22.232  19.834   6.349
70257W        W71121  23.430  20.104   6.147
70258W        W71122  24.793  18.464   6.527
70259W        W71123  25.460  20.060   6.577
70260W        W71124  25.388  20.034   4.213
70261W        W71125  24.149  20.290   3.950
70262W        W71126  24.716  21.759   3.501
70263W        W71127  23.982  19.828   7.262
70264W        W71128  22.567  20.961   6.996
70265W        W71129  25.538  18.820   7.140
70266W        W71130  24.987  19.450   5.508
70267W        W71131  23.428  21.603   7.283
70268W        W71132  23.376  18.446   3.970
70269W        W71133  24.934  20.701   3.789
70270W        W71134  22.790  19.107   6.772
70271W        W71135  23.434  21.079   6.658
70272W        W71136  25.246  18.870   6.222
70273W        W71137  24.991  21.862   3.970
70274W        W71138  24.804  20.314   5.822
70275W        W71139  22.918  18.822   6.365
70276W        W71140  23.524  19.829   7.014
70277W        W71141  22.580  20.992   4.521
70278W        W71142  24.650  20.346   4.634
70279W        W71143  22.399  18.904   6.387
70280W        W71144  23.404  21.094   4.832
70281W        W71145  25.417  19.616   5.127
70282W        W71146  23.613  18.346   6.694
70283W        W71147  24.597  20.907   5.924
70284W        W71148  24.943  21.264   5.672
70285W        W71149  23.608  21.247   3.814
70286W        W71150  22.017  21.020   6.931
70287W        W71151  22.702  19.029   5.959
70288W        W71152  22.799  18.568   5.127
70289W        W71153  24.485  19.284   5.668
70290W        W71154  23.265  20.308   3.736
70291W        W71155  25.312  20.308   5.652
70292W        W71156  22.602  21.435   6.785
70293W        W71157  25.117  21.869   4.731
70294W        W71158  23.293  18.831   5.026
70295W        W71159  22.917  20.370   5.539
70296W        W71160  23.037  21.942   6.189
70297W        W71161  25.021  21.876   6.959
70298W        W71162  24.311  20.114   5.939
70299W        W71163  22.042  19.588   3.723
70300W        W71164  25.383  21.461   4.878
70301W        W71165  25.032  18.884   4.052
70302W        W71166  23.026  18.286   6.343
70303W        W71167  25.094  21.125   5.184
70304W        W71168  24.955  19.573   4.888
70305W        W71169  23.322  19.307   5.175
70306W        W71170  23.551  19.663   6.510
70307W        W71171  24.482  20.865   6.450
70308W        W71172  23.301  19.124   6.540
70309W        W71173  22.956  21.768   5.218
70310W        W71174  22.355  21.871   6.979
70311W        W71175  22.601  21.130   4.009
70312W        W71176  25.278  20.876   4.767
70313W        W71177  22.859  19.361   6.326
70314W        W71178  25.389  19.261   3.920
70315W        W71179  22.929  20.762   4.196
70316W        W71180  24.370  19.956   6.473
70317W        W71181  24.330  19.610   6.084
70318W        W71182  22.691  19.805   6.100
70319W        W71183  24.962  21.656   6.011
70320W        W71184  24.652  18.592   7.015
70321W        W71185  22.129  18.487   6.725
70322W        W71186  22.899  19.462   5.787
70323W        W71187  23.264  19.311   3.608
70324W        W71188  21.947  21.099   6.425
70325W        W71189  23.660  19.888   5.714
70326W        W71190  23.363  18.791   3.594
70327W        W71191  22.654  19.913   5.576
70328W        W71192  22.081  21.560   6.191
70329W        W71193  24.942  19.850   4.033
70330W        W71194  25.095  18.794   6.824
70331W        W71195  24.802  20.764   4.936
70332W        W71196  22.121  19.753   6.870
70333W        W71197  25.223  18.422   4.187
70334W        W71198  24.901  20.785   4.424
70335W        W71199  23.727  19.569   4.356
70336W        W71200  24.711  18.505   3.888
70337W        W71201  24.822  19.418   6.055
70338W        W71202  22.121  19.740   5.289
70339W        W71203  22.596  20.570   5.136
70340W        W71204  24.517  19.306   4.792
70341W        W71205  23.500  18.929   5.523
70342W        W71206  25.485  20.643   6.053
70343W        W71207  25.531  18.856   5.788
70344W        W71208  22.016  21.460   5.209
70345W        W71209  22.225  20.688   4.724
70346W        W71210  22.287  18.537   7.277
70347W        W71211  23.457  21.078   7.194
70348W        W71212  25.488  20.144   5.198
70349W        W71213  24.650  20.249   3.821
70350W        W71214  24.040  21.761   6.107
70351W        W71215  24.785  20.531   7.196
70352W        W71216  23.545  18.242   4.451
70353W        W71217  24.281  19.124   5.210
70354W        W71218  21.936  20.642   5.694
70355W        W71219  23.285  18.697   4.428
70356W        W71220  23.117  20.144   6.908
70357W        W71221  24.125  19.001   4.653
70358W        W71222  24.155  20.686   6.091
70359W        W71223  22.450  21.195   6.353
70360W        W71224  23.074  21.323   6.989
70361W        W71225  22.987  18.797   3.992
70362W        W71226  24.490  19.057   4.245
70363W        W71227  24.311  21.286   6.676
70364W        W71228  23.284  19.819   5.270
70365W        W71229  22.589  21.651   6.069
70366W        W71230  25.217  21.623   3.576
70367W        W71231  22.221  20.270   6.832
70368W        W71232  24.360  20.534   5.645
70369W        W71233  22.727  20.512   4.638
70370W        W71234  22.916  21.244   6.123
70371W        W71235  23.673  18.535   5.231
70372W        W71236  21.841  20.446   4.015
70373W        W71237  23.724  19.442   3.849
70374W        W71238  22.236  20.204   4.977
70375W        W71239  23.389  18.663   6.278
70376W        W71240  25.164  18.534   3.661
70377W        W71241  25.227  20.341   6.975
70378W        W71242  23.920  21.689   7.117
70379W        W71243  25.375  20.581   6.547
70380W        W71244  24.867  21.367   7.234
70381W        W71245  22.580  21.910   5.604
70382W        W71246  25.606  20.491   4.840
70383W        W71247  24.144  19.841   5.119
70384W        W71248  23.884  18.205   4.879
70385W        W71249  22.775  21.371   4.851
70386W        W71250  23.224  19.091   6.006
70387W        W71251  23.206  18.503   5.432
70388W        W71252  22.137  21.336   3.980
70389W        W71253  23.596  20.627   5.069
70390W        W71254  23.079  21.520   6.510
70391W        W71255  22.072  20.298   4.449
70392W        W71256  22.093  18.746   5.392
70393W        W71257  23.747  20.695   5.567
70394W        W71258  22.053  18.635   4.421
70395W        W71259  24.760  19.927   6.159
70396W        W71260  24.615  18.971   3.722
70397W        W71261  25.078  20.765   5.702
70398W        W71262  23.626  21.140   5.344
70399W        W71263  23.010  21.721   4.373
70400W        W71264  24.243  18.269   3.644
70401W        W71265  22.226  21.532   5.680
70402W        W71266  24.163  19.341   7.073
70403W        W71267  22.322  18.920   6.932
70404W        W71268  21.986  19.395   4.747
70405W        W71269  23.355  19.798   3.804
70406W        W71270  24.421  19.785   6.952
70407W        W71271  23.143  19.930   5.745
70408W        W71272  24.411  18.270   4.918
70409W        W71273  23.400  21.626   5.501
70410W        W71274  24.799  21.231   6.257
70411W        W71275  24.652  20.901   5.414
70412W        W71276  24.222  20.308   4.947
70413W        W71277  23.769  18.657   4.215
70414W        W71278  25.502  18.323   4.953
70415W        W71279  23.018  19.961   3.408
70416W        W71280  25.249  19.161   4.906
70417W        W71281  23.853  20.571   3.487
70418W        W71282  24.877  20.608   6.694
70419W        W71283  24.959  21.341   3.944
70420W        W71284  23.288  19.032   7.062
70421W        W71285  23.271  19.596   6.109
70422W        W71286  25.151  21.043   6.598
70423W        W71287  24.212  18.922   6.595
70424W        W71288  21.804  19.466   6.569
70425W        W71289  23.912  19.949   6.245
70426W        W71290  22.095  20.628   5.216
70427W        W71291  22.225  19.766   5.805
70428W        W71292  24.575  20.392   6.296
70429W        W71293  24.474  21.740   6.920
70430W        W71294  24.232  19.437   6.562
70431W        W71295  24.833  21.556   5.054
70432W        W71296  23.703  21.375   6.326
70433W        W71297  22.898  21.482   5.662
70434W        W71298  24.978  20.704   6.207
70435W        W71299  23.818  20.749   7.317
70436W        W71300  22.462  20.635   5.626
70437W        W71301  25.121  20.350   4.864
70438W        W71302  24.502  21.442   5.874
70439W        W71303  22.517  21.146   5.844
70440W        W71304  23.681  19.347   6.896
70441W        W71305  23.465  21.449   4.343
70442W        W71306  23.197  20.714   6.932
70443W        W71307  23.040  21.196   4.453
70444W        W71308  22.526  19.409   3.390
70445W        W71309  21.847  21.914  10.717
70446W        W71310  22.355  20.832  10.227
70447W        W71311  25.093  20.377   8.018
70448W        W71312  25.040  21.603   9.959
70449W        W71313  22.984  21.612   7.575
70450W        W71314  23.470  19.614   8.362
70451W        W71315  22.921  19.668   9.003
70452W        W71316  23.788  20.205   8.072
70453W        W71317  23.406  21.568  10.370
70454W        W71318  21.933  19.015  10.271
70455W        W71319  22.537  18.407  10.071
70456W        W71320  24.557  18.656   9.036
70457W        W71321  24.321  19.413   7.939
70458W        W71322  24.638  19.137  10.635
70459W        W71323  22.097  18.647   9.892
70460W        W71324  22.063  21.473  10.867
70461W        W71325  23.459  20.910   7.702
70462W        W71326  22.193  19.354   9.332
70463W        W71327  23.080  19.615  10.461
70464W        W71328  24.870  19.108   9.373
70465W        W71329  25.170  20.629   9.858
70466W        W71330  23.793  19.523   8.981
70467W        W71331  24.295  21.127   9.479
70468W        W71332  22.410  20.335   9.558
70469W        W71333  21.912  19.742   9.145
70470W        W71334  23.067  20.032  10.079
70471W        W71335  25.231  19.752  10.554
70472W        W71336  22.882  21.042   9.019
70473W        W71337  24.063  20.935   9.981
70474W        W71338  23.358  19.503   9.251
70475W        W71339  23.459  20.308   8.905
70476W        W71340  24.111  21.228  10.780
70477W        W71341  23.576  20.317  10.752
70478W        W71342  23.544  20.212  10.242
70479W        W71343  21.508  19.260  10.575
70480W        W71344  24.687  20.966  10.616
70481W        W71345  22.256  18.465   8.325
70482W        W71346  22.886  20.834   9.502
70483W        W71347  25.401  20.735   8.952
70484W        W71348  24.456  18.823   9.514
70485W        W71349  24.883  19.001   7.277
70486W        W71350  25.502  19.755   9.750
70487W        W71351  23.551  21.453   9.446
70488W        W71352  25.347  21.103   7.994
70489W        W71353  22.420  21.703   8.010
70490W        W71354  22.750  21.739   8.430
70491W        W71355  22.766  18.591   9.638
70492W        W71356  25.117  19.650  10.062
70493W        W71357  24.649  20.023   8.731
70494W        W71358  24.412  19.608   7.441
70495W        W71359  23.810  20.888   9.526
70496W        W71360  23.792  18.993   8.777
70497W        W71361  24.111  21.435   9.852
70498W        W71362  24.998  19.994   8.347
70499W        W71363  24.206  18.501   8.177
70500W        W71364  22.642  21.286   8.183
70501W        W71365  21.900  18.864   8.450
70502W        W71366  24.618  19.546   9.014
70503W        W71367  22.281  21.117   9.082
70504W        W71368  23.457  21.437   7.769
70505W        W71369  24.796  19.485   7.127
70506W        W71370  22.076  21.192   9.559
70507W        W71371  22.823  20.894   9.989
70508W        W71372  23.375  20.149   8.414
70509W        W71373  23.270  18.653   9.592
70510W        W71374  25.470  18.452   9.074
70511W        W71375  22.744  20.518   6.806
70512W        W71376  22.138  19.006   7.453
70513W        W71377  22.510  21.096   8.633
70514W        W71378  23.273  20.766   8.660
70515W        W71379  24.846  21.507  10.462
70516W        W71380  23.877  19.013   7.884
70517W        W71381  25.333  21.588   8.833
70518W        W71382  24.764  19.625  10.440
70519W        W71383  25.629  21.173   8.805
70520W        W71384  24.202  20.422  10.103
70521W        W71385  22.028  19.949   8.658
70522W        W71386  23.044  20.388   9.674
70523W        W71387  24.325  19.778   8.342
70524W        W71388  24.206  20.268   8.410
70525W        W71389  22.359  19.420   9.816
70526W        W71390  22.409  19.475  10.341
70527W        W71391  22.331  18.338   8.874
70528W        W71392  24.036  18.787   9.197
70529W        W71393  23.770  18.858  10.489
70530W        W71394  24.124  18.665   7.603
70531W        W71395  25.418  21.499  10.577
70532W        W71396  24.125  18.444  10.516
70533W        W71397  25.219  20.973  10.636
70534W        W71398  24.779  18.940  10.176
70535W        W71399  24.594  18.796   8.470
70536W        W71400  24.889  19.980  10.862
70537W        W71401  22.634  21.514   8.920
70538W        W71402  23.343  18.987   7.599
70539W        W71403  22.667  18.663  10.502
70540W        W71404  24.894  19.131   8.192
70541W        W71405  25.257  19.499   8.205
70542W        W71406  22.913  21.644  10.611
70543W        W71407  22.731  18.021   7.812
70544W        W71408  25.248  18.917   9.062
70545W        W71409  25.338  21.225   7.470
70546W        W71410  22.149  20.227   9.096
70547W        W71411  24.200  18.819   7.101
70548W        W71412  25.375  21.202   9.233
70549W        W71413  25.360  18.367   9.789
70550W        W71414  23.923  19.644  10.307
70551W        W71415  23.832  20.822   8.088
70552W        W71416  24.408  20.116  10.888
70553W        W71417  24.168  18.291   9.162
70554W        W71418  22.582  19.220   9.022
70555W        W71419  22.143  20.415   9.986
70556W        W71420  24.062  21.524   8.740
70557W        W71421  25.113  19.175   9.844
70558W        W71422  24.054  21.767  10.234
70559W        W71423  25.135  20.244   7.487
70560W        W71424  23.825  19.942   8.542
70561W        W71425  25.523  18.334  10.325
70562W        W71426  23.762  20.499   9.859
70563W        W71427  23.837  19.230   9.393
70564W        W71428  24.762  19.625   8.088
70565W        W71429  24.822  19.350   7.661
70566W        W71430  24.952  21.351   8.275
70567W        W71431  24.605  20.878   9.148
70568W        W71432  24.585  20.107   8.060
70569W        W71433  23.967  20.257   8.928
70570W        W71434  24.896  19.962   9.221
70571W        W71435  22.400  18.955   9.572
70572W        W71436  24.941  20.097  10.320
70573W        W71437  25.346  21.619   9.522
70574W        W71438  23.382  21.226   8.911
70575W        W71439  24.547  21.748  10.087
70576W        W71440  24.175  19.044   9.866
70577W        W71441  23.658  21.734   9.897
70578W        W71442  25.139  18.681   8.316
70579W        W71443  25.054  20.069   9.732
70580W        W71444  21.931  19.132   9.753
70581W        W71445  24.792  19.082   8.846
70582W        W71446  25.131  19.249  10.417
70583W        W71447  24.245  21.018   8.789
70584W        W71448  23.503  21.533   8.514
70585W        W71449  22.438  18.476   7.778
70586W        W71450  23.679  18.378   9.371
70587W        W71451  22.463  21.781   7.489
70588W        W71452  23.446  20.376   7.691
70589W        W71453  23.690  20.718  10.321
70590W        W71454  23.725  18.626   8.388
70591W        W71455  24.996  18.520   8.779
70592W        W71456  24.544  21.941   9.057
70593W        W71457  24.055  21.601   9.351
70594W        W71458  23.488  20.477   9.403
70595W        W71459  25.228  21.124   9.721
70596W        W71460  22.841  18.438   8.127
70597W        W71461  23.338  20.983   9.344
70598W        W71462  22.795  18.743   7.150
70599W        W71463  23.679  19.627   9.654
70600W        W71464  24.570  18.339   9.512
70601W        W71465  21.923  20.160   9.559
70602W        W71466  23.664  19.868   7.666
70603W        W71467  22.824  18.257   7.344
70604W        W71468  23.971  19.429   8.522
70605W        W71469  24.461  18.578   9.977
70606W        W71470  23.128  20.539  10.221
70607W        W71471  24.040  20.335  10.573
70608W        W71472  24.545  20.418  10.480
70609W        W71473  23.776  18.518  10.887
70610W        W71474  23.031  19.069   9.259
70611W        W71475  22.379  18.832   8.686
70612W        W71476  22.264  21.576   8.526
70613W        W71477  23.851  21.269  10.332
70614W        W71478  23.005  20.649   7.813
70615W        W71479  24.404  20.137   9.184
70616W        W71480  24.564  19.708   9.495
70617W        W71481  23.962  20.281   9.447
70618W        W71482  24.312  20.639   7.388
70619W        W71483  24.154  18.608   8.713
70620W        W71484  25.429  19.019   8.075
70621W        W71485  22.076  21.596  10.326
70622W        W71486  22.390  20.816   9.704
70623W        W71487  21.949  21.823   8.143
70624W        W71488  23.770  18.796   9.648
70625W        W71489  23.017  21.168   7.839
70626W        W71490  25.243  21.585   7.892
70627W        W71491  24.199  19.929   7.776
70628W        W71492  23.588  19.112   8.317
70629W        W71493  23.780  19.008   7.324
70630W        W71494  24.172  20.824  10.470
70631W        W71495  24.727  18.495   8.053
70632W        W71496  21.913  18.313   7.626
70633W        W71497  23.339  20.783   9.819
70634W        W71498  23.059  20.543   9.126
70635W        W71499  22.991  20.956   7.362
70636W        W71500  22.081  21.262   8.162
70637W        W71501  22.659  19.941  10.391
70638W        W71502  23.089  18.386  10.474
70639W        W71503  23.955  18.598  10.069
70640W        W71504  23.247  18.377   8.458
70641W        W71505  24.402  18.229   7.751
70642W        W71506  22.290  18.462   9.446
70643W        W71507  22.112  19.299   8.811
70644W        W71508  25.022  18.450   9.300
70645W        W71509  22.087  18.830   7.953
70646W        W71510  24.912  18.702   9.730
70647W        W71511  25.184  19.692   7.381
70648W        W71512  22.639  18.727   9.152
70649W        W71513  23.732  19.235  10.023
70650W        W71514  21.663  18.760   7.656
70651W        W71515  22.657  20.374  10.015
70652W        W71516  24.086  19.756   9.349
70653W        W71517  23.837  21.782   7.637
70654W        W71518  21.826  19.899   7.298
70655W        W71519  22.840  20.940  10.484
70656W        W71520  22.343  19.915   9.977
70657W        W71521  23.454  20.082   9.731
70658W        W71522  24.944  18.350  10.108
70659W        W71523  25.483  20.061  10.209
70660W        W71524  25.203  19.890   7.881
70661W        W71525  24.219  20.456   7.914
70662W        W71526  24.726  21.829   7.404
70663W        W71527  23.985  19.859  10.783
70664W        W71528  22.402  20.831  10.747
70665W        W71529  25.587  18.639  10.761
70666W        W71530  25.047  19.582   9.545
70667W        W71531  23.347  21.686  10.880
70668W        W71532  23.196  18.259   7.769
70669W        W71533  25.087  20.768   7.622
70670W        W71534  22.813  19.162  10.411
70671W        W71535  23.303  21.065  10.264
70672W        W71536  25.290  18.767  10.092
70673W        W71537  24.735  21.728   7.932
70674W        W71538  24.754  20.406   9.446
70675W        W71539  22.943  18.779  10.093
70676W        W71540  23.522  19.834  10.598
70677W        W71541  22.949  20.883   8.276
70678W        W71542  24.723  20.431   8.412
70679W        W71543  22.446  18.970  10.097
70680W        W71544  23.754  21.064   8.583
70681W        W71545  25.125  19.429   9.047
70682W        W71546  23.608  18.368  10.388
70683W        W71547  24.847  21.273   9.415
70684W        W71548  24.968  21.697   9.172
70685W        W71549  23.846  21.282   7.455
70686W        W71550  22.001  21.086  10.550
70687W        W71551  22.853  19.135   9.749
70688W        W71552  22.814  18.525   8.711
70689W        W71553  24.335  19.282   9.357
70690W        W71554  23.040  20.440   7.335
70691W        W71555  25.280  20.324   9.283
70692W        W71556  22.468  21.295  10.454
70693W        W71557  25.087  21.855   8.314
70694W        W71558  23.305  18.805   8.712
70695W        W71559  22.666  20.126   9.177
70696W        W71560  23.218  21.833   9.619
70697W        W71561  25.157  21.931  10.524
70698W        W71562  24.361  20.117   9.702
70699W        W71563  21.942  19.287   7.044
70700W        W71564  25.452  21.489   8.350
70701W        W71565  25.015  18.858   7.781
70702W        W71566  23.115  18.329   9.968
70703W        W71567  24.978  21.217   8.921
70704W        W71568  24.903  19.558   8.591
70705W        W71569  23.369  19.301   8.781
70706W        W71570  23.459  19.700  10.107
70707W        W71571  24.549  20.833  10.140
70708W        W71572  23.212  19.243  10.106
70709W        W71573  23.138  21.689   8.861
70710W        W71574  22.430  21.758  10.681
70711W        W71575  22.654  21.347   7.305
70712W        W71576  25.257  20.999   8.508
70713W        W71577  22.796  19.576  10.032
70714W        W71578  25.320  19.187   7.530
70715W        W71579  23.378  20.599   8.164
70716W        W71580  24.342  19.943  10.384
70717W        W71581  24.169  19.565   9.817
70718W        W71582  22.762  19.965   9.671
70719W        W71583  24.942  21.982   9.599
70720W        W71584  24.632  18.529  10.482
70721W        W71585  22.167  18.569  10.400
70722W        W71586  22.707  19.507   9.437
70723W        W71587  23.480  19.452   7.360
70724W        W71588  21.933  21.172  10.046
70725W        W71589  23.640  19.956   9.242
70726W        W71590  23.271  18.556   7.306
70727W        W71591  22.992  20.158   8.779
70728W        W71592  22.117  21.698   9.810
70729W        W71593  24.765  19.904   7.628
70730W        W71594  25.109  18.736  10.559
70731W        W71595  24.743  20.885   8.631
70732W        W71596  22.120  19.898  10.462
70733W        W71597  25.186  18.381   7.838
70734W        W71598  24.917  20.842   8.131
70735W        W71599  23.894  19.671   8.082
70736W        W71600  24.629  18.637   7.534
70737W        W71601  24.624  19.293   9.803
70738W        W71602  22.399  19.724   8.971
70739W        W71603  22.765  20.644   8.709
70740W        W71604  24.486  19.308   8.439
70741W        W71605  23.512  18.876   9.192
70742W        W71606  25.660  20.876   9.971
70743W        W71607  25.393  18.812   9.554
70744W        W71608  21.945  21.553   8.930
70745W        W71609  22.471  20.720   8.284
70746W        W71610  22.316  18.589  10.900
70747W        W71611  23.567  21.214  10.753
70748W        W71612  25.168  20.054   8.820
70749W        W71613  24.689  20.431   7.688
70750W        W71614  24.136  21.945   9.732
70751W        W71615  24.888  20.511  10.860
70752W        W71616  23.593  18.223   8.101
70753W        W71617  24.278  19.117   8.865
70754W        W71618  22.054  20.699   9.305
70755W        W71619  23.308  18.708   8.063
70756W        W71620  23.115  20.157  10.582
70757W        W71621  24.109  18.976   8.348
70758W        W71622  24.299  20.625   9.647
70759W        W71623  22.432  21.282   9.944
70760W        W71624  23.074  21.202  10.841
70761W        W71625  22.914  18.675   7.663
70762W        W71626  24.464  18.921   7.963
70763W        W71627  24.363  21.291  10.313
70764W        W71628  23.385  19.814   8.826
70765W        W71629  22.769  21.619   9.742
70766W        W71630  25.230  21.724   7.403
70767W        W71631  22.160  20.418  10.504
70768W        W71632  24.124  20.698   9.179
70769W        W71633  22.909  20.372   8.299
70770W        W71634  23.135  21.251   9.750
70771W        W71635  23.669  18.466   8.872
70772W        W71636  21.958  20.759   8.289
70773W        W71637  23.952  19.429   7.582
70774W        W71638  22.488  20.202   8.700
70775W        W71639  23.460  18.765  10.062
70776W        W71640  25.131  18.557   7.342
70777W        W71641  25.316  20.240  10.696
70778W        W71642  23.835  21.672  10.692
70779W        W71643  25.500  20.599  10.370
70780W        W71644  25.068  21.367  10.944
70781W        W71645  22.722  21.862   9.297
70782W        W71646  25.211  20.481   8.540
70783W        W71647  24.205  19.790   8.844
70784W        W71648  23.941  18.162   8.538
70785W        W71649  23.003  21.292   8.570
70786W        W71650  23.384  19.157   9.637
70787W        W71651  23.182  18.470   9.104
70788W        W71652  22.037  21.508   7.702
70789W        W71653  23.750  20.519   8.524
70790W        W71654  22.898  21.374  10.185
70791W        W71655  22.182  20.290   8.295
70792W        W71656  22.134  18.862   9.131
70793W        W71657  23.656  20.759   8.999
70794W        W71658  21.747  18.486   8.114
70795W        W71659  24.638  19.805   9.984
70796W        W71660  24.385  19.104   7.488
70797W        W71661  25.071  20.802   9.320
70798W        W71662  23.874  21.198   9.109
70799W        W71663  23.140  21.570   8.148
70800W        W71664  24.265  18.315   7.246
70801W        W71665  22.272  21.605   9.314
70802W        W71666  24.034  19.275  10.648
70803W        W71667  22.340  19.036  10.607
70804W        W71668  21.894  19.401   8.363
70805W        W71669  23.516  19.392   7.877
70806W        W71670  24.419  19.588  10.798
70807W        W71671  23.150  20.035   9.298
70808W        W71672  24.551  18.294   8.545
70809W        W71673  23.636  21.674   8.993
70810W        W71674  24.617  21.295   9.875
70811W        W71675  24.480  21.410   9.068
70812W        W71676  24.412  20.507   8.813
70813W        W71677  23.632  18.570   7.693
70814W        W71678  25.458  18.289   8.574
70815W        W71679  23.228  19.959   7.408
70816W        W71680  25.226  19.145   8.590
70817W        W71681  23.927  20.288   7.524
70818W        W71682  24.991  20.611  10.348
70819W        W71683  24.889  21.242   7.750
70820W        W71684  23.238  18.888  10.513
70821W        W71685  23.160  19.638   9.692
70822W        W71686  25.003  21.100  10.176
70823W        W71687  24.277  18.900  10.351
70824W        W71688  21.951  19.511  10.128
70825W        W71689  23.920  20.005   9.938
70826W        W71690  22.226  20.645   8.752
70827W        W71691  22.313  19.840   9.462
70828W        W71692  24.708  20.384   9.963
70829W        W71693  24.376  21.687  10.642
70830W        W71694  24.367  19.389  10.252
70831W        W71695  24.782  21.649   8.687
70832W        W71696  23.630  21.208   9.885
70833W        W71697  23.050  21.448   9.291
70834W        W71698  24.745  20.854   9.686
70835W        W71699  23.815  20.765  10.840
70836W        W71700  22.541  20.651   9.168
70837W        W71701  24.900  20.474   8.950
70838W        W71702  24.534  21.675   9.530
70839W        W71703  22.603  21.241   9.449
70840W        W71704  23.536  19.327  10.498
70841W        W71705  23.831  21.388   8.135
70842W        W71706  23.302  20.743  10.667
70843W        W71707  23.394  21.118   8.208
70844W        W71708  22.467  19.397   7.086
70845W        W71709  21.842  22.064  14.328
70846W        W71710  22.261  20.752  13.810
70847W        W71711  25.300  20.247  11.745
70848W        W71712  25.346  21.731  13.677
70849W        W71713  22.917  21.572  11.162
70850W        W71714  23.347  19.594  11.919
70851W        W71715  22.810  19.416  12.530
70852W        W71716  23.737  20.272  11.555
70853W        W71717  23.480  21.677  13.956
70854W        W71718  21.934  18.865  13.932
70855W        W71719  22.552  18.090  13.836
70856W        W71720  24.509  18.621  12.647
70857W        W71721  24.132  19.339  11.150
70858W        W71722  24.725  19.087  14.152
70859W        W71723  22.003  18.552  13.541
70860W        W71724  22.053  21.589  14.415
70861W        W71725  23.357  20.834  11.169
70862W        W71726  22.080  19.275  12.997
70863W        W71727  23.187  19.406  13.945
70864W        W71728  25.262  19.226  12.726
70865W        W71729  25.262  20.431  13.573
70866W        W71730  23.593  19.761  12.418
70867W        W71731  24.253  20.960  12.773
70868W        W71732  22.525  20.244  13.155
70869W        W71733  21.808  19.703  12.870
70870W        W71734  23.187  19.916  13.855
70871W        W71735  25.295  19.794  14.095
70872W        W71736  22.855  21.030  12.573
70873W        W71737  24.018  20.878  13.662
70874W        W71738  23.222  19.351  12.897
70875W        W71739  23.455  20.219  12.683
70876W        W71740  24.182  21.170  14.222
70877W        W71741  23.869  20.481  14.394
70878W        W71742  23.690  20.053  13.831
70879W        W71743  21.348  19.228  14.138
70880W        W71744  24.691  21.174  14.014
70881W        W71745  22.310  18.518  12.196
70882W        W71746  23.187  20.949  12.965
70883W        W71747  25.369  20.612  12.558
70884W        W71748  24.581  19.054  12.938
70885W        W71749  25.210  19.030  10.967
70886W        W71750  25.587  19.599  13.320
70887W        W71751  23.633  21.693  13.101
70888W        W71752  25.572  20.890  11.937
70889W        W71753  22.296  21.675  11.705
70890W        W71754  22.725  21.651  12.071
70891W        W71755  22.449  18.380  13.342
70892W        W71756  25.111  19.600  13.526
70893W        W71757  24.563  19.802  12.182
70894W        W71758  24.636  19.685  11.246
70895W        W71759  23.944  20.787  13.149
70896W        W71760  23.743  18.995  12.332
70897W        W71761  24.313  21.161  13.246
70898W        W71762  25.057  19.917  12.078
70899W        W71763  24.253  18.547  11.799
70900W        W71764  22.647  21.298  11.709
70901W        W71765  21.895  18.854  12.211
70902W        W71766  24.581  19.436  12.592
70903W        W71767  22.276  21.090  12.719
70904W        W71768  23.348  21.339  11.263
70905W        W71769  24.952  19.463  10.884
70906W        W71770  22.011  21.168  13.169
70907W        W71771  23.024  21.075  13.421
70908W        W71772  23.103  20.234  12.275
70909W        W71773  22.764  18.717  13.096
70910W        W71774  25.573  18.341  12.813
70911W        W71775  22.689  20.454  10.518
70912W        W71776  22.268  19.053  11.119
70913W        W71777  22.499  21.096  12.217
70914W        W71778  23.144  20.752  12.240
70915W        W71779  24.895  21.653  13.916
70916W        W71780  23.765  19.240  11.496
70917W        W71781  25.280  21.595  12.349
70918W        W71782  24.862  19.565  13.975
70919W        W71783  25.511  21.103  12.423
70920W        W71784  24.249  20.466  13.450
70921W        W71785  21.958  19.863  12.046
70922W        W71786  22.905  20.592  13.238
70923W        W71787  24.203  19.469  11.650
70924W        W71788  24.070  19.898  12.017
70925W        W71789  22.428  19.276  13.374
70926W        W71790  22.241  19.293  13.855
70927W        W71791  22.249  18.265  12.638
70928W        W71792  24.002  18.711  12.819
70929W        W71793  24.093  18.851  11.370
70930W        W71794  25.383  21.482  14.140
70931W        W71795  24.120  18.437  14.104
70932W        W71796  25.108  20.965  14.257
70933W        W71797  24.744  18.808  13.724
70934W        W71798  24.527  18.828  12.154
70935W        W71799  24.849  19.989  14.315
70936W        W71800  22.587  21.484  12.568
70937W        W71801  23.313  19.014  11.375
70938W        W71802  22.726  18.521  14.056
70939W        W71803  24.941  19.040  11.894
70940W        W71804  25.251  19.505  11.833
70941W        W71805  23.030  21.681  14.186
70942W        W71806  22.771  18.259  11.559
70943W        W71807  25.355  18.730  12.558
70944W        W71808  25.564  21.158  10.994
70945W        W71809  22.122  20.193  12.845
70946W        W71810  24.234  18.846  10.869
70947W        W71811  25.444  21.446  12.813
70948W        W71812  25.335  18.314  13.309
70949W        W71813  24.005  19.586  13.951
70950W        W71814  23.680  20.792  11.584
70951W        W71815  24.378  20.268  14.320
70952W        W71816  24.154  18.235  12.645
70953W        W71817  22.578  19.171  12.904
70954W        W71818  22.119  20.416  13.441
70955W        W71819  24.145  21.614  12.426
70956W        W71820  25.231  19.176  13.255
70957W        W71821  23.971  21.712  13.792
70958W        W71822  25.197  20.269  11.213
70959W        W71823  23.569  20.055  12.001
70960W        W71824  25.396  18.340  13.851
70961W        W71825  23.737  20.452  13.508
70962W        W71826  23.720  19.360  12.698
70963W        W71827  24.725  19.484  11.740
70964W        W71828  25.056  19.369  11.373
70965W        W71829  25.141  21.167  12.060
70966W        W71830  24.909  20.720  12.764
70967W        W71831  24.471  19.913  11.678
70968W        W71832  23.947  20.123  12.509
70969W        W71833  24.939  19.813  12.583
70970W        W71834  22.257  18.806  13.125
70971W        W71835  24.977  20.035  13.767
70972W        W71836  25.419  21.820  13.168
70973W        W71837  23.352  21.146  12.521
70974W        W71838  24.473  21.809  13.633
70975W        W71839  24.299  18.951  13.418
70976W        W71840  23.611  21.978  13.549
70977W        W71841  25.278  18.654  12.018
70978W        W71842  25.119  20.008  13.238
70979W        W71843  21.970  19.051  13.457
70980W        W71844  24.871  18.990  12.492
70981W        W71845  25.092  19.160  13.775
70982W        W71846  24.037  20.659  12.403
70983W        W71847  23.455  21.496  12.129
70984W        W71848  22.369  18.623  11.435
70985W        W71849  23.636  18.373  13.033
70986W        W71850  22.436  21.719  11.188
70987W        W71851  23.281  20.027  11.558
70988W        W71852  23.623  20.709  13.967
70989W        W71853  23.686  18.597  11.968
70990W        W71854  24.933  18.490  12.363
70991W        W71855  24.468  21.920  12.726
70992W        W71856  24.065  21.464  12.910
70993W        W71857  23.405  20.517  13.123
70994W        W71858  25.212  21.365  13.294
70995W        W71859  22.707  18.634  11.884
70996W        W71860  23.638  21.187  12.977
70997W        W71861  22.784  18.943  10.903
70998W        W71862  23.653  19.384  13.212
70999W        W71863  24.552  18.348  13.128
71000W        W71864  21.855  20.019  13.278
71001W        W71865  23.610  19.968  11.148
71002W        W71866  22.837  18.391  10.952
71003W        W71867  23.822  19.439  12.044
71004W        W71868  24.385  18.465  13.657
71005W        W71869  23.230  20.577  13.641
71006W        W71870  24.051  20.413  13.926
71007W        W71871  24.557  20.297  13.856
71008W        W71872  23.773  18.453  14.515
71009W        W71873  22.988  18.937  12.687
71010W        W71874  22.677  18.984  12.268
71011W        W71875  22.207  21.510  12.224
71012W        W71876  23.755  21.235  13.926
71013W        W71877  22.978  20.591  11.460
71014W        W71878  24.429  19.931  12.667
71015W        W71879  24.454  19.565  13.065
71016W        W71880  23.867  20.289  13.005
71017W        W71881  24.358  20.640  10.911
71018W        W71882  24.088  18.614  12.297
71019W        W71883  25.421  19.033  11.694
71020W        W71884  22.097  21.529  13.902
71021W        W71885  22.434  20.808  13.328
71022W        W71886  21.835  21.576  11.888
71023W        W71887  23.759  18.871  13.254
71024W        W71888  22.890  21.082  11.314
71025W        W71889  25.431  21.281  11.496
71026W        W71890  24.137  19.857  11.277
71027W        W71891  23.475  19.071  11.885
71028W        W71892  23.715  19.002  11.013
71029W        W71893  24.418  20.736  14.085
71030W        W71894  24.799  18.552  11.825
71031W        W71895  21.911  18.269  11.297
71032W        W71896  23.534  20.948  13.441
71033W        W71897  23.052  20.541  12.701
71034W        W71898  22.878  20.711  10.951
71035W        W71899  22.137  21.159  11.833
71036W        W71900  22.668  19.950  13.943
71037W        W71901  23.221  18.482  14.219
71038W        W71902  23.888  18.592  13.668
71039W        W71903  23.288  18.301  12.165
71040W        W71904  24.546  18.569  11.367
71041W        W71905  22.004  18.349  13.084
71042W        W71906  22.231  19.149  12.503
71043W        W71907  25.049  18.425  12.884
71044W        W71908  22.298  18.962  11.901
71045W        W71909  24.882  18.756  13.236
71046W        W71910  25.325  19.782  11.063
71047W        W71911  22.492  18.717  12.668
71048W        W71912  23.877  19.131  13.700
71049W        W71913  21.853  18.778  11.296
71050W        W71914  22.614  20.399  13.638
71051W        W71915  23.990  19.749  12.908
71052W        W71916  23.719  21.715  11.235
71053W        W71917  21.875  20.142  10.881
71054W        W71918  22.796  20.849  13.806
71055W        W71919  22.333  19.933  13.532
71056W        W71920  23.349  20.108  13.417
71057W        W71921  24.912  18.313  13.647
71058W        W71922  25.479  19.978  13.639
71059W        W71923  25.548  19.822  11.516
71060W        W71924  24.211  20.343  11.761
71061W        W71925  24.827  21.837  10.906
71062W        W71926  23.972  19.992  14.257
71063W        W71927  22.571  20.752  14.260
71064W        W71928  25.513  18.804  14.421
71065W        W71929  24.960  19.546  13.021
71066W        W71930  23.410  21.803  14.525
71067W        W71931  23.216  18.281  11.307
71068W        W71932  25.560  20.652  10.898
71069W        W71933  22.907  18.990  13.812
71070W        W71934  23.266  21.085  13.879
71071W        W71935  25.267  18.744  13.572
71072W        W71936  25.081  21.721  11.395
71073W        W71937  24.781  20.229  12.912
71074W        W71938  22.877  18.546  13.557
71075W        W71939  23.551  19.698  14.201
71076W        W71940  22.773  20.817  11.878
71077W        W71941  24.758  20.281  11.886
71078W        W71942  22.427  18.821  13.661
71079W        W71943  23.578  20.979  12.079
71080W        W71944  25.369  19.594  12.354
71081W        W71945  23.643  18.283  14.025
71082W        W71946  24.802  21.166  13.041
71083W        W71947  24.976  21.641  12.874
71084W        W71948  23.812  21.141  11.207
71085W        W71949  22.009  21.068  14.202
71086W        W71950  22.930  19.160  13.296
71087W        W71951  22.845  18.507  12.379
71088W        W71952  24.092  19.203  13.008
71089W        W71953  23.209  20.309  11.096
71090W        W71954  25.250  20.475  13.064
71091W        W71955  22.449  21.177  13.988
71092W        W71956  25.125  21.871  11.937
71093W        W71957  23.264  18.796  12.275
71094W        W71958  22.651  20.179  12.663
71095W        W71959  23.204  21.915  13.224
71096W        W71960  25.177  21.942  14.263
71097W        W71961  24.332  20.056  13.166
71098W        W71962  21.988  19.416  10.646
71099W        W71963  25.597  21.408  11.990
71100W        W71964  24.979  18.859  11.406
71101W        W71965  23.098  18.133  13.747
71102W        W71966  25.018  21.205  12.573
71103W        W71967  24.910  19.430  12.217
71104W        W71968  23.313  19.307  12.378
71105W        W71969  23.589  19.576  13.682
71106W        W71970  24.537  20.872  13.604
71107W        W71971  23.373  19.107  13.558
71108W        W71972  23.075  21.578  12.466
71109W        W71973  22.528  21.632  14.185
71110W        W71974  22.560  21.279  10.949
71111W        W71975  25.129  20.624  12.084
71112W        W71976  22.769  19.515  13.663
71113W        W71977  25.551  19.330  11.285
71114W        W71978  23.317  20.490  11.828
71115W        W71979  24.183  19.989  13.671
71116W        W71980  24.109  19.516  13.436
71117W        W71981  22.849  19.978  13.455
71118W        W71982  24.934  21.869  13.366
71119W        W71983  24.621  18.581  14.273
71120W        W71984  22.209  18.434  14.011
71121W        W71985  22.810  19.644  13.029
71122W        W71986  23.213  19.247  10.898
71123W        W71987  21.898  21.117  13.665
71124W        W71988  23.471  19.804  12.972
71125W        W71989  23.279  18.681  10.978
71126W        W71990  22.702  19.866  12.261
71127W        W71991  22.004  21.665  13.414
71128W        W71992  25.015  19.876  11.538
71129W        W71993  25.113  18.727  14.098
71130W        W71994  24.559  20.734  12.399
71131W        W71995  21.981  19.766  13.886
71132W        W71996  25.253  18.453  11.553
71133W        W71997  24.991  20.608  11.556
71134W        W71998  23.757  19.751  11.616
71135W        W71999  24.754  18.734  10.934
71136W        W72000  24.736  19.249  13.397
71137W        W72001  22.191  19.724  12.516
71138W        W72002  22.665  20.597  12.350
71139W        W72003  24.396  19.319  12.101
71140W        W72004  23.499  18.908  12.788
71141W        W72005  25.509  20.920  13.423
71142W        W72006  25.492  18.764  13.095
71143W        W72007  21.972  21.529  12.681
71144W        W72008  22.276  20.673  12.014
71145W        W72009  22.296  18.514  14.554
71146W        W72010  23.379  21.326  14.332
71147W        W72011  25.362  20.095  12.480
71148W        W72012  24.687  20.223  11.313
71149W        W72013  24.083  21.826  13.281
71150W        W72014  24.825  20.521  14.343
71151W        W72015  23.503  18.148  11.719
71152W        W72016  24.225  19.071  12.519
71153W        W72017  21.949  20.672  12.995
71154W        W72018  23.217  18.603  11.741
71155W        W72019  23.430  20.262  14.217
71156W        W72020  24.031  18.997  11.895
71157W        W72021  24.546  20.716  13.117
71158W        W72022  22.403  21.294  13.494
71159W        W72023  22.893  21.164  14.243
71160W        W72024  22.887  18.713  11.355
71161W        W72025  24.494  19.013  11.654
71162W        W72026  24.280  21.316  13.735
71163W        W72027  23.109  19.820  12.603
71164W        W72028  22.834  21.557  13.323
71165W        W72029  25.476  21.661  11.083
71166W        W72030  22.211  20.249  13.934
71167W        W72031  24.313  20.425  12.769
71168W        W72032  22.695  20.302  11.933
71169W        W72033  23.354  21.467  13.487
71170W        W72034  23.636  18.501  12.508
71171W        W72035  21.880  20.427  11.331
71172W        W72036  23.669  19.500  10.973
71173W        W72037  22.291  20.192  12.273
71174W        W72038  23.371  18.584  13.694
71175W        W72039  25.195  18.499  11.047
71176W        W72040  25.242  20.320  14.098
71177W        W72041  23.880  21.595  14.294
71178W        W72042  25.449  20.766  13.916
71179W        W72043  24.942  21.449  14.394
71180W        W72044  22.789  21.824  12.910
71181W        W72045  25.601  20.407  12.137
71182W        W72046  24.111  19.595  12.437
71183W        W72047  23.807  18.132  12.202
71184W        W72048  23.006  21.222  12.107
71185W        W72049  23.258  18.739  13.209
71186W        W72050  23.190  18.461  12.760
71187W        W72051  22.187  21.299  11.341
71188W        W72052  23.582  20.484  12.269
71189W        W72053  22.856  21.395  13.794
71190W        W72054  22.180  20.232  11.743
71191W        W72055  21.989  18.702  12.685
71192W        W72056  23.623  20.735  12.717
71193W        W72057  21.982  18.580  11.779
71194W        W72058  24.618  19.764  13.517
71195W        W72059  24.613  19.166  11.168
71196W        W72060  25.316  20.980  12.947
71197W        W72061  23.867  21.160  12.497
71198W        W72062  23.140  21.524  11.702
71199W        W72063  24.246  18.331  11.003
71200W        W72064  22.355  21.525  13.027
71201W        W72065  24.307  19.341  14.300
71202W        W72066  22.389  18.900  14.191
71203W        W72067  21.971  19.340  12.083
71204W        W72068  23.350  19.535  11.378
71205W        W72069  24.437  19.814  14.076
71206W        W72070  23.041  20.130  13.007
71207W        W72071  24.487  18.292  12.211
71208W        W72072  23.608  21.592  12.610
71209W        W72073  24.745  21.352  13.519
71210W        W72074  24.529  21.387  12.680
71211W        W72075  24.372  20.269  12.257
71212W        W72076  23.628  18.607  11.404
71213W        W72077  25.582  18.324  12.260
71214W        W72078  23.160  19.776  10.956
71215W        W72079  25.322  19.119  12.215
71216W        W72080  23.977  20.327  11.093
71217W        W72081  24.923  20.680  13.864
71218W        W72082  25.158  20.870  11.144
71219W        W72083  23.381  18.948  14.058
71220W        W72084  23.196  19.602  13.372
71221W        W72085  25.156  21.172  13.774
71222W        W72086  24.282  18.895  13.937
71223W        W72087  21.717  19.319  13.801
71224W        W72088  23.806  19.915  13.348
71225W        W72089  22.178  20.610  12.530
71226W        W72090  22.304  19.749  13.046
71227W        W72091  24.776  20.367  13.408
71228W        W72092  24.408  21.641  14.122
71229W        W72093  24.436  19.352  13.793
71230W        W72094  24.789  21.704  12.374
71231W        W72095  23.866  21.352  13.420
71232W        W72096  23.185  21.462  12.954
71233W        W72097  25.005  20.844  13.372
71234W        W72098  23.737  20.980  14.426
71235W        W72099  22.568  20.671  12.852
71236W        W72100  24.875  20.300  12.408
71237W        W72101  24.530  21.622  13.142
71238W        W72102  22.697  21.151  13.037
71239W        W72103  23.802  19.202  14.219
71240W        W72104  23.641  21.331  11.677
71241W        W72105  23.247  20.791  14.330
71242W        W72106  23.225  21.004  11.691
71243W        W72107  22.701  19.472  10.795
71244W        W72108  21.949  21.870  18.079
71245W        W72109  22.386  20.859  17.523
71246W        W72110  24.959  20.298  15.142
71247W        W72111  25.293  21.684  17.358
71248W        W72112  22.937  21.458  14.658
71249W        W72113  23.206  19.794  16.133
71250W        W72114  22.877  19.408  16.205
71251W        W72115  23.802  20.332  15.159
71252W        W72116  23.396  21.577  17.678
71253W        W72117  21.940  18.943  17.511
71254W        W72118  22.542  18.120  17.427
71255W        W72119  24.478  18.623  16.274
71256W        W72120  24.164  19.356  15.024
71257W        W72121  24.665  18.979  17.850
71258W        W72122  21.977  18.615  17.115
71259W        W72123  22.121  21.390  18.148
71260W        W72124  23.314  21.097  14.805
71261W        W72125  21.988  19.400  16.602
71262W        W72126  23.274  19.728  17.556
71263W        W72127  25.154  19.086  16.444
71264W        W72128  25.247  20.394  17.241
71265W        W72129  23.708  19.808  16.257
71266W        W72130  24.186  21.156  16.607
71267W        W72131  22.441  20.243  16.904
71268W        W72132  21.708  19.840  16.600
71269W        W72133  23.000  20.126  17.345
71270W        W72134  25.128  19.633  17.783
71271W        W72135  22.768  21.114  16.248
71272W        W72136  23.954  20.986  17.314
71273W        W72137  23.348  19.502  16.541
71274W        W72138  23.395  20.152  16.482
71275W        W72139  24.287  21.298  18.018
71276W        W72140  23.611  20.316  18.015
71277W        W72141  23.532  20.188  17.523
71278W        W72142  22.037  19.291  17.870
71279W        W72143  24.688  21.021  17.685
71280W        W72144  22.364  18.443  15.777
71281W        W72145  22.879  20.882  16.874
71282W        W72146  25.224  20.578  16.238
71283W        W72147  24.647  19.002  16.603
71284W        W72148  24.988  18.964  14.572
71285W        W72149  25.517  19.631  16.982
71286W        W72150  23.456  21.505  16.798
71287W        W72151  25.245  20.715  15.303
71288W        W72152  22.304  21.847  15.227
71289W        W72153  22.613  21.758  15.665
71290W        W72154  22.673  18.473  17.059
71291W        W72155  25.096  19.467  17.250
71292W        W72156  24.512  19.909  15.808
71293W        W72157  24.390  19.812  14.598
71294W        W72158  23.742  21.072  16.847
71295W        W72159  23.757  18.994  15.987
71296W        W72160  24.099  21.411  17.049
71297W        W72161  24.848  19.878  15.425
71298W        W72162  24.170  18.536  15.430
71299W        W72163  22.458  21.367  15.350
71300W        W72164  21.992  18.791  15.835
71301W        W72165  24.726  19.475  16.319
71302W        W72166  22.261  21.162  16.353
71303W        W72167  23.286  21.593  14.997
71304W        W72168  24.782  19.484  14.480
71305W        W72169  22.053  21.255  16.887
71306W        W72170  22.864  21.018  17.381
71307W        W72171  23.022  20.269  16.116
71308W        W72172  23.154  18.652  16.944
71309W        W72173  25.442  18.327  16.476
71310W        W72174  22.951  20.400  14.042
71311W        W72175  22.180  19.012  14.673
71312W        W72176  22.378  21.220  15.845
71313W        W72177  23.099  20.863  15.928
71314W        W72178  24.840  21.498  17.498
71315W        W72179  23.911  18.958  15.270
71316W        W72180  25.229  21.759  16.275
71317W        W72181  24.686  19.414  17.578
71318W        W72182  25.645  20.993  16.086
71319W        W72183  24.126  20.497  17.361
71320W        W72184  21.842  19.955  15.777
71321W        W72185  22.701  20.552  17.226
71322W        W72186  24.182  19.657  15.498
71323W        W72187  24.150  20.186  15.543
71324W        W72188  22.397  19.361  16.955
71325W        W72189  22.379  19.352  17.470
71326W        W72190  22.328  18.289  16.256
71327W        W72191  23.999  18.796  16.463
71328W        W72192  23.812  18.834  17.748
71329W        W72193  24.172  18.699  14.911
71330W        W72194  25.320  21.473  17.826
71331W        W72195  24.164  18.414  17.726
71332W        W72196  25.064  20.968  18.042
71333W        W72197  24.754  18.922  17.346
71334W        W72198  24.501  18.805  15.733
71335W        W72199  24.924  19.952  18.144
71336W        W72200  22.545  21.582  16.166
71337W        W72201  23.429  19.045  15.062
71338W        W72202  22.699  18.513  17.716
71339W        W72203  24.902  19.038  15.537
71340W        W72204  25.151  19.474  15.469
71341W        W72205  23.008  21.552  18.115
71342W        W72206  22.846  18.324  15.166
71343W        W72207  25.265  18.688  16.137
71344W        W72208  25.396  21.225  14.597
71345W        W72209  22.098  20.268  16.494
71346W        W72210  24.161  18.839  14.423
71347W        W72211  25.441  21.293  16.451
71348W        W72212  25.367  18.298  17.048
71349W        W72213  23.920  19.844  17.668
71350W        W72214  23.625  20.912  15.192
71351W        W72215  24.484  20.247  18.151
71352W        W72216  24.092  18.289  16.313
71353W        W72217  22.461  19.216  16.448
71354W        W72218  22.148  20.479  17.265
71355W        W72219  24.263  21.538  16.225
71356W        W72220  25.043  19.056  16.949
71357W        W72221  23.969  21.751  17.422
71358W        W72222  25.147  20.217  14.658
71359W        W72223  23.500  20.164  15.916
71360W        W72224  25.411  18.317  17.585
71361W        W72225  23.669  20.585  17.147
71362W        W72226  23.850  19.332  16.346
71363W        W72227  24.608  19.450  15.288
71364W        W72228  24.979  19.349  14.951
71365W        W72229  25.119  21.134  15.604
71366W        W72230  24.727  20.688  16.263
71367W        W72231  24.420  19.975  15.146
71368W        W72232  23.908  20.287  16.217
71369W        W72233  25.011  19.937  16.428
71370W        W72234  22.218  18.919  16.790
71371W        W72235  24.893  20.106  17.651
71372W        W72236  25.406  21.677  16.784
71373W        W72237  23.256  21.305  16.122
71374W        W72238  24.469  21.751  17.235
71375W        W72239  24.214  18.973  16.985
71376W        W72240  23.499  21.868  17.210
71377W        W72241  25.217  18.637  15.623
71378W        W72242  25.118  19.990  16.936
71379W        W72243  21.857  19.169  17.046
71380W        W72244  24.813  18.985  16.087
71381W        W72245  25.131  19.128  17.640
71382W        W72246  24.250  20.888  16.165
71383W        W72247  23.603  21.534  15.828
71384W        W72248  22.395  18.574  15.056
71385W        W72249  23.686  18.321  16.664
71386W        W72250  22.473  21.677  14.744
71387W        W72251  23.715  19.913  15.509
71388W        W72252  23.700  20.673  17.646
71389W        W72253  23.682  18.629  15.620
71390W        W72254  24.836  18.477  15.933
71391W        W72255  24.728  21.828  16.378
71392W        W72256  23.920  21.639  16.621
71393W        W72257  23.401  20.613  16.722
71394W        W72258  25.214  21.278  17.042
71395W        W72259  22.819  18.624  15.602
71396W        W72260  23.267  21.079  16.577
71397W        W72261  22.936  18.907  14.348
71398W        W72262  23.778  19.297  16.843
71399W        W72263  24.488  18.339  16.733
71400W        W72264  21.938  20.136  16.957
71401W        W72265  23.638  20.023  14.648
71402W        W72266  22.817  18.430  14.573
71403W        W72267  23.796  19.503  15.844
71404W        W72268  24.448  18.507  17.260
71405W        W72269  23.209  20.591  17.416
71406W        W72270  24.080  20.310  17.827
71407W        W72271  24.545  20.496  17.691
71408W        W72272  23.786  18.525  18.147
71409W        W72273  23.003  18.985  16.455
71410W        W72274  22.483  18.896  16.014
71411W        W72275  22.088  21.635  15.635
71412W        W72276  23.821  21.238  17.750
71413W        W72277  23.125  20.787  15.223
71414W        W72278  24.523  20.030  16.306
71415W        W72279  24.616  19.797  16.747
71416W        W72280  23.835  20.309  16.730
71417W        W72281  24.311  20.689  14.607
71418W        W72282  24.087  18.635  15.943
71419W        W72283  25.443  19.033  15.393
71420W        W72284  22.102  21.646  17.640
71421W        W72285  22.360  20.881  17.020
71422W        W72286  21.693  21.573  15.265
71423W        W72287  23.668  18.783  16.908
71424W        W72288  22.944  21.271  15.195
71425W        W72289  25.466  21.560  15.384
71426W        W72290  23.938  19.821  15.040
71427W        W72291  23.451  19.084  15.586
71428W        W72292  23.824  19.072  14.736
71429W        W72293  24.180  20.851  17.758
71430W        W72294  24.759  18.528  15.366
71431W        W72295  22.016  18.169  14.964
71432W        W72296  23.318  20.985  17.094
71433W        W72297  22.988  20.674  16.415
71434W        W72298  22.834  20.947  14.716
71435W        W72299  21.977  21.160  15.476
71436W        W72300  22.740  19.712  17.555
71437W        W72301  23.190  18.481  17.832
71438W        W72302  23.937  18.589  17.303
71439W        W72303  23.251  18.347  15.758
71440W        W72304  24.413  18.249  15.066
71441W        W72305  22.266  18.404  16.748
71442W        W72306  22.039  19.230  16.114
71443W        W72307  24.935  18.495  16.473
71444W        W72308  22.359  18.871  15.483
71445W        W72309  24.897  18.556  16.978
71446W        W72310  25.243  19.691  14.597
71447W        W72311  22.577  18.706  16.488
71448W        W72312  23.812  19.091  17.310
71449W        W72313  21.892  18.658  14.923
71450W        W72314  22.484  20.135  17.424
71451W        W72315  24.116  19.905  16.560
71452W        W72316  23.968  21.834  14.989
71453W        W72317  21.466  19.936  14.604
71454W        W72318  22.783  20.552  17.726
71455W        W72319  22.215  19.778  17.181
71456W        W72320  23.395  20.168  17.016
71457W        W72321  24.920  18.266  17.410
71458W        W72322  25.342  19.915  17.407
71459W        W72323  25.269  19.862  15.119
71460W        W72324  24.337  20.490  15.140
71461W        W72325  24.790  21.889  14.610
71462W        W72326  24.063  19.889  18.174
71463W        W72327  22.475  20.844  18.032
71464W        W72328  25.480  18.684  18.029
71465W        W72329  25.059  19.516  16.732
71466W        W72330  23.478  21.769  18.142
71467W        W72331  23.268  18.362  14.869
71468W        W72332  24.959  20.712  14.821
71469W        W72333  22.901  19.237  17.724
71470W        W72334  23.351  21.066  17.589
71471W        W72335  25.249  18.729  17.306
71472W        W72336  24.941  21.605  15.421
71473W        W72337  24.788  20.342  16.683
71474W        W72338  22.935  18.838  17.386
71475W        W72339  23.534  19.807  18.005
71476W        W72340  22.725  20.924  15.551
71477W        W72341  24.647  20.334  15.542
71478W        W72342  22.409  18.873  17.277
71479W        W72343  23.635  20.995  15.934
71480W        W72344  25.345  19.560  16.298
71481W        W72345  23.657  18.335  17.686
71482W        W72346  24.597  20.844  16.748
71483W        W72347  24.977  21.435  16.610
71484W        W72348  23.710  21.424  14.751
71485W        W72349  21.992  20.951  17.865
71486W        W72350  22.740  18.963  16.896
71487W        W72351  22.816  18.487  16.101
71488W        W72352  24.288  19.389  16.615
71489W        W72353  23.522  20.605  14.761
71490W        W72354  25.320  20.427  16.724
71491W        W72355  22.460  21.299  17.766
71492W        W72356  25.243  21.868  15.738
71493W        W72357  23.236  18.806  16.000
71494W        W72358  22.608  20.284  16.419
71495W        W72359  23.121  21.890  16.817
71496W        W72360  25.004  21.869  17.855
71497W        W72361  24.324  20.206  16.939
71498W        W72362  21.867  19.234  14.286
71499W        W72363  25.407  21.420  15.914
71500W        W72364  25.063  18.855  15.077
71501W        W72365  23.068  18.293  17.360
71502W        W72366  25.095  21.065  16.129
71503W        W72367  24.995  19.726  15.926
71504W        W72368  23.370  19.305  16.074
71505W        W72369  23.696  19.599  17.270
71506W        W72370  24.462  20.860  17.263
71507W        W72371  23.327  19.239  17.397
71508W        W72372  23.024  21.759  16.053
71509W        W72373  22.556  21.785  17.921
71510W        W72374  22.432  21.224  14.504
71511W        W72375  24.951  20.676  15.781
71512W        W72376  22.851  19.338  17.222
71513W        W72377  25.422  19.206  14.733
71514W        W72378  23.457  20.622  15.621
71515W        W72379  24.345  20.048  17.454
71516W        W72380  24.181  19.692  17.024
71517W        W72381  22.720  19.819  17.045
71518W        W72382  24.925  21.773  16.983
71519W        W72383  24.617  18.466  17.983
71520W        W72384  22.205  18.493  17.583
71521W        W72385  22.856  19.430  16.716
71522W        W72386  23.330  19.287  14.445
71523W        W72387  21.988  21.200  17.403
71524W        W72388  23.678  19.805  16.789
71525W        W72389  23.390  18.793  14.600
71526W        W72390  22.625  19.854  16.155
71527W        W72391  22.095  21.723  17.116
71528W        W72392  24.826  19.833  14.873
71529W        W72393  25.041  18.635  17.760
71530W        W72394  24.641  21.071  15.849
71531W        W72395  22.218  19.779  17.718
71532W        W72396  25.243  18.383  15.168
71533W        W72397  24.743  20.796  15.314
71534W        W72398  23.744  19.427  15.330
71535W        W72399  24.675  18.624  14.824
71536W        W72400  24.607  19.348  17.043
71537W        W72401  22.092  19.799  16.235
71538W        W72402  22.641  20.646  16.022
71539W        W72403  24.601  19.384  15.808
71540W        W72404  23.507  18.957  16.451
71541W        W72405  25.478  20.831  17.045
71542W        W72406  25.401  18.737  16.779
71543W        W72407  22.008  21.563  16.131
71544W        W72408  22.247  20.747  15.675
71545W        W72409  22.333  18.577  18.125
71546W        W72410  23.401  21.220  18.071
71547W        W72411  25.358  20.093  16.088
71548W        W72412  24.627  20.286  14.758
71549W        W72413  24.081  21.981  16.964
71550W        W72414  24.953  20.461  18.109
71551W        W72415  23.559  18.201  15.350
71552W        W72416  24.302  19.101  16.158
71553W        W72417  21.986  20.776  16.647
71554W        W72418  23.259  18.630  15.322
71555W        W72419  23.135  20.172  17.846
71556W        W72420  24.145  19.165  15.664
71557W        W72421  24.117  20.716  16.900
71558W        W72422  22.470  21.352  17.244
71559W        W72423  22.920  21.087  17.891
71560W        W72424  22.964  18.786  14.916
71561W        W72425  24.469  18.955  15.237
71562W        W72426  24.311  21.324  17.504
71563W        W72427  22.948  19.905  16.571
71564W        W72428  22.613  21.756  16.920
71565W        W72429  25.294  21.716  14.725
71566W        W72430  22.231  20.430  17.772
71567W        W72431  24.306  20.469  16.494
71568W        W72432  22.960  20.463  15.635
71569W        W72433  22.994  21.405  17.042
71570W        W72434  23.634  18.511  16.156
71571W        W72435  21.836  20.667  15.332
71572W        W72436  23.935  19.575  14.560
71573W        W72437  22.270  20.224  15.985
71574W        W72438  23.436  18.703  17.381
71575W        W72439  25.159  18.488  14.655
71576W        W72440  25.368  20.247  17.850
71577W        W72441  23.940  21.708  17.928
71578W        W72442  25.570  20.694  17.528
71579W        W72443  24.809  21.409  18.013
71580W        W72444  22.729  21.954  16.466
71581W        W72445  25.714  20.469  16.172
71582W        W72446  24.229  19.618  16.128
71583W        W72447  23.857  18.180  15.810
71584W        W72448  22.879  21.344  15.780
71585W        W72449  23.261  19.146  16.899
71586W        W72450  23.212  18.501  16.449
71587W        W72451  22.054  21.436  14.932
71588W        W72452  23.445  20.589  16.196
71589W        W72453  22.890  21.516  17.564
71590W        W72454  22.114  20.256  15.470
71591W        W72455  22.083  18.756  16.333
71592W        W72456  23.847  20.756  16.458
71593W        W72457  21.996  18.493  15.405
71594W        W72458  24.738  19.824  17.243
71595W        W72459  24.509  19.107  14.726
71596W        W72460  25.107  20.917  16.636
71597W        W72461  23.718  21.258  16.362
71598W        W72462  23.194  21.690  15.518
71599W        W72463  24.264  18.321  14.575
71600W        W72464  22.227  21.634  16.584
71601W        W72465  24.258  19.301  17.946
71602W        W72466  22.425  18.953  17.789
71603W        W72467  21.925  19.453  15.643
71604W        W72468  23.536  19.521  14.864
71605W        W72469  24.486  19.793  17.881
71606W        W72470  22.952  20.351  16.825
71607W        W72471  24.389  18.237  15.840
71608W        W72472  23.486  21.733  16.328
71609W        W72473  24.680  21.282  17.050
71610W        W72474  24.632  21.195  16.349
71611W        W72475  24.376  20.407  15.977
71612W        W72476  23.688  18.588  15.016
71613W        W72477  25.531  18.303  15.894
71614W        W72478  23.035  19.735  14.311
71615W        W72479  25.262  19.184  15.909
71616W        W72480  24.112  20.213  14.758
71617W        W72481  25.037  20.620  17.635
71618W        W72482  25.165  21.224  15.089
71619W        W72483  23.326  18.956  17.819
71620W        W72484  23.222  19.666  17.031
71621W        W72485  25.176  21.091  17.523
71622W        W72486  24.267  18.929  17.532
71623W        W72487  21.875  19.496  17.443
71624W        W72488  23.888  20.078  17.186
71625W        W72489  22.163  20.676  16.185
71626W        W72490  22.408  19.785  16.639
71627W        W72491  24.724  20.366  17.220
71628W        W72492  24.472  21.744  17.781
71629W        W72493  24.177  19.439  17.459
71630W        W72494  24.883  21.530  15.965
71631W        W72495  23.627  21.372  17.268
71632W        W72496  22.983  21.507  16.513
71633W        W72497  24.960  20.823  17.134
71634W        W72498  23.765  20.848  18.120
71635W        W72499  22.503  20.758  16.552
71636W        W72500  24.874  20.237  16.016
71637W        W72501  24.442  21.601  16.723
71638W        W72502  22.576  21.270  16.735
71639W        W72503  23.723  19.358  17.760
71640W        W72504  23.664  21.434  15.295
71641W        W72505  23.263  20.699  17.944
71642W        W72506  23.307  21.159  15.558
71643W        W72507  22.699  19.338  14.144
71644W        W72508  21.951  21.914  21.665
71645W        W72509  22.419  20.773  21.260
71646W        W72510  25.275  20.468  18.948
71647W        W72511  25.398  21.774  20.896
71648W        W72512  22.840  21.608  18.647
71649W        W72513  23.525  19.529  19.535
71650W        W72514  22.916  19.390  20.095
71651W        W72515  23.947  20.123  19.146
71652W        W72516  23.396  21.585  21.165
71653W        W72517  21.977  18.982  21.259
71654W        W72518  22.363  18.318  20.893
71655W        W72519  24.552  18.665  19.926
71656W        W72520  24.240  19.382  18.451
71657W        W72521  24.680  19.113  21.489
71658W        W72522  22.042  18.713  20.793
71659W        W72523  22.118  21.427  21.785
71660W        W72524  23.575  21.019  18.586
71661W        W72525  22.086  19.560  20.409
71662W        W72526  23.316  19.700  21.352
71663W        W72527  25.022  18.980  20.160
71664W        W72528  25.242  20.443  20.801
71665W        W72529  23.847  19.618  20.073
71666W        W72530  24.201  21.146  20.265
71667W        W72531  22.632  20.436  20.586
71668W        W72532  21.825  20.033  20.380
71669W        W72533  23.233  20.119  21.039
71670W        W72534  25.188  19.742  21.346
71671W        W72535  22.723  21.105  19.958
71672W        W72536  23.945  20.986  21.010
71673W        W72537  23.402  19.713  20.327
71674W        W72538  23.419  20.420  19.889
71675W        W72539  24.167  21.308  21.750
71676W        W72540  23.673  20.357  21.822
71677W        W72541  23.711  20.191  21.237
71678W        W72542  21.981  19.276  21.699
71679W        W72543  24.744  20.979  21.552
71680W        W72544  22.151  18.478  19.372
71681W        W72545  22.894  20.898  20.424
71682W        W72546  25.346  20.745  19.864
71683W        W72547  24.550  18.962  20.357
71684W        W72548  25.077  18.989  18.153
71685W        W72549  25.544  19.648  20.612
71686W        W72550  23.401  21.365  20.351
71687W        W72551  25.387  21.015  18.944
71688W        W72552  22.407  21.848  18.927
71689W        W72553  22.795  21.858  19.336
71690W        W72554  22.672  18.531  20.540
71691W        W72555  25.079  19.648  20.854
71692W        W72556  24.682  20.018  19.547
71693W        W72557  24.520  19.818  18.444
71694W        W72558  23.811  20.926  20.506
71695W        W72559  23.698  19.029  19.686
71696W        W72560  24.171  21.361  20.743
71697W        W72561  25.131  20.017  19.259
71698W        W72562  24.129  18.579  19.094
71699W        W72563  22.574  21.384  19.085
71700W        W72564  21.782  18.855  19.477
71701W        W72565  24.722  19.392  20.001
71702W        W72566  22.214  21.223  20.068
71703W        W72567  23.327  21.459  18.534
71704W        W72568  24.780  19.437  18.135
71705W        W72569  22.060  21.257  20.593
71706W        W72570  22.840  20.938  20.951
71707W        W72571  22.954  20.277  19.697
71708W        W72572  23.194  18.695  20.661
71709W        W72573  25.499  18.432  20.047
71710W        W72574  22.618  20.065  17.915
71711W        W72575  22.257  19.073  18.283
71712W        W72576  22.377  21.181  19.570
71713W        W72577  23.062  20.788  19.748
71714W        W72578  24.978  21.580  21.139
71715W        W72579  23.937  19.119  18.771
71716W        W72580  25.211  21.658  19.671
71717W        W72581  24.698  19.568  21.216
71718W        W72582  25.565  21.076  19.548
71719W        W72583  24.145  20.522  21.075
71720W        W72584  21.836  19.908  19.453
71721W        W72585  23.099  20.532  20.758
71722W        W72586  24.317  19.415  18.987
71723W        W72587  24.278  19.790  19.338
71724W        W72588  22.467  19.456  20.783
71725W        W72589  22.470  19.377  21.319
71726W        W72590  22.170  18.293  19.870
71727W        W72591  24.098  18.697  20.332
71728W        W72592  23.772  18.869  21.420
71729W        W72593  24.094  18.670  18.551
71730W        W72594  25.437  21.577  21.382
71731W        W72595  24.133  18.482  21.386
71732W        W72596  25.260  20.858  21.634
71733W        W72597  24.770  18.932  20.999
71734W        W72598  24.518  18.842  19.372
71735W        W72599  24.861  20.043  21.596
71736W        W72600  22.554  21.589  19.863
71737W        W72601  23.444  19.123  18.609
71738W        W72602  22.725  18.549  21.544
71739W        W72603  24.827  19.176  19.122
71740W        W72604  25.210  19.521  19.002
71741W        W72605  23.061  21.847  21.452
71742W        W72606  22.732  18.168  18.756
71743W        W72607  25.347  18.848  19.775
71744W        W72608  25.477  21.184  18.422
71745W        W72609  21.970  20.387  20.021
71746W        W72610  24.223  18.789  18.061
71747W        W72611  25.446  21.330  20.003
71748W        W72612  25.360  18.377  20.611
71749W        W72613  24.000  19.843  21.486
71750W        W72614  23.695  20.851  19.172
71751W        W72615  24.487  20.215  21.894
71752W        W72616  24.146  18.314  20.003
71753W        W72617  22.270  20.348  20.963
71754W        W72618  24.137  21.504  19.871
71755W        W72619  25.125  19.161  20.648
71756W        W72620  23.915  21.622  21.131
71757W        W72621  25.311  20.228  18.413
71758W        W72622  23.892  19.931  19.673
71759W        W72623  25.422  18.389  21.206
71760W        W72624  23.622  20.578  20.895
71761W        W72625  23.857  19.117  20.182
71762W        W72626  24.710  19.386  18.668
71763W        W72627  25.175  19.338  18.498
71764W        W72628  25.005  21.275  19.171
71765W        W72629  24.833  20.770  19.949
71766W        W72630  24.732  19.708  19.080
71767W        W72631  24.190  20.207  20.012
71768W        W72632  24.997  19.853  19.926
71769W        W72633  22.398  19.002  20.519
71770W        W72634  24.956  20.109  21.089
71771W        W72635  25.396  21.693  20.385
71772W        W72636  23.242  21.267  19.857
71773W        W72637  24.499  21.741  20.998
71774W        W72638  24.165  19.067  20.679
71775W        W72639  23.621  21.865  20.783
71776W        W72640  25.096  18.719  19.194
71777W        W72641  25.021  20.052  20.527
71778W        W72642  22.011  19.230  20.811
71779W        W72643  24.871  19.037  19.669
71780W        W72644  25.121  19.241  21.186
71781W        W72645  24.158  20.939  19.779
71782W        W72646  23.444  21.542  19.474
71783W        W72647  22.342  18.600  18.640
71784W        W72648  23.642  18.421  20.366
71785W        W72649  22.407  21.735  18.410
71786W        W72650  23.490  20.051  19.383
71787W        W72651  23.725  20.683  21.385
71788W        W72652  23.679  18.657  19.327
71789W        W72653  24.945  18.519  19.645
71790W        W72654  24.645  21.793  19.948
71791W        W72655  23.883  21.574  20.361
71792W        W72656  23.474  20.475  20.420
71793W        W72657  25.200  21.332  20.695
71794W        W72658  22.597  18.551  19.094
71795W        W72659  23.356  20.878  20.158
71796W        W72660  22.860  18.845  18.082
71797W        W72661  23.777  19.458  20.583
71798W        W72662  24.529  18.394  20.364
71799W        W72663  22.115  20.460  20.492
71800W        W72664  23.671  20.058  18.468
71801W        W72665  22.791  18.355  18.260
71802W        W72666  24.012  19.431  19.623
71803W        W72667  24.417  18.621  20.800
71804W        W72668  23.233  20.589  21.253
71805W        W72669  24.104  20.350  21.572
71806W        W72670  24.558  20.495  21.418
71807W        W72671  23.821  18.538  21.806
71808W        W72672  22.893  18.903  20.276
71809W        W72673  22.266  18.900  19.642
71810W        W72674  22.313  21.679  19.420
71811W        W72675  23.772  21.205  21.441
71812W        W72676  23.252  20.759  18.907
71813W        W72677  24.709  20.253  20.037
71814W        W72678  24.617  19.803  20.300
71815W        W72679  23.974  20.416  20.543
71816W        W72680  24.555  20.798  18.131
71817W        W72681  24.103  18.708  19.650
71818W        W72682  25.369  19.038  18.887
71819W        W72683  22.130  21.603  21.262
71820W        W72684  22.352  20.851  20.748
71821W        W72685  21.936  21.784  19.095
71822W        W72686  23.660  18.923  20.620
71823W        W72687  23.037  21.221  18.914
71824W        W72688  25.285  21.508  18.786
71825W        W72689  24.073  19.804  18.721
71826W        W72690  23.565  19.124  19.144
71827W        W72691  23.811  19.048  18.235
71828W        W72692  24.195  20.872  21.453
71829W        W72693  24.645  18.490  19.028
71830W        W72694  21.877  18.341  18.538
71831W        W72695  23.337  20.955  20.663
71832W        W72696  22.982  20.462  20.182
71833W        W72697  23.072  21.015  18.408
71834W        W72698  22.050  21.273  19.166
71835W        W72699  22.838  19.954  21.379
71836W        W72700  23.240  18.558  21.694
71837W        W72701  23.913  18.637  20.953
71838W        W72702  23.397  18.259  19.503
71839W        W72703  24.262  18.203  18.756
71840W        W72704  22.182  18.378  20.408
71841W        W72705  22.087  19.161  20.095
71842W        W72706  25.007  18.417  20.151
71843W        W72707  22.136  18.877  19.049
71844W        W72708  24.919  18.671  20.580
71845W        W72709  25.378  19.739  18.255
71846W        W72710  22.418  18.713  20.093
71847W        W72711  23.835  19.194  21.039
71848W        W72712  21.871  18.850  18.570
71849W        W72713  22.764  20.427  21.121
71850W        W72714  24.097  19.878  20.441
71851W        W72715  23.821  21.863  18.526
71852W        W72716  21.920  20.085  18.015
71853W        W72717  22.920  20.947  21.462
71854W        W72718  22.362  19.843  21.107
71855W        W72719  23.636  20.051  20.695
71856W        W72720  24.926  18.387  21.017
71857W        W72721  25.465  20.009  20.989
71858W        W72722  25.458  19.960  18.845
71859W        W72723  24.456  20.099  18.912
71860W        W72724  24.731  21.821  18.320
71861W        W72725  24.046  19.969  21.979
71862W        W72726  22.532  20.863  21.780
71863W        W72727  25.573  18.862  21.736
71864W        W72728  25.073  19.553  20.344
71865W        W72729  23.245  21.679  21.924
71866W        W72730  23.246  18.310  18.647
71867W        W72731  25.204  20.735  18.491
71868W        W72732  22.868  19.011  21.310
71869W        W72733  23.369  21.063  21.149
71870W        W72734  25.282  18.784  20.930
71871W        W72735  24.775  21.597  18.812
71872W        W72736  24.870  20.549  20.423
71873W        W72737  22.801  18.583  21.032
71874W        W72738  23.591  19.827  21.800
71875W        W72739  22.758  20.913  19.319
71876W        W72740  24.792  20.412  19.187
71877W        W72741  22.431  18.944  21.036
71878W        W72742  23.589  20.869  19.688
71879W        W72743  25.250  19.375  19.878
71880W        W72744  23.626  18.369  21.358
71881W        W72745  24.690  21.038  20.380
71882W        W72746  24.973  21.446  20.202
71883W        W72747  23.825  21.378  18.300
71884W        W72748  22.048  20.952  21.581
71885W        W72749  22.864  19.079  20.792
71886W        W72750  22.604  18.462  19.634
71887W        W72751  24.272  19.416  20.314
71888W        W72752  23.423  20.557  18.427
71889W        W72753  25.235  20.315  20.128
71890W        W72754  22.467  21.255  21.441
71891W        W72755  25.082  21.806  19.183
71892W        W72756  23.119  18.581  19.810
71893W        W72757  22.472  20.265  20.118
71894W        W72758  23.206  21.838  20.473
71895W        W72759  25.076  21.918  21.535
71896W        W72760  24.445  20.254  20.476
71897W        W72761  22.058  19.633  18.231
71898W        W72762  25.477  21.474  19.244
71899W        W72763  24.935  18.884  18.683
71900W        W72764  23.097  18.252  21.302
71901W        W72765  25.061  21.171  19.718
71902W        W72766  24.948  19.561  19.510
71903W        W72767  23.420  19.327  20.002
71904W        W72768  23.755  19.696  21.068
71905W        W72769  24.547  20.901  21.090
71906W        W72770  23.315  19.221  21.078
71907W        W72771  23.052  21.751  19.795
71908W        W72772  22.470  21.774  21.598
71909W        W72773  22.615  21.280  18.282
71910W        W72774  25.129  20.809  19.357
71911W        W72775  22.892  19.530  21.072
71912W        W72776  25.632  19.472  18.664
71913W        W72777  23.322  20.540  19.384
71914W        W72778  24.447  20.021  21.288
71915W        W72779  24.213  19.543  20.876
71916W        W72780  22.767  19.999  20.854
71917W        W72781  24.905  21.757  20.640
71918W        W72782  24.630  18.606  21.405
71919W        W72783  22.240  18.534  21.326
71920W        W72784  22.896  19.619  20.543
71921W        W72785  23.357  19.332  18.139
71922W        W72786  22.036  21.109  21.096
71923W        W72787  23.719  20.109  20.173
71924W        W72788  23.325  18.701  18.302
71925W        W72789  22.902  19.933  20.106
71926W        W72790  22.194  21.800  20.795
71927W        W72791  25.003  19.827  18.639
71928W        W72792  25.132  18.773  21.425
71929W        W72793  24.649  20.963  19.482
71930W        W72794  22.230  19.759  21.604
71931W        W72795  25.073  18.392  18.766
71932W        W72796  24.893  20.836  18.893
71933W        W72797  23.851  19.568  19.136
71934W        W72798  24.593  18.525  18.515
71935W        W72799  24.659  19.376  20.670
71936W        W72800  22.078  19.883  19.949
71937W        W72801  22.564  20.659  19.748
71938W        W72802  24.491  19.347  19.482
71939W        W72803  23.400  18.837  20.177
71940W        W72804  25.476  20.901  20.746
71941W        W72805  25.459  18.826  20.389
71942W        W72806  22.014  21.622  19.826
71943W        W72807  22.223  20.742  19.312
71944W        W72808  22.254  18.502  21.837
71945W        W72809  23.285  21.294  21.593
71946W        W72810  25.422  20.081  19.705
71947W        W72811  24.847  20.334  18.624
71948W        W72812  24.139  21.901  20.657
71949W        W72813  24.900  20.522  21.792
71950W        W72814  23.609  18.193  19.047
71951W        W72815  24.300  19.109  19.901
71952W        W72816  21.882  20.873  20.265
71953W        W72817  23.210  18.573  19.097
71954W        W72818  23.290  20.180  21.547
71955W        W72819  24.063  19.064  19.273
71956W        W72820  24.307  20.806  20.655
71957W        W72821  22.474  21.336  20.935
71958W        W72822  22.827  21.461  21.745
71959W        W72823  22.883  18.677  18.651
71960W        W72824  24.435  18.936  18.849
71961W        W72825  24.315  21.325  21.245
71962W        W72826  23.368  19.901  19.859
71963W        W72827  22.690  21.725  20.625
71964W        W72828  25.196  21.622  18.300
71965W        W72829  22.398  20.256  21.452
71966W        W72830  24.379  20.663  20.166
71967W        W72831  22.634  20.410  19.295
71968W        W72832  23.045  21.373  20.728
71969W        W72833  23.670  18.523  19.858
71970W        W72834  21.591  20.438  19.013
71971W        W72835  23.750  19.531  18.416
71972W        W72836  22.262  20.260  19.625
71973W        W72837  23.301  18.716  21.170
71974W        W72838  25.049  18.493  18.266
71975W        W72839  25.324  20.246  21.433
71976W        W72840  23.670  21.682  21.620
71977W        W72841  25.522  20.680  21.203
71978W        W72842  25.057  21.390  21.670
71979W        W72843  22.729  21.961  20.181
71980W        W72844  25.515  20.501  19.429
71981W        W72845  24.351  19.729  19.865
71982W        W72846  23.940  18.245  19.490
71983W        W72847  22.872  21.374  19.507
71984W        W72848  23.265  19.237  20.504
71985W        W72849  23.112  18.364  20.274
71986W        W72850  22.038  21.461  18.674
71987W        W72851  23.872  20.440  19.600
71988W        W72852  22.923  21.392  21.224
71989W        W72853  22.100  20.257  19.124
71990W        W72854  21.886  18.718  19.965
71991W        W72855  23.854  20.638  20.085
71992W        W72856  21.744  18.552  19.009
71993W        W72857  24.595  19.886  20.805
71994W        W72858  24.574  19.009  18.348
71995W        W72859  25.199  20.969  20.307
71996W        W72860  23.752  21.193  20.032
71997W        W72861  23.179  21.709  19.033
71998W        W72862  24.216  18.259  18.238
71999W        W72863  22.278  21.677  20.290
72000W        W72864  24.057  19.441  21.876
72001W        W72865  22.390  18.943  21.578
72002W        W72866  21.784  19.418  19.652
72003W        W72867  23.266  19.731  18.452
72004W        W72868  24.451  19.726  21.720
72005W        W72869  23.142  20.092  20.524
72006W        W72870  24.450  18.354  19.498
72007W        W72871  23.542  21.706  19.981
72008W        W72872  24.682  21.310  20.808
72009W        W72873  24.582  21.245  19.924
72010W        W72874  24.465  20.500  19.656
72011W        W72875  23.636  18.669  18.795
72012W        W72876  25.450  18.388  19.534
72013W        W72877  23.002  19.685  17.997
72014W        W72878  25.265  19.179  19.385
72015W        W72879  24.016  20.424  18.327
72016W        W72880  25.010  20.625  21.240
72017W        W72881  24.959  21.204  18.505
72018W        W72882  23.313  19.052  21.582
72019W        W72883  23.317  19.663  20.821
72020W        W72884  25.213  21.120  21.181
72021W        W72885  24.277  18.937  21.176
72022W        W72886  21.977  19.501  21.241
72023W        W72887  24.105  20.050  20.915
72024W        W72888  22.075  20.816  19.788
72025W        W72889  22.326  19.988  20.580
72026W        W72890  24.641  20.446  20.895
72027W        W72891  24.618  21.664  21.507
72028W        W72892  24.222  19.393  21.383
72029W        W72893  24.735  21.533  19.513
72030W        W72894  23.650  21.343  20.790
72031W        W72895  22.930  21.488  20.218
72032W        W72896  24.963  20.880  20.793
72033W        W72897  23.875  20.841  21.856
72034W        W72898  22.414  20.778  20.229
72035W        W72899  25.023  20.393  19.648
72036W        W72900  24.472  21.569  20.379
72037W        W72901  22.547  21.254  20.446
72038W        W72902  23.701  19.389  21.510
72039W        W72903  23.544  21.344  18.998
72040W        W72904  23.354  20.779  21.726
72041W        W72905  23.257  21.069  19.352
72042W        W72906  22.516  19.454  17.982
72043W        W72907  22.157  21.813  25.386
72044W        W72908  22.353  20.751  24.832
72045W        W72909  25.207  20.268  22.834
72046W        W72910  25.357  21.619  24.674
72047W        W72911  22.828  21.671  22.258
72048W        W72912  23.262  19.681  23.116
72049W        W72913  22.672  19.863  23.710
72050W        W72914  23.677  20.346  22.769
72051W        W72915  23.448  21.491  25.084
72052W        W72916  21.959  18.991  24.925
72053W        W72917  22.547  18.227  24.801
72054W        W72918  24.489  18.628  23.646
72055W        W72919  24.344  19.667  22.275
72056W        W72920  24.672  19.098  25.180
72057W        W72921  22.056  18.636  24.554
72058W        W72922  22.229  21.323  25.526
72059W        W72923  23.378  20.972  22.351
72060W        W72924  21.843  19.319  23.991
72061W        W72925  23.040  19.499  25.052
72062W        W72926  25.156  19.191  23.720
72063W        W72927  25.221  20.398  24.594
72064W        W72928  23.685  19.789  23.620
72065W        W72929  24.202  21.078  23.987
72066W        W72930  22.551  20.234  24.051
72067W        W72931  21.770  19.817  23.829
72068W        W72932  23.090  20.008  24.969
72069W        W72933  25.260  19.670  25.073
72070W        W72934  22.839  21.128  23.691
72071W        W72935  24.007  20.875  24.730
72072W        W72936  23.276  19.553  23.974
72073W        W72937  23.502  20.295  23.671
72074W        W72938  24.248  21.176  25.428
72075W        W72939  23.777  20.332  25.506
72076W        W72940  23.633  20.155  24.968
72077W        W72941  21.732  19.298  25.251
72078W        W72942  24.679  20.969  25.235
72079W        W72943  22.303  18.463  23.015
72080W        W72944  22.967  20.878  24.155
72081W        W72945  25.340  20.668  23.583
72082W        W72946  24.720  19.004  23.945
72083W        W72947  25.068  19.058  21.848
72084W        W72948  25.693  19.886  24.348
72085W        W72949  23.566  21.562  24.160
72086W        W72950  25.430  20.913  22.763
72087W        W72951  22.280  21.883  22.749
72088W        W72952  22.696  21.818  23.118
72089W        W72953  22.539  18.556  24.377
72090W        W72954  25.256  19.576  24.544
72091W        W72955  24.547  19.881  23.342
72092W        W72956  24.801  19.841  22.090
72093W        W72957  23.814  20.879  24.262
72094W        W72958  23.778  19.072  23.414
72095W        W72959  24.116  21.307  24.438
72096W        W72960  25.000  19.890  23.102
72097W        W72961  24.188  18.705  22.678
72098W        W72962  22.556  21.420  22.823
72099W        W72963  21.937  18.812  23.148
72100W        W72964  24.679  19.427  23.637
72101W        W72965  22.327  21.161  23.796
72102W        W72966  23.356  21.505  22.391
72103W        W72967  24.916  19.518  21.706
72104W        W72968  22.134  21.200  24.275
72105W        W72969  22.871  20.875  24.719
72106W        W72970  23.192  20.421  23.272
72107W        W72971  22.977  18.695  24.153
72108W        W72972  25.478  18.337  23.754
72109W        W72973  22.865  20.463  21.627
72110W        W72974  22.197  18.974  22.061
72111W        W72975  22.484  21.154  23.291
72112W        W72976  23.237  20.928  23.231
72113W        W72977  24.877  21.553  24.873
72114W        W72978  24.093  19.195  22.348
72115W        W72979  25.234  21.593  23.501
72116W        W72980  24.830  19.496  24.859
72117W        W72981  25.514  21.033  23.262
72118W        W72982  24.172  20.383  24.727
72119W        W72983  21.811  19.977  23.001
72120W        W72984  22.915  20.439  24.410
72121W        W72985  24.041  19.552  22.705
72122W        W72986  24.062  19.961  23.191
72123W        W72987  22.248  19.420  24.370
72124W        W72988  22.283  19.425  25.016
72125W        W72989  22.293  18.357  23.551
72126W        W72990  23.994  18.848  23.850
72127W        W72991  23.757  18.891  25.134
72128W        W72992  24.169  18.732  22.151
72129W        W72993  25.373  21.468  25.172
72130W        W72994  24.201  18.356  24.910
72131W        W72995  25.172  20.976  25.385
72132W        W72996  24.816  18.950  24.713
72133W        W72997  24.462  19.008  23.008
72134W        W72998  24.881  20.006  25.380
72135W        W72999  22.601  21.586  23.593
72136W        W73000  23.575  19.204  22.478
72137W        W73001  22.838  18.603  25.100
72138W        W73002  24.922  19.069  22.778
72139W        W73003  25.200  19.504  22.797
72140W        W73004  23.080  21.840  25.202
72141W        W73005  22.926  18.385  22.592
72142W        W73006  25.268  18.724  23.488
72143W        W73007  25.588  21.181  22.283
72144W        W73008  22.059  20.278  23.768
72145W        W73009  24.220  18.938  21.688
72146W        W73010  25.457  21.176  23.780
72147W        W73011  25.356  18.354  24.283
72148W        W73012  23.953  19.693  25.007
72149W        W73013  23.706  20.893  22.816
72150W        W73014  24.440  20.211  25.561
72151W        W73015  24.076  18.338  23.725
72152W        W73016  22.371  19.325  23.858
72153W        W73017  22.380  20.340  24.515
72154W        W73018  24.109  21.503  23.471
72155W        W73019  25.119  19.127  24.305
72156W        W73020  23.929  21.610  24.840
72157W        W73021  24.987  20.290  22.267
72158W        W73022  23.570  20.081  23.209
72159W        W73023  25.524  18.312  24.781
72160W        W73024  23.689  20.482  24.581
72161W        W73025  23.776  19.354  23.869
72162W        W73026  24.551  19.415  22.676
72163W        W73027  24.940  19.380  22.316
72164W        W73028  25.123  21.278  23.005
72165W        W73029  24.795  20.696  23.678
72166W        W73030  24.418  19.880  22.835
72167W        W73031  24.027  20.176  23.664
72168W        W73032  24.959  19.860  23.648
72169W        W73033  22.188  18.951  24.169
72170W        W73034  24.968  20.029  24.874
72171W        W73035  25.469  21.615  24.082
72172W        W73036  23.307  21.284  23.579
72173W        W73037  24.431  21.683  24.609
72174W        W73038  24.224  19.024  24.445
72175W        W73039  23.414  21.708  24.632
72176W        W73040  25.198  18.666  22.959
72177W        W73041  25.164  20.005  24.279
72178W        W73042  21.812  19.153  24.472
72179W        W73043  24.798  18.969  23.406
72180W        W73044  25.261  19.189  24.910
72181W        W73045  24.122  20.945  23.477
72182W        W73046  23.392  21.587  23.154
72183W        W73047  22.290  18.562  22.359
72184W        W73048  23.668  18.460  24.058
72185W        W73049  22.343  21.776  22.092
72186W        W73050  23.203  20.128  22.831
72187W        W73051  23.676  20.649  25.096
72188W        W73052  23.640  18.678  23.008
72189W        W73053  24.850  18.465  23.302
72190W        W73054  24.522  21.786  23.697
72191W        W73055  24.049  21.595  23.990
72192W        W73056  23.371  20.486  24.134
72193W        W73057  25.216  21.227  24.359
72194W        W73058  22.766  18.701  22.966
72195W        W73059  23.401  21.094  24.058
72196W        W73060  22.856  18.959  21.839
72197W        W73061  23.646  19.537  24.351
72198W        W73062  24.529  18.328  24.095
72199W        W73063  21.946  20.221  24.277
72200W        W73064  23.589  20.115  22.270
72201W        W73065  22.728  18.499  22.081
72202W        W73066  23.771  19.538  23.176
72203W        W73067  24.491  18.580  24.554
72204W        W73068  23.233  20.491  24.852
72205W        W73069  24.104  20.145  25.177
72206W        W73070  24.572  20.327  25.088
72207W        W73071  23.827  18.582  25.558
72208W        W73072  22.963  19.074  23.784
72209W        W73073  22.396  18.859  23.358
72210W        W73074  22.222  21.605  23.227
72211W        W73075  23.831  21.148  25.116
72212W        W73076  22.924  20.704  22.402
72213W        W73077  24.563  20.169  23.773
72214W        W73078  24.514  19.723  24.016
72215W        W73079  23.903  20.361  24.133
72216W        W73080  24.410  20.720  21.883
72217W        W73081  24.102  18.700  23.261
72218W        W73082  25.441  19.032  22.680
72219W        W73083  22.241  21.471  25.017
72220W        W73084  22.495  20.815  24.344
72221W        W73085  21.840  21.632  22.854
72222W        W73086  23.723  19.023  24.284
72223W        W73087  22.909  21.220  22.469
72224W        W73088  25.402  21.526  22.626
72225W        W73089  24.027  20.022  22.507
72226W        W73090  23.444  19.176  23.002
72227W        W73091  23.756  19.028  21.956
72228W        W73092  24.193  20.682  25.180
72229W        W73093  24.708  18.593  22.816
72230W        W73094  21.922  18.246  22.156
72231W        W73095  23.340  20.838  24.501
72232W        W73096  23.232  20.761  23.706
72233W        W73097  22.999  21.046  21.986
72234W        W73098  22.098  21.176  22.926
72235W        W73099  22.597  19.851  25.049
72236W        W73100  23.349  18.583  25.370
72237W        W73101  23.860  18.687  24.659
72238W        W73102  23.191  18.396  23.088
72239W        W73103  24.575  18.465  22.339
72240W        W73104  22.131  18.438  24.074
72241W        W73105  21.974  19.222  23.502
72242W        W73106  24.973  18.447  23.818
72243W        W73107  22.292  18.915  22.766
72244W        W73108  24.922  18.654  24.277
72245W        W73109  25.286  19.863  21.849
72246W        W73110  22.529  18.761  23.853
72247W        W73111  23.856  19.243  24.753
72248W        W73112  21.768  18.727  22.225
72249W        W73113  22.720  20.377  24.894
72250W        W73114  24.005  19.813  24.045
72251W        W73115  23.670  21.895  22.138
72252W        W73116  21.813  19.709  21.934
72253W        W73117  22.952  20.714  25.210
72254W        W73118  22.240  19.849  24.655
72255W        W73119  23.327  20.106  24.525
72256W        W73120  24.967  18.351  24.690
72257W        W73121  25.488  20.027  24.788
72258W        W73122  25.354  19.954  22.445
72259W        W73123  24.188  20.357  22.862
72260W        W73124  24.896  21.804  21.997
72261W        W73125  24.053  19.883  25.632
72262W        W73126  22.453  20.610  25.317
72263W        W73127  25.595  18.792  25.324
72264W        W73128  25.009  19.560  24.061
72265W        W73129  23.515  21.788  25.496
72266W        W73130  23.214  18.323  22.158
72267W        W73131  25.155  20.825  22.146
72268W        W73132  22.683  19.102  25.051
72269W        W73133  23.316  21.008  24.990
72270W        W73134  25.295  18.752  24.632
72271W        W73135  24.961  21.776  22.515
72272W        W73136  24.743  20.480  24.133
72273W        W73137  22.915  18.873  24.646
72274W        W73138  23.606  19.848  25.375
72275W        W73139  22.822  20.964  22.909
72276W        W73140  24.704  20.302  22.901
72277W        W73141  22.392  19.004  24.653
72278W        W73142  23.700  21.180  23.254
72279W        W73143  25.308  19.594  23.395
72280W        W73144  23.716  18.369  25.062
72281W        W73145  24.695  20.992  24.086
72282W        W73146  24.993  21.393  23.919
72283W        W73147  23.622  21.293  21.976
72284W        W73148  22.057  20.940  25.224
72285W        W73149  22.678  19.108  24.238
72286W        W73150  22.798  18.539  23.454
72287W        W73151  24.268  19.279  23.999
72288W        W73152  23.193  20.375  22.034
72289W        W73153  25.123  20.297  23.850
72290W        W73154  22.585  21.089  25.159
72291W        W73155  25.164  21.819  23.015
72292W        W73156  23.247  18.848  23.362
72293W        W73157  22.954  20.335  23.722
72294W        W73158  23.178  21.925  24.247
72295W        W73159  25.101  21.910  25.166
72296W        W73160  24.341  20.136  24.284
72297W        W73161  22.490  19.366  21.845
72298W        W73162  25.570  21.514  23.126
72299W        W73163  25.059  18.872  22.324
72300W        W73164  23.052  18.291  24.707
72301W        W73165  25.034  21.106  23.487
72302W        W73166  24.799  19.426  23.139
72303W        W73167  23.370  19.360  23.510
72304W        W73168  23.483  19.696  24.819
72305W        W73169  24.518  20.785  24.791
72306W        W73170  23.342  19.198  24.745
72307W        W73171  23.088  21.763  23.532
72308W        W73172  22.659  21.560  25.358
72309W        W73173  22.515  21.275  22.110
72310W        W73174  25.068  20.732  23.127
72311W        W73175  22.675  19.456  24.669
72312W        W73176  25.459  19.244  22.122
72313W        W73177  23.253  20.659  22.797
72314W        W73178  24.382  19.915  24.800
72315W        W73179  24.186  19.566  24.449
72316W        W73180  22.751  19.970  24.556
72317W        W73181  24.927  21.671  24.367
72318W        W73182  24.656  18.550  25.061
72319W        W73183  22.301  18.599  25.057
72320W        W73184  22.700  19.616  24.167
72321W        W73185  23.381  19.385  21.965
72322W        W73186  21.987  21.102  24.743
72323W        W73187  23.537  19.986  24.081
72324W        W73188  23.284  18.856  22.135
72325W        W73189  22.855  20.036  23.240
72326W        W73190  22.248  21.659  24.523
72327W        W73191  24.871  19.859  22.602
72328W        W73192  25.113  18.748  25.134
72329W        W73193  24.592  20.885  23.250
72330W        W73194  21.963  19.840  25.189
72331W        W73195  25.202  18.401  22.448
72332W        W73196  24.970  20.677  22.620
72333W        W73197  23.614  19.820  22.749
72334W        W73198  24.673  18.751  21.918
72335W        W73199  24.644  19.321  24.376
72336W        W73200  22.126  19.897  23.436
72337W        W73201  22.778  20.721  23.372
72338W        W73202  24.287  19.471  23.138
72339W        W73203  23.464  18.945  23.841
72340W        W73204  25.504  20.803  24.447
72341W        W73205  25.399  18.800  24.011
72342W        W73206  21.892  21.595  23.697
72343W        W73207  22.368  20.716  23.022
72344W        W73208  22.368  18.576  25.607
72345W        W73209  23.554  21.269  25.534
72346W        W73210  25.365  20.124  23.416
72347W        W73211  24.501  20.176  22.410
72348W        W73212  23.926  21.882  24.409
72349W        W73213  24.865  20.523  25.478
72350W        W73214  23.445  18.308  22.639
72351W        W73215  24.296  19.108  23.508
72352W        W73216  22.105  20.721  24.013
72353W        W73217  23.244  18.793  22.678
72354W        W73218  23.302  20.308  25.337
72355W        W73219  23.953  19.098  22.918
72356W        W73220  24.308  20.692  24.333
72357W        W73221  22.511  21.234  24.657
72358W        W73222  23.049  21.213  25.393
72359W        W73223  22.742  18.852  22.452
72360W        W73224  24.561  18.973  22.417
72361W        W73225  24.320  21.258  24.924
72362W        W73226  23.190  19.892  23.598
72363W        W73227  22.769  21.679  24.485
72364W        W73228  25.445  21.686  22.107
72365W        W73229  22.205  20.260  24.995
72366W        W73230  24.293  20.599  23.831
72367W        W73231  22.799  20.447  22.926
72368W        W73232  23.122  21.300  24.453
72369W        W73233  23.665  18.583  23.530
72370W        W73234  21.887  20.698  22.804
72371W        W73235  23.782  19.625  22.261
72372W        W73236  22.490  20.304  23.498
72373W        W73237  23.361  18.681  24.846
72374W        W73238  25.198  18.555  21.927
72375W        W73239  25.313  20.250  25.231
72376W        W73240  23.965  21.608  25.344
72377W        W73241  25.490  20.689  24.947
72378W        W73242  24.894  21.449  25.376
72379W        W73243  22.719  21.905  24.003
72380W        W73244  25.524  20.522  23.138
72381W        W73245  24.176  19.623  23.607
72382W        W73246  23.847  18.208  23.245
72383W        W73247  22.938  21.366  23.215
72384W        W73248  23.206  19.140  24.259
72385W        W73249  23.220  18.496  23.757
72386W        W73250  22.156  21.459  22.464
72387W        W73251  23.676  20.616  23.269
72388W        W73252  22.935  21.416  24.922
72389W        W73253  22.377  20.144  23.022
72390W        W73254  21.985  18.755  23.696
72391W        W73255  23.763  20.717  23.781
72392W        W73256  21.899  18.577  22.694
72393W        W73257  24.738  19.817  24.460
72394W        W73258  24.540  19.263  21.982
72395W        W73259  25.177  20.801  24.041
72396W        W73260  23.781  21.226  23.762
72397W        W73261  23.034  21.645  22.768
72398W        W73262  24.345  18.360  21.840
72399W        W73263  22.297  21.620  24.019
72400W        W73264  24.029  19.393  25.435
72401W        W73265  22.248  19.020  25.350
72402W        W73266  21.965  19.320  22.993
72403W        W73267  23.281  19.708  22.362
72404W        W73268  24.432  19.724  25.285
72405W        W73269  23.028  20.011  24.108
72406W        W73270  24.370  18.267  23.248
72407W        W73271  23.608  21.690  23.639
72408W        W73272  24.671  21.224  24.543
72409W        W73273  24.551  21.241  23.645
72410W        W73274  24.381  20.401  23.344
72411W        W73275  23.713  18.706  22.410
72412W        W73276  25.521  18.323  23.205
72413W        W73277  23.083  19.843  21.872
72414W        W73278  25.229  19.139  23.185
72415W        W73279  24.067  20.436  22.170
72416W        W73280  24.981  20.614  24.988
72417W        W73281  25.082  21.344  22.222
72418W        W73282  23.165  19.014  25.199
72419W        W73283  23.127  19.617  24.470
72420W        W73284  25.145  21.103  24.870
72421W        W73285  24.262  18.869  24.932
72422W        W73286  21.839  19.532  24.802
72423W        W73287  23.871  19.984  24.534
72424W        W73288  22.243  20.748  23.514
72425W        W73289  22.240  19.826  24.030
72426W        W73290  24.687  20.340  24.602
72427W        W73291  24.461  21.714  25.149
72428W        W73292  24.339  19.374  24.896
72429W        W73293  24.763  21.565  23.287
72430W        W73294  23.632  21.240  24.620
72431W        W73295  23.070  21.506  23.976
72432W        W73296  24.943  20.800  24.498
72433W        W73297  23.876  20.838  25.560
72434W        W73298  22.605  20.699  23.856
72435W        W73299  24.893  20.307  23.376
72436W        W73300  24.519  21.479  24.123
72437W        W73301  22.655  21.285  24.168
72438W        W73302  23.552  19.367  25.201
72439W        W73303  23.735  21.447  22.793
72440W        W73304  23.360  20.790  25.512
72441W        W73305  23.285  21.201  22.817
72442W        W73306  22.943  19.433  21.588
72443W        W73307  22.045  21.876  28.834
72444W        W73308  22.493  20.686  28.469
72445W        W73309  25.142  20.361  26.284
72446W        W73310  25.307  21.495  28.100
72447W        W73311  23.052  21.642  25.699
72448W        W73312  23.061  19.694  26.593
72449W        W73313  22.570  19.482  26.782
72450W        W73314  23.609  20.269  26.353
72451W        W73315  23.394  21.572  28.411
72452W        W73316  22.123  19.069  28.486
72453W        W73317  22.530  18.414  28.157
72454W        W73318  24.471  18.704  27.192
72455W        W73319  24.227  19.546  25.998
72456W        W73320  24.688  18.965  28.851
72457W        W73321  22.094  18.716  28.097
72458W        W73322  22.162  21.384  28.982
72459W        W73323  23.606  20.571  25.929
72460W        W73324  22.057  19.466  27.513
72461W        W73325  22.849  19.455  28.718
72462W        W73326  25.333  19.308  27.275
72463W        W73327  25.076  20.317  27.922
72464W        W73328  23.541  19.594  27.061
72465W        W73329  24.038  21.049  27.432
72466W        W73330  22.487  20.339  27.867
72467W        W73331  21.881  19.960  27.386
72468W        W73332  23.025  19.804  28.372
72469W        W73333  25.228  19.745  28.629
72470W        W73334  22.731  21.087  27.193
72471W        W73335  23.892  20.870  28.283
72472W        W73336  23.287  19.327  27.475
72473W        W73337  23.370  20.305  27.203
72474W        W73338  24.443  21.165  28.990
72475W        W73339  23.507  20.149  28.936
72476W        W73340  23.525  19.989  28.434
72477W        W73341  21.855  19.295  28.963
72478W        W73342  24.764  20.962  28.639
72479W        W73343  22.304  18.514  26.691
72480W        W73344  23.022  21.000  27.649
72481W        W73345  25.474  20.646  27.160
72482W        W73346  24.598  19.006  27.598
72483W        W73347  25.162  19.064  25.563
72484W        W73348  25.507  19.764  27.896
72485W        W73349  23.388  21.648  27.494
72486W        W73350  25.342  20.863  26.325
72487W        W73351  22.415  21.926  26.269
72488W        W73352  22.808  21.786  26.595
72489W        W73353  22.769  18.642  27.776
72490W        W73354  25.184  19.380  28.128
72491W        W73355  24.470  19.936  26.751
72492W        W73356  24.620  19.779  25.768
72493W        W73357  23.805  20.762  27.787
72494W        W73358  23.459  19.070  27.067
72495W        W73359  24.162  21.160  27.940
72496W        W73360  24.977  20.038  26.657
72497W        W73361  24.090  18.916  26.366
72498W        W73362  22.533  21.428  26.333
72499W        W73363  22.012  18.916  26.675
72500W        W73364  24.623  19.493  27.425
72501W        W73365  22.221  21.176  27.282
72502W        W73366  23.477  21.554  25.964
72503W        W73367  24.904  19.492  25.412
72504W        W73368  22.012  21.197  27.779
72505W        W73369  22.792  21.013  28.107
72506W        W73370  23.100  20.371  26.732
72507W        W73371  23.277  18.581  27.863
72508W        W73372  25.526  18.406  27.400
72509W        W73373  22.797  20.235  25.383
72510W        W73374  22.339  19.111  25.851
72511W        W73375  22.438  21.189  26.785
72512W        W73376  23.298  20.845  26.771
72513W        W73377  24.890  21.448  28.460
72514W        W73378  23.833  19.354  26.287
72515W        W73379  25.151  21.774  27.117
72516W        W73380  24.801  19.541  28.462
72517W        W73381  25.572  20.949  26.767
72518W        W73382  24.085  20.419  28.141
72519W        W73383  21.703  20.080  26.574
72520W        W73384  22.963  20.529  27.993
72521W        W73385  24.250  19.508  26.536
72522W        W73386  23.947  19.931  26.644
72523W        W73387  22.484  19.470  27.842
72524W        W73388  22.347  19.406  28.835
72525W        W73389  22.247  18.352  27.164
72526W        W73390  24.107  18.841  27.592
72527W        W73391  23.762  18.754  28.798
72528W        W73392  24.024  19.100  25.875
72529W        W73393  25.339  21.284  28.636
72530W        W73394  24.149  18.402  28.665
72531W        W73395  25.262  20.763  28.694
72532W        W73396  24.752  19.039  28.345
72533W        W73397  24.451  19.021  26.739
72534W        W73398  24.928  19.955  28.991
72535W        W73399  22.543  21.564  27.121
72536W        W73400  23.368  19.233  26.093
72537W        W73401  22.778  18.455  28.637
72538W        W73402  24.947  19.153  26.633
72539W        W73403  25.251  19.492  26.356
72540W        W73404  23.019  21.734  28.734
72541W        W73405  22.958  18.337  26.176
72542W        W73406  25.344  18.804  27.085
72543W        W73407  25.514  21.159  25.779
72544W        W73408  22.305  20.306  27.363
72545W        W73409  24.222  18.906  25.436
72546W        W73410  25.371  21.119  27.335
72547W        W73411  25.292  18.521  27.844
72548W        W73412  23.833  19.619  28.685
72549W        W73413  23.730  20.770  26.418
72550W        W73414  24.472  20.062   0.219
72551W        W73415  24.121  18.348  27.344
72552W        W73416  22.562  19.291  27.284
72553W        W73417  22.117  20.429  28.223
72554W        W73418  23.950  21.696  26.834
72555W        W73419  25.098  19.083  27.707
72556W        W73420  24.048  21.610  28.202
72557W        W73421  25.181  20.228  25.765
72558W        W73422  23.453  20.005  26.768
72559W        W73423  25.428  18.406  28.358
72560W        W73424  23.570  20.449  28.113
72561W        W73425  23.819  19.293  27.372
72562W        W73426  24.752  19.601  26.447
72563W        W73427  24.930  19.408  25.948
72564W        W73428  24.971  21.255  26.454
72565W        W73429  24.448  20.726  27.255
72566W        W73430  24.442  19.973  26.227
72567W        W73431  23.831  20.064  27.138
72568W        W73432  24.920  19.903  27.244
72569W        W73433  22.323  19.023  27.651
72570W        W73434  24.875  20.091  28.483
72571W        W73435  25.332  21.592  27.575
72572W        W73436  23.245  21.224  27.156
72573W        W73437  24.547  21.762  28.231
72574W        W73438  24.338  18.974  28.049
72575W        W73439  23.559  21.788  27.968
72576W        W73440  25.292  18.753  26.556
72577W        W73441  24.997  19.837  28.075
72578W        W73442  22.022  19.259  28.005
72579W        W73443  24.866  19.095  27.161
72580W        W73444  25.167  19.192  28.608
72581W        W73445  24.067  20.836  26.933
72582W        W73446  23.395  21.540  26.752
72583W        W73447  22.674  18.732  25.999
72584W        W73448  23.633  18.376  27.522
72585W        W73449  22.537  21.811  25.782
72586W        W73450  23.132  20.122  26.267
72587W        W73451  23.799  20.420  28.575
72588W        W73452  23.613  18.780  26.641
72589W        W73453  24.885  18.658  26.881
72590W        W73454  24.675  21.813  27.355
72591W        W73455  23.894  21.540  27.667
72592W        W73456  23.339  20.605  27.646
72593W        W73457  25.073  21.191  27.754
72594W        W73458  22.731  18.694  26.502
72595W        W73459  23.512  21.151  27.607
72596W        W73460  22.740  18.956  25.532
72597W        W73461  23.633  19.510  27.819
72598W        W73462  24.482  18.499  27.682
72599W        W73463  21.967  20.288  27.764
72600W        W73464  23.500  20.051  25.857
72601W        W73465  22.894  18.464  25.605
72602W        W73466  23.431  19.309  26.617
72603W        W73467  24.491  18.545  28.297
72604W        W73468  23.202  20.405  28.474
72605W        W73469  24.035  20.136  28.956
72606W        W73470  24.423  20.375  28.558
72607W        W73471  23.876  18.386   0.144
72608W        W73472  23.105  18.831  27.420
72609W        W73473  22.494  18.972  26.867
72610W        W73474  22.239  21.666  26.706
72611W        W73475  22.755  20.495  26.322
72612W        W73476  24.397  19.986  27.266
72613W        W73477  24.645  19.900  27.719
72614W        W73478  23.677  20.235  27.620
72615W        W73479  24.412  20.720  25.650
72616W        W73480  23.885  18.788  27.139
72617W        W73481  25.589  19.102  26.301
72618W        W73482  22.049  21.495  28.488
72619W        W73483  22.339  20.817  27.973
72620W        W73484  21.920  21.889  26.357
72621W        W73485  23.833  19.066  27.971
72622W        W73486  23.185  21.115  25.890
72623W        W73487  25.318  21.490  26.166
72624W        W73488  23.932  19.935  26.130
72625W        W73489  22.938  19.186  26.521
72626W        W73490  23.597  19.051  25.602
72627W        W73491  24.194  20.817  28.693
72628W        W73492  24.745  18.748  26.388
72629W        W73493  21.893  18.543  25.832
72630W        W73494  23.318  20.906  28.091
72631W        W73495  23.083  20.725  27.216
72632W        W73496  22.809  20.824  25.685
72633W        W73497  22.061  21.255  26.409
72634W        W73498  22.538  19.859  28.638
72635W        W73499  23.272  18.528  28.802
72636W        W73500  23.956  18.643  28.247
72637W        W73501  23.138  18.430  26.682
72638W        W73502  24.413  18.770  25.935
72639W        W73503  22.255  18.515  27.659
72640W        W73504  22.115  19.308  27.013
72641W        W73505  24.961  18.642  27.433
72642W        W73506  22.445  19.148  26.377
72643W        W73507  24.839  18.720  27.959
72644W        W73508  25.312  19.775  25.569
72645W        W73509  22.605  18.757  27.317
72646W        W73510  23.821  19.143  28.477
72647W        W73511  21.836  19.048  25.699
72648W        W73512  22.715  20.238  28.347
72649W        W73513  23.962  19.771  27.529
72650W        W73514  23.807  21.964  26.123
72651W        W73515  21.988  19.970  25.703
72652W        W73516  22.978  20.895  28.570
72653W        W73517  22.296  19.927  28.181
72654W        W73518  23.267  20.071  27.972
72655W        W73519  24.927  18.296  28.252
72656W        W73520  25.390  20.099  28.290
72657W        W73521  25.492  19.886  26.034
72658W        W73522  24.109  20.371  26.427
72659W        W73523  24.780  21.941  25.558
72660W        W73524  24.198  19.647   0.068
72661W        W73525  22.690  20.739  28.964
72662W        W73526  25.518  18.789  28.791
72663W        W73527  25.086  19.593  27.635
72664W        W73528  23.516  21.581  28.928
72665W        W73529  23.350  18.391  25.851
72666W        W73530  25.147  20.732  25.863
72667W        W73531  22.630  18.993  28.610
72668W        W73532  25.271  18.888  28.204
72669W        W73533  25.013  21.903  26.029
72670W        W73534  24.674  20.376  27.548
72671W        W73535  22.957  18.759  28.250
72672W        W73536  23.316  19.669  28.790
72673W        W73537  22.844  21.009  26.289
72674W        W73538  24.627  20.373  26.514
72675W        W73539  22.521  18.988  28.110
72676W        W73540  23.707  21.147  26.770
72677W        W73541  25.616  19.675  26.987
72678W        W73542  23.661  18.306  28.547
72679W        W73543  24.543  21.125  27.572
72680W        W73544  24.911  21.360  27.310
72681W        W73545  23.696  21.079  25.998
72682W        W73546  22.175  20.861  28.900
72683W        W73547  22.853  19.154  27.723
72684W        W73548  22.727  18.409  26.980
72685W        W73549  24.208  19.354  27.716
72686W        W73550  23.117  20.418  25.816
72687W        W73551  25.165  20.334  27.418
72688W        W73552  22.466  21.173  28.609
72689W        W73553  25.089  21.838  26.563
72690W        W73554  23.000  18.864  26.921
72691W        W73555  22.755  20.354  27.123
72692W        W73556  23.083  21.919  27.811
72693W        W73557  25.073  21.811  28.796
72694W        W73558  24.201  20.188  27.701
72695W        W73559  22.133  19.487  25.522
72696W        W73560  25.393  21.452  26.701
72697W        W73561  25.136  18.951  26.084
72698W        W73562  23.191  18.313  28.329
72699W        W73563  25.088  21.074  26.915
72700W        W73564  25.108  19.597  26.874
72701W        W73565  23.032  19.382  27.024
72702W        W73566  23.448  19.469  28.317
72703W        W73567  24.446  20.804  28.239
72704W        W73568  22.944  19.271  28.254
72705W        W73569  23.035  21.705  27.059
72706W        W73570  22.505  21.687  28.700
72707W        W73571  22.678  21.308  25.834
72708W        W73572  25.111  20.582  26.752
72709W        W73573  22.475  19.446  28.343
72710W        W73574  25.443  19.377  25.880
72711W        W73575  23.240  20.659  26.283
72712W        W73576  24.066  20.001  28.452
72713W        W73577  24.014  19.522  28.180
72714W        W73578  22.758  19.913  27.943
72715W        W73579  24.899  21.727  27.825
72716W        W73580  24.644  18.415  28.816
72717W        W73581  22.280  18.586  28.579
72718W        W73582  22.839  19.674  27.485
72719W        W73583  23.168  19.339  25.588
72720W        W73584  22.048  20.965  28.367
72721W        W73585  23.368  19.844  27.494
72722W        W73586  23.165  18.859  25.794
72723W        W73587  22.227  19.864  26.630
72724W        W73588  22.227  21.836  28.109
72725W        W73589  24.981  19.906  26.119
72726W        W73590  25.044  18.671  28.615
72727W        W73591  24.646  20.816  26.791
72728W        W73592  22.059  19.871  28.838
72729W        W73593  25.362  18.466  26.117
72730W        W73594  24.835  20.782  26.284
72731W        W73595  23.505  19.744  26.321
72732W        W73596  24.742  18.756  25.538
72733W        W73597  24.691  19.395  27.949
72734W        W73598  22.323  19.783  27.151
72735W        W73599  22.774  20.777  26.774
72736W        W73600  24.605  19.477  26.922
72737W        W73601  23.585  18.883  27.556
72738W        W73602  25.318  20.743  27.716
72739W        W73603  25.550  18.902  27.561
72740W        W73604  21.959  21.580  27.138
72741W        W73605  22.316  20.785  26.498
72742W        W73606  22.428  18.423   0.074
72743W        W73607  23.324  21.102   0.040
72744W        W73608  25.368  20.160  26.980
72745W        W73609  24.715  20.357  25.974
72746W        W73610  24.022  22.033  27.914
72747W        W73611  24.851  20.449  28.855
72748W        W73612  23.494  18.336  26.334
72749W        W73613  24.282  19.170  27.207
72750W        W73614  22.099  20.746  27.533
72751W        W73615  23.198  18.787  26.305
72752W        W73616  22.985  20.077  28.829
72753W        W73617  23.920  19.189  26.806
72754W        W73618  24.310  20.692  27.752
72755W        W73619  22.361  21.319  28.133
72756W        W73620  22.843  21.264  28.927
72757W        W73621  22.845  19.223  25.996
72758W        W73622  24.530  19.190  26.223
72759W        W73623  24.366  21.276  28.463
72760W        W73624  23.047  19.915  27.077
72761W        W73625  22.666  21.640  27.894
72762W        W73626  25.330  21.652  25.664
72763W        W73627  22.092  20.383  28.721
72764W        W73628  23.989  20.523  27.350
72765W        W73629  22.463  20.333  26.716
72766W        W73630  23.168  21.409  27.949
72767W        W73631  23.414  18.562  27.093
72768W        W73632  21.627  20.435  26.193
72769W        W73633  23.678  19.548  25.815
72770W        W73634  22.027  20.208  26.955
72771W        W73635  23.468  18.764  28.344
72772W        W73636  25.248  18.550  25.607
72773W        W73637  25.323  20.237  28.785
72774W        W73638  24.010  21.552  28.734
72775W        W73639  25.435  20.604  28.203
72776W        W73640  24.944  21.340  28.969
72777W        W73641  22.688  21.926  27.467
72778W        W73642  25.567  20.431  26.584
72779W        W73643  24.100  19.623  27.037
72780W        W73644  23.722  18.268  26.805
72781W        W73645  22.944  21.285  26.723
72782W        W73646  23.317  19.089  27.954
72783W        W73647  23.124  18.309  27.429
72784W        W73648  22.144  21.543  25.989
72785W        W73649  23.706  20.466  26.835
72786W        W73650  22.830  21.454  28.352
72787W        W73651  22.115  20.290  26.333
72788W        W73652  22.109  18.841  27.218
72789W        W73653  23.598  20.831  27.208
72790W        W73654  22.180  18.756  26.202
72791W        W73655  24.463  19.815  28.195
72792W        W73656  24.514  19.252  25.675
72793W        W73657  24.947  20.810  27.351
72794W        W73658  23.733  21.407  27.201
72795W        W73659  23.015  21.497  26.203
72796W        W73660  24.316  18.401  25.427
72797W        W73661  22.254  21.630  27.575
72798W        W73662  24.064  19.176  28.951
72799W        W73663  22.280  18.917   0.007
72800W        W73664  22.001  19.415  26.508
72801W        W73665  23.136  19.683  25.971
72802W        W73666  24.483  19.888  28.727
72803W        W73667  22.975  20.216  27.563
72804W        W73668  24.161  18.583  26.769
72805W        W73669  23.549  21.900  27.074
72806W        W73670  24.665  21.259  28.049
72807W        W73671  24.282  21.475  27.244
72808W        W73672  24.232  20.349  26.927
72809W        W73673  23.655  18.774  26.056
72810W        W73674  25.590  18.386  26.864
72811W        W73675  23.100  19.830  25.463
72812W        W73676  25.440  19.228  26.777
72813W        W73677  24.097  20.371  25.908
72814W        W73678  24.918  20.571  28.346
72815W        W73679  25.003  21.234  25.843
72816W        W73680  23.162  19.034  28.679
72817W        W73681  23.135  19.577  27.899
72818W        W73682  25.117  21.025  28.237
72819W        W73683  24.265  18.904  28.570
72820W        W73684  21.985  19.554  28.433
72821W        W73685  23.814  19.964  28.011
72822W        W73686  22.316  20.718  27.041
72823W        W73687  22.317  19.900  27.659
72824W        W73688  24.579  20.307  28.059
72825W        W73689  24.547  21.650  28.793
72826W        W73690  24.321  19.418  28.581
72827W        W73691  24.757  21.556  26.862
72828W        W73692  23.669  21.285  28.074
72829W        W73693  22.917  21.470  27.489
72830W        W73694  24.811  20.766  27.870
72831W        W73695  22.632  20.687  27.515
72832W        W73696  24.749  20.344  27.034
72833W        W73697  24.391  21.609  27.756
72834W        W73698  22.537  21.182  27.673
72835W        W73699  23.567  19.249  28.929
72836W        W73700  23.756  21.506  26.386
72837W        W73701  23.487  20.836  28.604
72838W        W73702  23.355  21.168  26.380
72839W        W73703  22.662  19.462  25.425
72840W        W73704  21.960  25.642   3.521
72841W        W73705  22.446  24.483   2.872
72842W        W73706  25.174  24.145   0.746
72843W        W73707  25.332  25.233   2.720
72844W        W73708  23.306  25.225   0.389
72845W        W73709  23.146  23.462   1.044
72846W        W73710  22.751  23.104   1.487
72847W        W73711  23.786  23.984   0.755
72848W        W73712  23.513  25.220   3.000
72849W        W73713  21.889  22.604   2.998
72850W        W73714  22.511  22.082   2.643
72851W        W73715  24.464  22.293   1.673
72852W        W73716  24.114  23.004   0.502
72853W        W73717  24.541  22.807   3.278
72854W        W73718  22.060  22.336   2.565
72855W        W73719  22.244  25.201   3.449
72856W        W73720  23.566  24.208   0.347
72857W        W73721  22.058  23.120   1.925
72858W        W73722  23.033  23.229   3.066
72859W        W73723  25.328  22.806   1.793
72860W        W73724  25.155  24.011   2.466
72861W        W73725  23.709  23.427   1.503
72862W        W73726  24.175  24.799   1.961
72863W        W73727  22.570  23.982   2.145
72864W        W73728  21.767  23.581   1.942
72865W        W73729  23.106  23.697   2.818
72866W        W73730  25.027  23.387   3.257
72867W        W73731  22.769  24.732   1.690
72868W        W73732  23.912  24.559   2.673
72869W        W73733  23.325  23.389   1.893
72870W        W73734  23.411  23.863   1.638
72871W        W73735  24.294  24.876   3.488
72872W        W73736  23.802  23.984   3.477
72873W        W73737  23.606  23.780   2.872
72874W        W73738  21.650  22.803   3.611
72875W        W73739  24.690  24.702   3.209
72876W        W73740  22.466  22.242   0.984
72877W        W73741  22.864  24.430   2.120
72878W        W73742  25.319  24.330   1.608
72879W        W73743  24.909  22.491   1.820
72880W        W73744  25.234  22.764   0.119
72881W        W73745  25.409  23.480   2.449
72882W        W73746  23.415  25.194   2.048
72883W        W73747  25.247  24.678   0.772
72884W        W73748  22.481  25.483   0.640
72885W        W73749  22.792  25.371   1.073
72886W        W73750  22.619  22.333   2.212
72887W        W73751  25.086  23.099   2.590
72888W        W73752  24.664  23.578   1.273
72889W        W73753  24.558  23.261   0.380
72890W        W73754  23.758  24.588   2.190
72891W        W73755  23.639  22.677   1.366
72892W        W73756  24.177  24.953   2.493
72893W        W73757  25.153  23.667   1.077
72894W        W73758  23.732  22.310   0.989
72895W        W73759  22.487  24.960   0.659
72896W        W73760  22.111  22.517   1.238
72897W        W73761  24.870  23.006   1.706
72898W        W73762  22.189  24.779   1.675
72899W        W73763  23.576  24.979   0.750
72900W        W73764  24.892  23.125  28.973
72901W        W73765  21.944  24.833   2.174
72902W        W73766  22.749  24.723   2.518
72903W        W73767  23.048  23.947   1.259
72904W        W73768  23.146  22.351   2.221
72905W        W73769  25.481  21.947   1.762
72906W        W73770  22.487  23.646   0.286
72907W        W73771  22.295  22.931   0.373
72908W        W73772  22.354  24.747   1.194
72909W        W73773  23.447  24.266   1.279
72910W        W73774  24.886  25.171   2.989
72911W        W73775  23.684  22.701   0.545
72912W        W73776  25.073  25.329   1.504
72913W        W73777  24.703  23.165   2.927
72914W        W73778  25.517  24.641   1.221
72915W        W73779  24.146  24.079   2.667
72916W        W73780  21.921  23.682   1.072
72917W        W73781  23.047  24.070   2.443
72918W        W73782  24.207  23.252   0.979
72919W        W73783  24.064  23.731   1.096
72920W        W73784  22.413  23.063   2.284
72921W        W73785  22.286  22.960   2.997
72922W        W73786  22.332  21.974   1.408
72923W        W73787  24.127  22.356   2.048
72924W        W73788  23.794  22.547   3.022
72925W        W73789  24.228  22.366   0.802
72926W        W73790  25.377  25.061   3.216
72927W        W73791  24.106  21.963   2.870
72928W        W73792  25.131  24.514   3.388
72929W        W73793  24.754  22.692   2.692
72930W        W73794  24.346  22.589   1.269
72931W        W73795  24.810  23.689   3.639
72932W        W73796  22.517  25.180   1.512
72933W        W73797  23.189  23.158   0.627
72934W        W73798  22.814  22.192   3.133
72935W        W73799  24.998  22.841   0.873
72936W        W73800  25.374  23.190   0.877
72937W        W73801  22.979  25.534   3.605
72938W        W73802  22.855  22.059   0.627
72939W        W73803  25.313  22.361   1.527
72940W        W73804  25.477  24.802   0.307
72941W        W73805  22.164  23.907   1.780
72942W        W73806  24.278  22.519   0.305
72943W        W73807  25.416  24.831   1.903
72944W        W73808  25.353  22.020   2.394
72945W        W73809  23.925  23.337   2.877
72946W        W73810  23.666  24.469   0.782
72947W        W73811  24.319  23.870   3.532
72948W        W73812  24.138  21.897   1.783
72949W        W73813  22.551  22.830   1.863
72950W        W73814  22.374  23.871   2.603
72951W        W73815  24.141  25.200   1.609
72952W        W73816  25.293  22.752   2.303
72953W        W73817  23.983  25.373   2.831
72954W        W73818  25.208  23.957   0.287
72955W        W73819  23.544  23.768   1.145
72956W        W73820  25.504  21.956   2.897
72957W        W73821  23.630  24.152   2.524
72958W        W73822  23.612  22.986   1.782
72959W        W73823  24.731  23.281   0.863
72960W        W73824  25.075  23.162   0.460
72961W        W73825  24.861  24.903   1.065
72962W        W73826  24.801  24.403   1.680
72963W        W73827  24.411  23.667   0.698
72964W        W73828  23.938  23.924   1.578
72965W        W73829  24.997  23.519   1.686
72966W        W73830  22.170  22.617   2.145
72967W        W73831  24.985  23.588   2.760
72968W        W73832  25.401  25.260   2.182
72969W        W73833  23.244  24.712   1.478
72970W        W73834  24.462  25.400   2.623
72971W        W73835  24.350  22.715   2.374
72972W        W73836  23.544  25.554   2.593
72973W        W73837  25.225  22.396   1.039
72974W        W73838  24.875  23.646   2.223
72975W        W73839  22.012  22.863   2.566
72976W        W73840  24.877  22.663   1.335
72977W        W73841  25.109  22.852   3.038
72978W        W73842  24.119  24.684   1.469
72979W        W73843  23.294  25.127   1.160
72980W        W73844  22.447  22.408   0.476
72981W        W73845  23.687  22.083   1.929
72982W        W73846  22.793  25.230   0.289
72983W        W73847  22.893  23.603   0.616
72984W        W73848  23.789  24.227   3.027
72985W        W73849  23.366  22.770   0.941
72986W        W73850  24.866  22.150   1.400
72987W        W73851  24.590  25.451   1.727
72988W        W73852  23.925  25.228   2.113
72989W        W73853  23.411  24.164   2.064
72990W        W73854  25.174  24.859   2.387
72991W        W73855  22.923  22.468   0.942
72992W        W73856  23.302  24.669   1.973
72993W        W73857  22.818  22.585   0.087
72994W        W73858  23.647  23.246   2.268
72995W        W73859  24.542  22.038   2.119
72996W        W73860  21.979  23.954   2.267
72997W        W73861  23.666  23.695   0.151
72998W        W73862  23.026  22.123   0.152
72999W        W73863  23.642  23.243   0.983
73000W        W73864  24.486  22.240   2.584
73001W        W73865  23.278  24.204   2.906
73002W        W73866  24.077  23.777   3.091
73003W        W73867  24.629  23.783   3.123
73004W        W73868  23.782  22.160   3.364
73005W        W73869  23.087  22.928   1.832
73006W        W73870  22.613  22.631   1.347
73007W        W73871  22.288  25.227   1.038
73008W        W73872  23.918  24.899   3.054
73009W        W73873  22.665  24.136   0.418
73010W        W73874  24.582  23.821   1.770
73011W        W73875  24.552  23.328   1.927
73012W        W73876  23.952  24.096   2.121
73013W        W73877  24.388  24.217   0.042
73014W        W73878  23.965  22.302   1.506
73015W        W73879  25.598  22.708   0.811
73016W        W73880  22.167  25.359   2.952
73017W        W73881  22.298  24.380   2.346
73018W        W73882  21.954  25.292   0.658
73019W        W73883  23.893  22.791   2.164
73020W        W73884  23.286  24.663   0.442
73021W        W73885  25.047  25.150   0.621
73022W        W73886  23.931  23.499   0.615
73023W        W73887  22.897  22.986   1.025
73024W        W73888  23.884  22.794   0.074
73025W        W73889  24.313  24.242   3.177
73026W        W73890  24.729  22.372   0.928
73027W        W73891  22.031  22.075   0.291
73028W        W73892  23.275  24.548   2.481
73029W        W73893  23.066  24.265   1.676
73030W        W73894  22.989  24.331   0.049
73031W        W73895  22.012  24.789   0.792
73032W        W73896  22.624  23.564   2.962
73033W        W73897  23.288  22.013   3.273
73034W        W73898  23.982  22.403   2.567
73035W        W73899  23.174  22.010   1.040
73036W        W73900  24.106  21.864   0.789
73037W        W73901  22.183  22.082   2.132
73038W        W73902  22.245  22.964   1.476
73039W        W73903  25.007  21.991   1.925
73040W        W73904  22.420  22.758   0.884
73041W        W73905  24.936  22.352   2.315
73042W        W73906  25.393  23.460   0.175
73043W        W73907  22.879  22.449   1.795
73044W        W73908  23.742  22.897   2.649
73045W        W73909  21.925  22.567   0.305
73046W        W73910  22.772  24.088   2.874
73047W        W73911  24.043  23.229   1.919
73048W        W73912  23.813  25.392   0.425
73049W        W73913  22.014  23.880   0.203
73050W        W73914  22.960  24.620   2.964
73051W        W73915  22.263  23.362   2.660
73052W        W73916  23.392  23.695   2.364
73053W        W73917  24.961  22.054   2.720
73054W        W73918  25.502  23.802   2.830
73055W        W73919  25.418  23.655   0.647
73056W        W73920  24.291  24.162   0.803
73057W        W73921  24.842  25.433   0.151
73058W        W73922  23.965  23.486   3.528
73059W        W73923  22.583  24.693   3.327
73060W        W73924  25.350  22.402   3.255
73061W        W73925  25.137  23.213   2.088
73062W        W73926  23.459  25.424   3.485
73063W        W73927  23.467  21.925   0.299
73064W        W73928  25.089  24.458   0.327
73065W        W73929  22.781  22.736   3.036
73066W        W73930  23.468  24.690   2.951
73067W        W73931  25.279  22.454   2.731
73068W        W73932  24.632  25.511   0.624
73069W        W73933  24.684  24.158   2.136
73070W        W73934  22.918  22.407   2.666
73071W        W73935  23.557  23.429   3.233
73072W        W73936  22.726  24.521   0.819
73073W        W73937  24.746  23.981   0.953
73074W        W73938  22.476  22.655   2.597
73075W        W73939  23.676  24.737   1.218
73076W        W73940  25.437  23.256   1.583
73077W        W73941  23.614  22.056   2.883
73078W        W73942  24.673  24.691   2.097
73079W        W73943  24.960  25.095   1.954
73080W        W73944  24.045  24.428   0.424
73081W        W73945  22.101  24.849   3.078
73082W        W73946  22.862  22.788   2.279
73083W        W73947  22.819  22.172   1.377
73084W        W73948  24.383  22.808   1.822
73085W        W73949  23.144  23.925   0.311
73086W        W73950  25.117  23.971   1.916
73087W        W73951  22.606  25.030   2.930
73088W        W73952  25.014  25.505   1.023
73089W        W73953  23.128  22.620   1.386
73090W        W73954  22.678  23.914   1.639
73091W        W73955  23.085  25.477   2.319
73092W        W73956  25.135  25.501   3.308
73093W        W73957  24.353  23.729   2.235
73094W        W73958  22.075  23.414   0.557
73095W        W73959  25.333  25.098   1.091
73096W        W73960  25.189  22.508   0.546
73097W        W73961  23.120  21.954   2.786
73098W        W73962  25.100  24.808   1.509
73099W        W73963  25.033  23.200   1.266
73100W        W73964  23.298  23.109   1.383
73101W        W73965  23.435  23.312   2.732
73102W        W73966  24.429  24.543   2.785
73103W        W73967  23.166  22.862   2.700
73104W        W73968  23.030  25.178   1.606
73105W        W73969  22.610  25.477   3.224
73106W        W73970  22.785  24.718   0.312
73107W        W73971  25.052  24.408   1.178
73108W        W73972  22.719  23.119   2.682
73109W        W73973  25.577  23.023   0.414
73110W        W73974  23.260  24.103   0.798
73111W        W73975  24.372  23.550   2.737
73112W        W73976  24.130  23.194   2.424
73113W        W73977  22.760  23.588   2.433
73114W        W73978  24.929  25.368   2.411
73115W        W73979  24.586  21.971   3.047
73116W        W73980  22.364  22.409   3.028
73117W        W73981  22.763  23.323   1.974
73118W        W73982  23.219  22.896   0.183
73119W        W73983  21.752  24.819   2.674
73120W        W73984  23.752  23.656   1.976
73121W        W73985  23.478  22.430   0.161
73122W        W73986  22.642  23.501   1.152
73123W        W73987  22.043  25.310   2.445
73124W        W73988  24.907  23.644   0.548
73125W        W73989  24.856  22.405   3.109
73126W        W73990  24.547  24.509   1.242
73127W        W73991  22.114  23.503   3.148
73128W        W73992  25.187  22.002   0.542
73129W        W73993  24.758  24.485   0.768
73130W        W73994  23.430  23.621   0.630
73131W        W73995  24.744  22.265   0.408
73132W        W73996  24.801  22.836   2.182
73133W        W73997  22.403  23.463   1.631
73134W        W73998  22.661  24.341   1.321
73135W        W73999  24.535  23.070   1.326
73136W        W74000  23.414  22.509   1.812
73137W        W74001  25.461  24.440   2.500
73138W        W74002  25.382  22.356   2.029
73139W        W74003  22.001  25.213   1.437
73140W        W74004  22.242  24.321   0.938
73141W        W74005  22.248  22.160   3.462
73142W        W74006  23.568  24.918   3.436
73143W        W74007  25.427  23.798   1.515
73144W        W74008  24.707  24.107   0.442
73145W        W74009  24.044  25.664   2.385
73146W        W74010  24.738  24.172   3.480
73147W        W74011  23.586  21.839   0.780
73148W        W74012  24.032  23.008   1.442
73149W        W74013  21.959  24.378   1.927
73150W        W74014  23.332  22.307   0.642
73151W        W74015  23.316  23.877   3.314
73152W        W74016  23.958  22.794   0.969
73153W        W74017  24.278  24.440   2.312
73154W        W74018  22.253  24.857   2.582
73155W        W74019  23.045  25.192   3.203
73156W        W74020  22.819  22.788   0.552
73157W        W74021  24.480  22.827   0.822
73158W        W74022  24.386  25.034   2.967
73159W        W74023  23.002  23.531   1.541
73160W        W74024  22.573  25.225   2.420
73161W        W74025  25.336  25.297   0.219
73162W        W74026  22.322  23.984   3.110
73163W        W74027  24.296  24.303   1.785
73164W        W74028  22.692  23.996   0.909
73165W        W74029  23.142  25.033   2.660
73166W        W74030  23.457  22.169   1.430
73167W        W74031  21.830  24.325   0.561
73168W        W74032  23.634  23.185   0.331
73169W        W74033  22.332  23.895   1.267
73170W        W74034  23.464  22.453   2.607
73171W        W74035  25.175  22.238   0.092
73172W        W74036  25.132  23.887   3.189
73173W        W74037  23.958  25.284   3.404
73174W        W74038  25.406  24.288   2.986
73175W        W74039  24.958  25.041   3.513
73176W        W74040  22.685  25.449   1.958
73177W        W74041  25.502  24.113   1.131
73178W        W74042  24.234  23.491   1.524
73179W        W74043  23.851  21.852   1.247
73180W        W74044  22.837  24.876   1.202
73181W        W74045  23.387  22.808   2.237
73182W        W74046  23.173  22.014   1.843
73183W        W74047  22.256  25.207   0.245
73184W        W74048  23.953  24.265   1.189
73185W        W74049  22.876  25.454   2.782
73186W        W74050  22.237  23.877   0.691
73187W        W74051  22.342  22.380   1.717
73188W        W74052  23.730  24.391   1.700
73189W        W74053  22.003  22.315   0.752
73190W        W74054  24.632  23.244   2.426
73191W        W74055  24.750  22.775   0.365
73192W        W74056  25.133  24.446   2.083
73193W        W74057  23.705  24.914   1.718
73194W        W74058  22.996  25.022   0.731
73195W        W74059  24.315  21.985   0.297
73196W        W74060  22.214  25.227   1.949
73197W        W74061  23.934  23.008   3.259
73198W        W74062  22.151  22.672   3.431
73199W        W74063  22.154  23.221   1.044
73200W        W74064  22.549  23.235   0.717
73201W        W74065  24.359  23.344   3.249
73202W        W74066  23.030  23.798   2.000
73203W        W74067  24.372  22.051   1.217
73204W        W74068  23.646  25.438   1.635
73205W        W74069  24.697  24.931   2.564
73206W        W74070  24.590  24.912   1.620
73207W        W74071  24.403  24.030   1.340
73208W        W74072  23.857  22.209   0.472
73209W        W74073  25.549  21.940   1.257
73210W        W74074  23.206  23.438   0.178
73211W        W74075  25.385  22.830   1.275
73212W        W74076  24.082  23.924   0.351
73213W        W74077  24.852  24.265   2.990
73214W        W74078  24.575  24.617   0.305
73215W        W74079  23.250  22.483   3.077
73216W        W74080  23.118  23.238   2.339
73217W        W74081  25.118  24.720   2.891
73218W        W74082  24.303  22.424   3.020
73219W        W74083  21.808  23.206   2.871
73220W        W74084  23.901  23.666   2.473
73221W        W74085  22.103  24.310   1.438
73222W        W74086  22.284  23.546   2.155
73223W        W74087  24.650  23.970   2.615
73224W        W74088  24.543  25.312   3.361
73225W        W74089  24.246  22.915   2.849
73226W        W74090  24.588  25.305   1.240
73227W        W74091  23.654  25.007   2.533
73228W        W74092  22.939  25.006   2.118
73229W        W74093  24.871  24.448   2.519
73230W        W74094  23.935  24.527   3.411
73231W        W74095  22.457  24.351   1.812
73232W        W74096  24.945  23.980   1.432
73233W        W74097  24.477  25.178   2.141
73234W        W74098  22.464  24.803   2.103
73235W        W74099  23.465  22.949   3.097
73236W        W74100  23.815  25.236   1.180
73237W        W74101  23.449  24.391   3.386
73238W        W74102  23.217  24.618   0.967
73239W        W74103  22.759  23.203   0.259
73240W        W74104  22.020  25.609   7.095
73241W        W74105  22.291  24.476   6.602
73242W        W74106  24.886  23.964   4.393
73243W        W74107  25.342  25.327   6.351
73244W        W74108  22.813  25.362   4.072
73245W        W74109  23.447  23.745   4.764
73246W        W74110  22.743  23.249   5.290
73247W        W74111  23.933  23.932   4.628
73248W        W74112  23.531  25.265   6.849
73249W        W74113  21.990  22.653   6.663
73250W        W74114  22.669  21.898   6.558
73251W        W74115  24.573  22.251   5.535
73252W        W74116  23.929  23.308   4.010
73253W        W74117  24.671  22.780   6.981
73254W        W74118  22.077  22.319   6.269
73255W        W74119  22.169  25.126   7.236
73256W        W74120  23.403  24.650   3.871
73257W        W74121  22.029  23.133   5.802
73258W        W74122  23.173  23.114   6.845
73259W        W74123  25.423  22.796   5.628
73260W        W74124  25.201  24.032   6.114
73261W        W74125  23.616  23.252   5.428
73262W        W74126  24.189  24.744   5.758
73263W        W74127  22.651  23.992   5.902
73264W        W74128  21.838  23.599   5.713
73265W        W74129  23.168  23.609   6.564
73266W        W74130  25.046  23.714   6.952
73267W        W74131  22.840  24.781   5.409
73268W        W74132  23.963  24.522   6.473
73269W        W74133  23.148  23.213   5.629
73270W        W74134  23.472  24.101   5.286
73271W        W74135  24.209  24.802   7.122
73272W        W74136  23.678  23.917   7.283
73273W        W74137  23.676  23.768   6.609
73274W        W74138  21.859  22.834   7.120
73275W        W74139  24.689  24.560   6.971
73276W        W74140  22.231  22.046   4.580
73277W        W74141  22.932  24.436   5.932
73278W        W74142  25.335  24.409   5.307
73279W        W74143  24.947  22.595   5.665
73280W        W74144  25.017  22.729   3.532
73281W        W74145  25.345  23.537   6.176
73282W        W74146  23.414  24.974   5.885
73283W        W74147  25.073  24.709   4.103
73284W        W74148  22.402  25.546   4.353
73285W        W74149  22.784  25.489   4.838
73286W        W74150  22.575  22.185   6.121
73287W        W74151  25.004  23.178   6.323
73288W        W74152  24.593  23.405   5.171
73289W        W74153  24.385  23.485   3.845
73290W        W74154  23.763  24.577   5.998
73291W        W74155  23.579  22.740   5.230
73292W        W74156  24.220  24.901   6.254
73293W        W74157  24.679  23.612   4.709
73294W        W74158  23.584  22.546   4.318
73295W        W74159  22.632  25.102   4.528
73296W        W74160  22.132  22.429   4.951
73297W        W74161  24.913  23.015   5.378
73298W        W74162  22.321  24.843   5.473
73299W        W74163  23.210  25.119   3.802
73300W        W74164  24.720  23.168   3.605
73301W        W74165  22.117  24.912   5.993
73302W        W74166  22.797  24.646   6.399
73303W        W74167  23.497  24.263   4.741
73304W        W74168  23.133  22.416   5.984
73305W        W74169  25.545  21.952   5.614
73306W        W74170  22.948  24.261   3.343
73307W        W74171  22.398  22.836   3.856
73308W        W74172  22.471  24.865   4.978
73309W        W74173  23.153  24.530   5.078
73310W        W74174  24.911  25.279   6.617
73311W        W74175  23.931  22.955   4.467
73312W        W74176  25.113  25.307   5.321
73313W        W74177  24.782  23.301   6.755
73314W        W74178  25.542  24.807   5.027
73315W        W74179  24.093  24.023   6.458
73316W        W74180  21.722  23.329   4.869
73317W        W74181  23.090  24.025   6.222
73318W        W74182  24.242  23.275   4.752
73319W        W74183  24.250  23.735   4.994
73320W        W74184  22.420  23.151   6.140
73321W        W74185  22.321  23.044   6.654
73322W        W74186  22.340  21.953   5.129
73323W        W74187  24.069  22.237   5.848
73324W        W74188  23.803  22.533   6.909
73325W        W74189  23.851  22.777   3.928
73326W        W74190  25.361  25.140   6.862
73327W        W74191  24.136  22.123   6.893
73328W        W74192  25.200  24.565   7.070
73329W        W74193  24.771  22.653   6.488
73330W        W74194  24.441  22.413   5.046
73331W        W74195  24.813  23.681   7.399
73332W        W74196  22.607  25.259   5.273
73333W        W74197  23.314  22.726   3.908
73334W        W74198  22.800  22.260   6.958
73335W        W74199  25.063  22.781   4.666
73336W        W74200  25.194  23.245   4.428
73337W        W74201  23.047  25.441   7.103
73338W        W74202  22.681  22.124   4.320
73339W        W74203  25.336  22.360   5.379
73340W        W74204  25.394  24.837   3.716
73341W        W74205  22.209  23.977   5.585
73342W        W74206  24.093  22.572   3.482
73343W        W74207  25.381  24.893   5.538
73344W        W74208  25.401  21.930   6.138
73345W        W74209  23.977  23.368   6.743
73346W        W74210  23.695  24.556   4.311
73347W        W74211  24.308  23.792   7.448
73348W        W74212  24.193  21.779   5.608
73349W        W74213  22.495  22.970   5.642
73350W        W74214  22.122  24.020   6.308
73351W        W74215  24.154  25.161   5.435
73352W        W74216  25.199  22.771   6.099
73353W        W74217  24.022  25.241   6.608
73354W        W74218  24.988  24.198   3.936
73355W        W74219  23.764  23.671   5.151
73356W        W74220  25.473  21.954   6.660
73357W        W74221  23.583  24.195   6.334
73358W        W74222  23.883  22.889   5.655
73359W        W74223  24.703  23.134   4.538
73360W        W74224  24.906  23.004   4.059
73361W        W74225  24.956  24.813   4.609
73362W        W74226  24.821  24.400   5.397
73363W        W74227  24.289  23.613   4.348
73364W        W74228  24.092  23.874   5.487
73365W        W74229  25.014  23.524   5.428
73366W        W74230  22.189  22.640   5.892
73367W        W74231  24.936  23.684   6.446
73368W        W74232  25.373  25.341   5.806
73369W        W74233  23.313  25.001   5.329
73370W        W74234  24.465  25.367   6.377
73371W        W74235  24.335  22.546   6.196
73372W        W74236  23.530  25.396   6.170
73373W        W74237  25.347  22.347   4.801
73374W        W74238  24.899  23.663   5.916
73375W        W74239  21.956  22.951   6.265
73376W        W74240  24.928  22.559   5.139
73377W        W74241  25.123  22.908   6.756
73378W        W74242  24.153  24.623   5.255
73379W        W74243  23.430  25.244   4.885
73380W        W74244  22.404  22.297   3.926
73381W        W74245  23.595  21.968   5.870
73382W        W74246  22.474  25.589   3.746
73383W        W74247  23.604  24.024   4.243
73384W        W74248  23.712  24.230   6.831
73385W        W74249  23.526  22.388   4.831
73386W        W74250  24.963  22.050   5.194
73387W        W74251  24.614  25.416   5.434
73388W        W74252  23.907  25.146   5.922
73389W        W74253  23.415  24.152   5.844
73390W        W74254  25.220  24.896   6.104
73391W        W74255  22.624  22.367   4.778
73392W        W74256  23.331  24.562   5.575
73393W        W74257  22.638  22.530   3.494
73394W        W74258  23.659  23.270   5.959
73395W        W74259  24.515  21.967   5.973
73396W        W74260  21.799  24.072   5.904
73397W        W74261  23.546  23.641   3.782
73398W        W74262  22.719  22.026   3.617
73399W        W74263  23.717  23.209   4.920
73400W        W74264  24.502  22.146   6.506
73401W        W74265  23.156  24.337   6.625
73402W        W74266  24.068  23.839   6.954
73403W        W74267  24.572  23.944   6.961
73404W        W74268  23.761  22.173   7.300
73405W        W74269  23.104  22.697   5.505
73406W        W74270  22.559  22.701   5.203
73407W        W74271  22.285  25.386   4.838
73408W        W74272  23.746  24.775   6.865
73409W        W74273  22.917  24.486   3.848
73410W        W74274  24.608  23.835   5.492
73411W        W74275  24.589  23.311   5.680
73412W        W74276  23.896  24.002   5.969
73413W        W74277  24.297  24.345   3.734
73414W        W74278  24.032  22.471   5.378
73415W        W74279  25.463  22.599   4.327
73416W        W74280  22.185  25.369   6.674
73417W        W74281  22.405  24.451   6.100
73418W        W74282  21.899  25.461   4.449
73419W        W74283  23.816  22.620   6.108
73420W        W74284  23.011  24.872   4.216
73421W        W74285  25.024  25.214   4.176
73422W        W74286  24.005  23.831   3.948
73423W        W74287  23.414  22.868   4.686
73424W        W74288  23.574  22.628   3.477
73425W        W74289  24.220  24.334   6.874
73426W        W74290  24.838  22.301   4.703
73427W        W74291  21.916  22.039   3.858
73428W        W74292  23.301  24.610   6.222
73429W        W74293  23.004  24.177   5.493
73430W        W74294  23.088  24.753   3.449
73431W        W74295  22.096  24.973   4.603
73432W        W74296  22.689  23.634   6.772
73433W        W74297  23.268  22.091   7.164
73434W        W74298  23.971  22.207   6.403
73435W        W74299  23.094  22.104   4.837
73436W        W74300  24.571  22.688   3.795
73437W        W74301  22.162  21.983   5.897
73438W        W74302  22.080  22.777   5.397
73439W        W74303  25.057  22.077   5.721
73440W        W74304  22.216  22.529   4.383
73441W        W74305  24.825  22.347   6.093
73442W        W74306  25.190  23.346   3.765
73443W        W74307  22.678  22.480   5.713
73444W        W74308  23.909  22.890   6.540
73445W        W74309  21.977  22.550   3.910
73446W        W74310  22.636  24.118   6.432
73447W        W74311  24.084  23.435   5.743
73448W        W74312  23.765  25.380   3.902
73449W        W74313  21.714  23.640   3.584
73450W        W74314  22.847  24.671   6.916
73451W        W74315  22.274  23.529   6.472
73452W        W74316  23.490  23.711   6.145
73453W        W74317  24.963  21.924   6.448
73454W        W74318  25.411  23.890   6.575
73455W        W74319  25.256  23.702   4.162
73456W        W74320  24.131  24.239   4.237
73457W        W74321  24.852  25.520   3.731
73458W        W74322  23.948  23.438   7.260
73459W        W74323  22.421  24.637   7.272
73460W        W74324  25.508  22.291   7.084
73461W        W74325  25.095  23.195   5.818
73462W        W74326  23.507  25.453   7.337
73463W        W74327  23.102  22.123   4.034
73464W        W74328  24.730  24.625   3.730
73465W        W74329  22.779  22.746   6.768
73466W        W74330  23.260  24.857   6.678
73467W        W74331  25.241  22.361   6.394
73468W        W74332  24.610  25.552   4.178
73469W        W74333  24.753  24.154   5.887
73470W        W74334  22.917  22.377   6.456
73471W        W74335  23.508  23.490   6.988
73472W        W74336  22.827  24.614   4.657
73473W        W74337  24.437  24.059   4.609
73474W        W74338  22.486  22.669   6.328
73475W        W74339  23.647  24.589   5.117
73476W        W74340  25.428  23.240   5.394
73477W        W74341  23.648  22.056   6.815
73478W        W74342  24.668  24.645   5.867
73479W        W74343  24.927  25.074   5.732
73480W        W74344  23.886  24.849   3.841
73481W        W74345  21.971  24.682   6.983
73482W        W74346  22.862  22.891   6.000
73483W        W74347  22.779  22.243   5.260
73484W        W74348  24.366  22.703   5.704
73485W        W74349  23.316  24.124   3.801
73486W        W74350  25.126  24.009   5.568
73487W        W74351  22.403  24.925   6.836
73488W        W74352  24.956  25.556   4.622
73489W        W74353  23.062  22.605   4.989
73490W        W74354  22.714  23.764   5.428
73491W        W74355  23.115  25.636   6.012
73492W        W74356  25.160  25.598   6.939
73493W        W74357  24.371  23.818   5.958
73494W        W74358  22.065  23.161   3.539
73495W        W74359  25.251  25.180   4.838
73496W        W74360  25.028  22.502   4.027
73497W        W74361  23.162  21.990   6.687
73498W        W74362  25.038  24.805   5.151
73499W        W74363  25.027  23.250   4.939
73500W        W74364  23.220  23.097   5.125
73501W        W74365  23.543  23.261   6.478
73502W        W74366  24.511  24.527   6.486
73503W        W74367  23.190  22.831   6.409
73504W        W74368  23.102  25.461   5.251
73505W        W74369  22.537  25.500   7.017
73506W        W74370  22.719  25.099   3.620
73507W        W74371  24.885  24.317   4.778
73508W        W74372  22.797  23.183   6.494
73509W        W74373  25.391  22.855   3.869
73510W        W74374  23.208  24.390   4.293
73511W        W74375  24.401  23.621   6.604
73512W        W74376  24.155  23.040   6.077
73513W        W74377  22.740  23.632   6.253
73514W        W74378  24.897  25.439   6.093
73515W        W74379  24.617  22.231   7.053
73516W        W74380  22.369  22.309   6.696
73517W        W74381  22.708  23.405   5.800
73518W        W74382  23.090  22.863   3.445
73519W        W74383  22.002  24.912   6.497
73520W        W74384  23.616  23.715   5.644
73521W        W74385  23.121  22.370   3.581
73522W        W74386  22.226  23.140   5.049
73523W        W74387  22.174  25.434   6.174
73524W        W74388  24.779  23.500   4.169
73525W        W74389  25.054  22.403   6.858
73526W        W74390  24.570  24.677   4.946
73527W        W74391  22.207  23.449   6.976
73528W        W74392  25.279  22.127   4.294
73529W        W74393  24.659  24.418   4.275
73530W        W74394  23.801  23.464   4.479
73531W        W74395  24.512  22.270   3.470
73532W        W74396  24.692  22.903   6.031
73533W        W74397  22.289  23.453   5.475
73534W        W74398  22.673  24.375   5.102
73535W        W74399  24.580  22.921   4.989
73536W        W74400  23.585  22.447   5.672
73537W        W74401  25.505  24.476   6.170
73538W        W74402  25.436  22.370   5.902
73539W        W74403  22.055  25.282   5.277
73540W        W74404  22.272  24.454   4.745
73541W        W74405  22.378  22.262   7.310
73542W        W74406  23.229  24.982   7.225
73543W        W74407  25.409  23.752   5.194
73544W        W74408  24.525  23.958   4.015
73545W        W74409  24.046  25.573   6.175
73546W        W74410  24.918  24.173   7.248
73547W        W74411  23.420  22.034   4.432
73548W        W74412  22.052  24.471   5.727
73549W        W74413  23.087  22.455   4.460
73550W        W74414  23.280  23.956   6.944
73551W        W74415  24.055  22.817   4.982
73552W        W74416  24.264  24.347   6.083
73553W        W74417  22.477  25.045   6.353
73554W        W74418  22.708  25.061   7.234
73555W        W74419  22.834  22.558   3.989
73556W        W74420  24.371  23.080   4.160
73557W        W74421  24.486  24.968   6.716
73558W        W74422  23.238  23.617   5.290
73559W        W74423  22.673  25.397   6.056
73560W        W74424  25.330  25.340   3.762
73561W        W74425  22.287  23.976   6.797
73562W        W74426  24.359  24.291   5.592
73563W        W74427  23.048  24.019   4.997
73564W        W74428  23.053  25.095   6.238
73565W        W74429  23.304  22.248   5.290
73566W        W74430  21.761  24.570   4.707
73567W        W74431  23.588  23.118   3.645
73568W        W74432  22.363  23.934   5.087
73569W        W74433  23.455  22.374   6.433
73570W        W74434  25.004  22.212   3.596
73571W        W74435  25.393  24.064   7.083
73572W        W74436  24.003  25.358   7.105
73573W        W74437  25.451  24.399   6.664
73574W        W74438  24.887  25.058   7.090
73575W        W74439  22.721  25.627   5.609
73576W        W74440  25.372  24.152   4.874
73577W        W74441  24.109  23.265   5.261
73578W        W74442  23.770  22.022   5.395
73579W        W74443  22.964  25.022   4.948
73580W        W74444  23.384  22.855   5.920
73581W        W74445  23.081  21.995   5.681
73582W        W74446  22.156  25.246   3.984
73583W        W74447  23.947  24.165   5.081
73584W        W74448  22.838  25.167   6.715
73585W        W74449  22.111  23.630   4.751
73586W        W74450  22.248  22.307   5.483
73587W        W74451  23.838  24.333   5.562
73588W        W74452  21.810  22.199   4.334
73589W        W74453  24.549  23.389   6.182
73590W        W74454  24.219  23.041   3.665
73591W        W74455  25.158  24.486   5.785
73592W        W74456  23.756  24.853   5.531
73593W        W74457  23.122  25.311   4.481
73594W        W74458  24.202  21.848   3.372
73595W        W74459  22.320  25.295   5.705
73596W        W74460  24.193  22.982   6.990
73597W        W74461  22.351  22.701   7.053
73598W        W74462  22.012  22.994   4.578
73599W        W74463  23.509  23.092   4.207
73600W        W74464  24.438  23.431   7.106
73601W        W74465  23.105  23.731   5.789
73602W        W74466  24.445  21.903   5.158
73603W        W74467  23.473  25.432   5.641
73604W        W74468  24.740  24.953   6.256
73605W        W74469  24.584  24.879   5.416
73606W        W74470  24.466  24.185   5.105
73607W        W74471  23.578  22.278   3.859
73608W        W74472  25.495  21.941   5.092
73609W        W74473  23.148  23.386   3.543
73610W        W74474  25.363  22.820   5.095
73611W        W74475  23.792  24.319   3.857
73612W        W74476  24.978  24.188   6.717
73613W        W74477  24.578  25.110   3.867
73614W        W74478  23.255  22.555   6.906
73615W        W74479  23.149  23.311   6.131
73616W        W74480  25.059  24.784   6.633
73617W        W74481  24.288  22.565   6.705
73618W        W74482  21.818  23.198   6.724
73619W        W74483  24.006  23.543   6.249
73620W        W74484  22.191  24.386   5.242
73621W        W74485  22.273  23.631   5.974
73622W        W74486  24.602  24.047   6.369
73623W        W74487  24.516  25.423   6.910
73624W        W74488  24.415  23.033   6.523
73625W        W74489  24.744  25.186   4.972
73626W        W74490  23.675  24.944   6.364
73627W        W74491  22.993  25.202   5.694
73628W        W74492  24.964  24.456   6.261
73629W        W74493  23.836  24.439   7.287
73630W        W74494  22.547  24.396   5.603
73631W        W74495  24.915  23.907   5.085
73632W        W74496  24.443  25.183   5.879
73633W        W74497  22.641  24.875   5.893
73634W        W74498  23.681  23.016   7.026
73635W        W74499  23.505  25.055   4.223
73636W        W74500  23.340  24.496   7.080
73637W        W74501  23.328  24.779   4.644
73638W        W74502  22.592  23.054   3.402
73639W        W74503  22.096  25.849  10.711
73640W        W74504  22.428  24.477  10.227
73641W        W74505  25.301  24.001   8.124
73642W        W74506  25.390  25.253   9.996
73643W        W74507  22.947  25.304   7.608
73644W        W74508  23.270  23.578   8.368
73645W        W74509  22.697  23.596   9.200
73646W        W74510  23.649  23.901   8.198
73647W        W74511  23.508  25.273  10.375
73648W        W74512  21.958  22.548  10.321
73649W        W74513  22.533  21.760  10.171
73650W        W74514  24.468  22.451   8.971
73651W        W74515  24.154  22.993   7.492
73652W        W74516  24.694  22.833  10.649
73653W        W74517  22.102  22.232   9.902
73654W        W74518  22.289  25.393  10.927
73655W        W74519  23.421  24.642   7.579
73656W        W74520  21.838  23.133   9.489
73657W        W74521  23.144  23.307  10.521
73658W        W74522  25.278  22.801   9.059
73659W        W74523  25.201  24.049   9.955
73660W        W74524  23.700  23.198   8.862
73661W        W74525  24.273  24.713   9.378
73662W        W74526  22.551  23.997   9.505
73663W        W74527  21.687  23.561   9.191
73664W        W74528  23.121  23.665  10.104
73665W        W74529  25.268  23.433  10.589
73666W        W74530  22.902  24.788   9.003
73667W        W74531  24.005  24.596  10.080
73668W        W74532  23.331  23.141   9.276
73669W        W74533  23.487  23.935   9.058
73670W        W74534  24.226  24.873  10.835
73671W        W74535  23.605  24.050  10.833
73672W        W74536  23.664  23.851  10.326
73673W        W74537  21.510  22.850  10.612
73674W        W74538  24.687  24.666  10.635
73675W        W74539  22.339  22.078   8.378
73676W        W74540  23.030  24.495   9.521
73677W        W74541  25.398  24.320   8.955
73678W        W74542  24.798  22.757   9.256
73679W        W74543  25.111  22.731   7.269
73680W        W74544  25.537  23.468   9.781
73681W        W74545  23.569  25.309   9.524
73682W        W74546  25.333  24.984   7.898
73683W        W74547  22.315  25.481   8.015
73684W        W74548  22.829  25.521   8.493
73685W        W74549  22.648  22.120   9.789
73686W        W74550  25.146  23.157   9.978
73687W        W74551  24.600  23.574   8.524
73688W        W74552  24.564  23.298   7.636
73689W        W74553  23.848  24.550   9.593
73690W        W74554  23.638  22.694   8.867
73691W        W74555  24.186  25.007   9.825
73692W        W74556  25.101  23.625   8.410
73693W        W74557  24.039  22.339   8.206
73694W        W74558  22.669  25.130   8.167
73695W        W74559  22.020  22.484   8.513
73696W        W74560  24.601  23.169   9.002
73697W        W74561  22.363  24.896   9.096
73698W        W74562  23.427  25.141   7.736
73699W        W74563  24.903  23.195   7.231
73700W        W74564  22.223  24.969   9.582
73701W        W74565  22.925  24.512  10.033
73702W        W74566  23.331  24.058   8.588
73703W        W74567  23.088  22.359   9.633
73704W        W74568  25.392  21.998   9.133
73705W        W74569  22.782  24.155   6.939
73706W        W74570  22.395  22.668   7.635
73707W        W74571  22.536  24.867   8.622
73708W        W74572  23.218  24.565   8.598
73709W        W74573  24.945  25.207  10.276
73710W        W74574  23.925  22.954   7.949
73711W        W74575  25.198  25.237   8.771
73712W        W74576  24.833  23.272  10.396
73713W        W74577  25.575  24.740   8.714
73714W        W74578  24.181  24.074  10.173
73715W        W74579  21.742  23.882   8.329
73716W        W74580  23.055  24.016   9.714
73717W        W74581  24.243  23.283   8.221
73718W        W74582  24.125  23.767   8.378
73719W        W74583  22.435  23.100   9.784
73720W        W74584  22.310  22.950  10.255
73721W        W74585  22.308  21.951   8.914
73722W        W74586  24.013  22.455   9.228
73723W        W74587  23.824  22.544  10.485
73724W        W74588  24.164  22.517   7.730
73725W        W74589  25.414  25.102  10.510
73726W        W74590  24.120  22.138  10.588
73727W        W74591  25.209  24.621  10.686
73728W        W74592  24.788  22.761  10.153
73729W        W74593  24.464  22.507   8.451
73730W        W74594  24.968  23.695  10.923
73731W        W74595  22.698  25.261   8.919
73732W        W74596  23.463  22.745   7.903
73733W        W74597  22.701  22.152  10.467
73734W        W74598  24.897  22.767   8.229
73735W        W74599  25.264  23.201   8.166
73736W        W74600  23.068  25.637  10.754
73737W        W74601  22.875  21.951   7.947
73738W        W74602  25.296  22.375   8.784
73739W        W74603  25.356  24.949   7.362
73740W        W74604  22.442  24.002   8.995
73741W        W74605  24.229  22.523   7.228
73742W        W74606  25.434  24.846   9.206
73743W        W74607  25.453  21.955   9.881
73744W        W74608  24.004  23.396  10.439
73745W        W74609  23.557  24.391   8.242
73746W        W74610  24.477  23.835  10.955
73747W        W74611  24.046  21.985   9.011
73748W        W74612  22.311  23.043   9.287
73749W        W74613  22.159  24.072   9.845
73750W        W74614  24.182  25.164   8.865
73751W        W74615  25.221  22.826   9.570
73752W        W74616  24.001  25.315  10.213
73753W        W74617  25.240  23.959   7.593
73754W        W74618  23.692  23.658   8.649
73755W        W74619  25.503  22.240  10.304
73756W        W74620  23.751  24.160   9.929
73757W        W74621  23.802  22.940   9.296
73758W        W74622  24.745  23.249   8.134
73759W        W74623  25.032  23.080   7.721
73760W        W74624  25.080  24.856   8.362
73761W        W74625  24.770  24.360   9.070
73762W        W74626  24.486  23.678   7.987
73763W        W74627  24.009  23.820   9.004
73764W        W74628  24.976  23.543   8.937
73765W        W74629  22.434  22.584   9.602
73766W        W74630  24.954  23.787  10.393
73767W        W74631  25.455  25.336   9.403
73768W        W74632  23.377  24.943   8.939
73769W        W74633  24.507  25.387  10.058
73770W        W74634  24.337  22.719   9.893
73771W        W74635  23.626  25.578   9.960
73772W        W74636  25.197  22.348   8.266
73773W        W74637  25.069  23.664   9.626
73774W        W74638  22.021  22.758   9.842
73775W        W74639  24.867  22.685   8.749
73776W        W74640  25.204  22.924  10.448
73777W        W74641  24.209  24.558   8.875
73778W        W74642  23.524  25.204   8.518
73779W        W74643  22.431  22.180   7.822
73780W        W74644  23.690  21.989   9.410
73781W        W74645  22.449  25.458   7.523
73782W        W74646  23.212  23.870   7.922
73783W        W74647  23.666  24.377  10.407
73784W        W74648  23.578  22.439   8.420
73785W        W74649  24.832  22.177   8.646
73786W        W74650  24.622  25.419   9.034
73787W        W74651  24.056  25.227   9.370
73788W        W74652  23.468  24.198   9.496
73789W        W74653  25.203  24.894   9.674
73790W        W74654  22.829  22.267   8.341
73791W        W74655  23.432  24.809   9.440
73792W        W74656  22.816  22.636   7.304
73793W        W74657  23.724  23.220   9.719
73794W        W74658  24.462  22.267   9.458
73795W        W74659  22.032  23.969   9.346
73796W        W74660  23.639  23.657   7.733
73797W        W74661  22.854  22.131   7.470
73798W        W74662  23.544  22.983   8.383
73799W        W74663  24.510  22.245   9.984
73800W        W74664  23.268  24.150  10.171
73801W        W74665  24.069  23.895  10.643
73802W        W74666  24.551  24.114  10.537
73803W        W74667  23.659  22.132  10.849
73804W        W74668  23.059  22.698   9.233
73805W        W74669  22.508  22.461   8.699
73806W        W74670  22.346  25.349   8.524
73807W        W74671  23.825  24.878  10.489
73808W        W74672  22.615  24.480   7.831
73809W        W74673  24.505  23.712   9.028
73810W        W74674  24.633  23.440   9.437
73811W        W74675  23.913  23.942   9.496
73812W        W74676  24.419  24.300   7.347
73813W        W74677  24.024  22.399   8.714
73814W        W74678  25.413  22.736   7.999
73815W        W74679  22.180  25.650  10.250
73816W        W74680  22.508  24.470   9.723
73817W        W74681  21.819  25.556   8.104
73818W        W74682  23.869  22.641   9.700
73819W        W74683  22.978  24.865   7.830
73820W        W74684  24.941  25.183   7.613
73821W        W74685  24.083  23.424   7.762
73822W        W74686  23.119  22.696   8.306
73823W        W74687  23.746  22.671   7.433
73824W        W74688  24.160  24.448  10.546
73825W        W74689  24.713  22.237   8.103
73826W        W74690  21.990  22.001   7.594
73827W        W74691  23.419  24.542   9.878
73828W        W74692  23.320  24.445   9.075
73829W        W74693  22.929  24.579   7.412
73830W        W74694  22.061  25.071   8.215
73831W        W74695  22.724  23.686  10.419
73832W        W74696  23.186  22.092  10.611
73833W        W74697  24.011  22.300  10.079
73834W        W74698  23.263  22.006   8.485
73835W        W74699  24.274  22.012   7.888
73836W        W74700  22.256  22.104   9.432
73837W        W74701  21.966  22.904   8.883
73838W        W74702  24.939  22.272   9.161
73839W        W74703  22.415  22.558   8.171
73840W        W74704  24.855  22.496   9.704
73841W        W74705  25.310  23.491   7.361
73842W        W74706  22.662  22.361   9.201
73843W        W74707  23.889  22.940  10.141
73844W        W74708  21.921  22.509   7.524
73845W        W74709  22.659  24.031  10.017
73846W        W74710  24.157  23.337   9.246
73847W        W74711  23.967  25.513   7.616
73848W        W74712  21.800  23.445   7.333
73849W        W74713  22.818  24.791  10.477
73850W        W74714  22.381  23.572  10.050
73851W        W74715  23.511  23.727   9.771
73852W        W74716  25.010  22.144  10.076
73853W        W74717  25.482  23.748  10.238
73854W        W74718  25.497  23.568   7.866
73855W        W74719  24.055  23.936   7.877
73856W        W74720  24.824  25.579   7.312
73857W        W74721  24.078  23.521  11.022
73858W        W74722  22.371  24.910  10.734
73859W        W74723  25.570  22.486  10.747
73860W        W74724  25.067  23.212   9.302
73861W        W74725  23.534  25.471  10.856
73862W        W74726  23.341  21.954   7.652
73863W        W74727  24.870  24.663   7.462
73864W        W74728  22.815  22.793  10.384
73865W        W74729  23.315  24.798  10.301
73866W        W74730  25.260  22.607  10.030
73867W        W74731  24.522  25.615   7.743
73868W        W74732  24.756  24.111   9.529
73869W        W74733  23.024  22.392  10.147
73870W        W74734  23.623  23.536  10.733
73871W        W74735  22.834  24.637   8.274
73872W        W74736  24.791  24.019   8.237
73873W        W74737  22.491  22.489  10.115
73874W        W74738  23.723  24.690   8.643
73875W        W74739  25.387  23.253   8.839
73876W        W74740  23.627  22.052  10.338
73877W        W74741  24.775  24.699   9.453
73878W        W74742  25.002  25.129   9.243
73879W        W74743  23.742  24.979   7.339
73880W        W74744  22.015  24.743  10.390
73881W        W74745  22.864  22.794   9.846
73882W        W74746  22.800  22.058   8.814
73883W        W74747  24.315  22.852   9.399
73884W        W74748  23.214  24.134   7.440
73885W        W74749  25.113  23.965   9.196
73886W        W74750  22.492  25.249  10.362
73887W        W74751  25.064  25.402   8.273
73888W        W74752  23.152  22.445   8.766
73889W        W74753  22.978  24.072   9.194
73890W        W74754  23.160  25.627   9.735
73891W        W74755  25.174  25.549  10.583
73892W        W74756  24.365  23.796   9.682
73893W        W74757  22.212  23.095   7.374
73894W        W74758  25.519  25.113   8.371
73895W        W74759  25.007  22.560   7.760
73896W        W74760  23.047  21.876  10.131
73897W        W74761  25.069  24.735   8.872
73898W        W74762  24.953  23.171   8.595
73899W        W74763  23.212  22.973   8.791
73900W        W74764  23.548  23.372  10.183
73901W        W74765  24.519  24.490  10.171
73902W        W74766  23.265  22.936  10.167
73903W        W74767  23.185  25.408   8.871
73904W        W74768  22.576  25.687  10.620
73905W        W74769  22.481  24.971   7.700
73906W        W74770  25.143  24.361   8.493
73907W        W74771  22.806  23.243  10.119
73908W        W74772  25.545  23.098   7.632
73909W        W74773  23.142  24.387   7.921
73910W        W74774  24.439  23.647  10.347
73911W        W74775  24.253  23.236   9.762
73912W        W74776  22.774  23.577   9.721
73913W        W74777  24.945  25.361   9.730
73914W        W74778  24.647  22.102  10.465
73915W        W74779  22.198  22.109  10.393
73916W        W74780  22.831  23.137   9.442
73917W        W74781  23.264  22.922   7.323
73918W        W74782  22.114  25.109  10.048
73919W        W74783  23.678  23.517   9.287
73920W        W74784  23.275  22.447   7.528
73921W        W74785  22.885  23.835   8.746
73922W        W74786  22.268  25.518   9.780
73923W        W74787  24.989  23.615   7.886
73924W        W74788  25.060  22.441  10.494
73925W        W74789  24.668  24.541   8.597
73926W        W74790  22.124  23.394  10.473
73927W        W74791  25.107  22.065   7.819
73928W        W74792  25.065  24.446   7.971
73929W        W74793  23.760  23.408   8.188
73930W        W74794  24.610  22.293   7.587
73931W        W74795  24.731  23.010   9.700
73932W        W74796  22.182  23.544   9.041
73933W        W74797  22.773  24.354   8.745
73934W        W74798  24.495  22.996   8.537
73935W        W74799  23.513  22.474   9.324
73936W        W74800  25.498  24.479   9.824
73937W        W74801  25.322  22.330   9.533
73938W        W74802  22.064  25.319   8.940
73939W        W74803  22.306  24.612   8.249
73940W        W74804  22.251  22.158  10.937
73941W        W74805  23.248  25.040  10.765
73942W        W74806  25.407  23.807   8.786
73943W        W74807  24.730  24.071   7.724
73944W        W74808  24.104  25.556   9.764
73945W        W74809  24.924  24.215  10.890
73946W        W74810  23.578  21.852   8.091
73947W        W74811  24.150  22.881   8.916
73948W        W74812  22.122  24.487   9.371
73949W        W74813  23.265  22.274   8.044
73950W        W74814  23.205  23.831  10.587
73951W        W74815  24.026  22.822   8.425
73952W        W74816  24.306  24.320   9.732
73953W        W74817  22.600  24.915   9.988
73954W        W74818  22.766  25.238  10.797
73955W        W74819  22.848  22.494   7.848
73956W        W74820  24.438  22.847   8.008
73957W        W74821  24.342  24.945  10.330
73958W        W74822  23.263  23.497   8.895
73959W        W74823  22.743  25.340   9.726
73960W        W74824  25.355  25.449   7.417
73961W        W74825  22.297  23.994  10.374
73962W        W74826  24.317  24.172   9.237
73963W        W74827  22.905  24.121   8.297
73964W        W74828  23.117  24.975   9.827
73965W        W74829  23.579  22.182   8.901
73966W        W74830  21.892  24.691   7.918
73967W        W74831  23.656  23.159   7.562
73968W        W74832  22.377  24.128   8.472
73969W        W74833  23.523  22.495  10.060
73970W        W74834  25.069  22.225   7.344
73971W        W74835  25.357  23.961  10.695
73972W        W74836  24.025  25.355  10.724
73973W        W74837  25.493  24.347  10.319
73974W        W74838  24.994  25.088  10.797
73975W        W74839  22.847  25.622   9.282
73976W        W74840  25.619  24.195   8.508
73977W        W74841  24.168  23.380   8.731
73978W        W74842  23.825  21.950   8.525
73979W        W74843  23.020  25.041   8.553
73980W        W74844  23.370  22.813   9.673
73981W        W74845  23.161  22.112   9.182
73982W        W74846  22.015  25.196   7.714
73983W        W74847  23.845  24.161   8.635
73984W        W74848  22.998  25.239  10.278
73985W        W74849  22.052  24.202   8.040
73986W        W74850  22.122  22.428   9.040
73987W        W74851  23.828  24.317   9.131
73988W        W74852  21.973  22.311   8.016
73989W        W74853  24.703  23.476   9.946
73990W        W74854  24.628  22.800   7.497
73991W        W74855  25.195  24.418   9.416
73992W        W74856  23.840  24.837   9.127
73993W        W74857  23.169  25.324   8.138
73994W        W74858  24.243  22.005   7.373
73995W        W74859  22.408  25.367   9.317
73996W        W74860  24.094  22.948  10.666
73997W        W74861  22.384  22.556  10.619
73998W        W74862  21.717  23.342   8.401
73999W        W74863  23.332  23.266   7.944
74000W        W74864  24.462  23.305  10.748
74001W        W74865  23.179  23.633   9.388
74002W        W74866  24.346  22.006   8.566
74003W        W74867  23.696  25.351   9.006
74004W        W74868  24.705  24.918   9.923
74005W        W74869  24.594  24.883   9.015
74006W        W74870  24.377  24.092   8.706
74007W        W74871  23.716  22.282   7.804
74008W        W74872  25.540  21.988   8.569
74009W        W74873  23.261  23.489   7.436
74010W        W74874  25.314  22.825   8.526
74011W        W74875  23.617  24.187   7.751
74012W        W74876  24.982  24.305  10.357
74013W        W74877  24.447  25.214   7.377
74014W        W74878  23.318  22.579  10.548
74015W        W74879  23.206  23.284   9.776
74016W        W74880  25.187  24.763  10.183
74017W        W74881  24.348  22.563  10.386
74018W        W74882  21.972  23.254   9.985
74019W        W74883  23.976  23.630   9.974
74020W        W74884  22.269  24.460   8.846
74021W        W74885  22.282  23.534   9.543
74022W        W74886  24.678  24.015  10.028
74023W        W74887  24.560  25.337  10.606
74024W        W74888  24.384  23.093  10.252
74025W        W74889  24.720  25.151   8.599
74026W        W74890  23.666  24.997   9.942
74027W        W74891  23.102  25.187   9.329
74028W        W74892  24.934  24.461   9.864
74029W        W74893  23.801  24.516  10.918
74030W        W74894  22.611  24.437   9.227
74031W        W74895  24.886  23.992   8.734
74032W        W74896  24.545  25.159   9.483
74033W        W74897  22.713  24.892   9.476
74034W        W74898  23.596  23.027  10.577
74035W        W74899  23.796  25.059   8.100
74036W        W74900  23.254  24.489  10.712
74037W        W74901  23.334  24.841   8.182
74038W        W74902  22.657  23.161   7.037
74039W        W74903  22.029  25.711  14.470
74040W        W74904  22.504  24.774  13.945
74041W        W74905  25.092  23.996  11.758
74042W        W74906  25.344  25.309  13.671
74043W        W74907  23.082  25.369  11.198
74044W        W74908  23.503  23.389  12.049
74045W        W74909  22.935  23.363  12.646
74046W        W74910  24.060  24.021  11.848
74047W        W74911  23.602  25.244  14.122
74048W        W74912  21.899  22.461  13.940
74049W        W74913  22.503  21.777  13.643
74050W        W74914  24.531  22.441  12.681
74051W        W74915  24.212  23.040  11.165
74052W        W74916  24.672  22.871  14.352
74053W        W74917  21.967  22.195  13.485
74054W        W74918  22.365  25.290  14.518
74055W        W74919  23.355  24.707  11.188
74056W        W74920  21.982  22.871  12.993
74057W        W74921  23.193  23.198  13.979
74058W        W74922  25.350  22.869  12.746
74059W        W74923  25.288  24.046  13.560
74060W        W74924  23.804  23.295  12.575
74061W        W74925  24.193  24.783  12.977
74062W        W74926  22.502  24.057  13.315
74063W        W74927  21.597  23.566  13.160
74064W        W74928  23.225  23.696  13.826
74065W        W74929  25.309  23.484  14.342
74066W        W74930  22.883  24.887  12.736
74067W        W74931  24.078  24.610  13.748
74068W        W74932  23.365  23.200  12.909
74069W        W74933  23.521  24.034  12.763
74070W        W74934  24.412  24.854  14.425
74071W        W74935  23.722  24.014  14.506
74072W        W74936  23.754  23.840  13.866
74073W        W74937  21.534  23.060  14.385
74074W        W74938  24.795  24.694  14.136
74075W        W74939  22.351  21.995  12.142
74076W        W74940  23.039  24.683  13.188
74077W        W74941  25.328  24.361  12.528
74078W        W74942  24.901  22.702  12.943
74079W        W74943  25.135  22.702  10.932
74080W        W74944  25.562  23.497  13.475
74081W        W74945  23.734  25.233  13.224
74082W        W74946  25.278  24.807  11.552
74083W        W74947  22.497  25.657  11.649
74084W        W74948  22.792  25.598  12.118
74085W        W74949  22.787  22.151  13.383
74086W        W74950  25.172  23.165  13.675
74087W        W74951  24.727  23.650  12.315
74088W        W74952  24.622  23.413  11.221
74089W        W74953  23.823  24.665  13.308
74090W        W74954  23.783  22.789  12.409
74091W        W74955  24.176  25.028  13.450
74092W        W74956  25.206  23.651  12.114
74093W        W74957  24.233  22.283  11.791
74094W        W74958  22.612  25.179  11.873
74095W        W74959  21.996  22.373  12.224
74096W        W74960  24.773  23.225  12.653
74097W        W74961  22.384  24.957  12.900
74098W        W74962  23.473  25.164  11.445
74099W        W74963  24.975  23.184  10.920
74100W        W74964  22.149  25.160  13.322
74101W        W74965  22.914  24.917  13.673
74102W        W74966  23.395  24.008  12.245
74103W        W74967  23.119  22.375  13.007
74104W        W74968  25.451  21.961  12.676
74105W        W74969  22.841  24.226  10.463
74106W        W74970  22.187  22.650  11.106
74107W        W74971  22.499  24.938  12.364
74108W        W74972  23.274  24.513  12.234
74109W        W74973  24.912  25.177  13.925
74110W        W74974  23.919  23.019  11.591
74111W        W74975  25.199  25.294  12.519
74112W        W74976  24.864  23.313  14.109
74113W        W74977  25.564  24.794  12.328
74114W        W74978  24.195  24.105  13.737
74115W        W74979  22.039  23.618  12.380
74116W        W74980  22.981  24.141  13.123
74117W        W74981  24.364  23.254  11.628
74118W        W74982  24.315  23.604  12.011
74119W        W74983  22.386  22.972  13.292
74120W        W74984  22.370  22.908  13.794
74121W        W74985  22.314  21.927  12.655
74122W        W74986  24.094  22.426  12.975
74123W        W74987  23.785  22.573  14.305
74124W        W74988  24.063  22.575  11.390
74125W        W74989  25.379  25.096  14.151
74126W        W74990  24.180  22.124  13.998
74127W        W74991  25.251  24.560  14.299
74128W        W74992  24.776  22.760  13.850
74129W        W74993  24.521  22.541  12.157
74130W        W74994  24.891  23.737  14.453
74131W        W74995  22.668  25.352  12.658
74132W        W74996  23.522  22.725  11.429
74133W        W74997  22.707  22.085  14.003
74134W        W74998  24.939  22.757  11.930
74135W        W74999  25.300  23.238  11.809
74136W        W75000  23.157  25.545  14.299
74137W        W75001  22.762  21.839  11.574
74138W        W75002  25.310  22.425  12.507
74139W        W75003  25.440  24.893  11.054
74140W        W75004  22.202  24.120  12.909
74141W        W75005  24.279  22.548  10.911
74142W        W75006  25.459  24.933  12.804
74143W        W75007  25.415  22.215  13.488
74144W        W75008  23.998  23.398  14.109
74145W        W75009  23.684  24.716  11.587
74146W        W75010  24.455  23.975  14.561
74147W        W75011  23.947  21.967  12.760
74148W        W75012  22.461  22.795  12.802
74149W        W75013  22.267  24.370  13.665
74150W        W75014  24.247  25.278  12.429
74151W        W75015  25.288  22.811  13.266
74152W        W75016  24.074  25.332  13.893
74153W        W75017  25.290  23.980  11.237
74154W        W75018  23.850  23.715  12.217
74155W        W75019  25.482  22.279  14.021
74156W        W75020  23.706  24.271  13.617
74157W        W75021  23.950  22.922  12.897
74158W        W75022  24.858  23.093  11.560
74159W        W75023  25.303  23.038  11.298
74160W        W75024  24.867  24.917  11.841
74161W        W75025  24.756  24.395  12.626
74162W        W75026  24.781  23.539  11.808
74163W        W75027  24.010  23.834  12.686
74164W        W75028  25.018  23.694  12.757
74165W        W75029  22.269  22.486  13.174
74166W        W75030  25.089  23.726  13.911
74167W        W75031  25.410  25.382  13.038
74168W        W75032  23.367  24.947  12.506
74169W        W75033  24.538  25.373  13.625
74170W        W75034  24.329  22.706  13.406
74171W        W75035  23.631  25.508  13.658
74172W        W75036  25.274  22.362  12.007
74173W        W75037  25.076  23.686  13.284
74174W        W75038  21.975  22.721  13.501
74175W        W75039  24.894  22.754  12.441
74176W        W75040  25.198  22.941  14.155
74177W        W75041  24.215  24.588  12.462
74178W        W75042  23.508  25.347  12.198
74179W        W75043  22.348  22.146  11.445
74180W        W75044  23.612  22.217  13.071
74181W        W75045  22.668  25.684  11.124
74182W        W75046  23.535  23.844  11.761
74183W        W75047  23.865  24.320  14.108
74184W        W75048  23.712  22.368  11.996
74185W        W75049  24.881  22.214  12.336
74186W        W75050  24.683  25.448  12.708
74187W        W75051  24.121  25.309  12.928
74188W        W75052  23.447  24.333  13.183
74189W        W75053  25.255  24.934  13.324
74190W        W75054  22.812  22.181  11.957
74191W        W75055  23.480  24.854  12.992
74192W        W75056  22.869  22.511  10.812
74193W        W75057  23.729  23.172  13.282
74194W        W75058  24.499  22.158  13.194
74195W        W75059  21.907  24.149  13.343
74196W        W75060  23.653  23.695  11.253
74197W        W75061  22.799  22.024  10.967
74198W        W75062  23.987  23.208  12.100
74199W        W75063  24.558  22.313  13.687
74200W        W75064  23.190  24.166  13.615
74201W        W75065  24.124  23.885  14.203
74202W        W75066  24.620  23.939  14.064
74203W        W75067  23.863  22.253  14.693
74204W        W75068  22.979  22.843  12.789
74205W        W75069  22.493  22.437  12.384
74206W        W75070  22.327  25.438  12.281
74207W        W75071  23.982  24.879  14.161
74208W        W75072  23.213  24.489  11.688
74209W        W75073  24.512  23.782  12.761
74210W        W75074  24.659  23.441  13.109
74211W        W75075  23.892  24.069  13.153
74212W        W75076  24.429  24.368  10.982
74213W        W75077  24.088  22.371  12.411
74214W        W75078  25.421  22.746  11.711
74215W        W75079  22.273  25.508  14.057
74216W        W75080  22.467  24.797  13.430
74217W        W75081  22.035  25.596  11.879
74218W        W75082  23.749  22.653  13.316
74219W        W75083  22.999  24.942  11.523
74220W        W75084  25.033  25.233  11.393
74221W        W75085  24.325  23.750  11.479
74222W        W75086  23.573  22.881  11.944
74223W        W75087  23.753  22.635  10.976
74224W        W75088  24.365  24.379  14.211
74225W        W75089  24.792  22.273  11.802
74226W        W75090  21.946  21.814  11.241
74227W        W75091  23.355  24.654  13.578
74228W        W75092  23.232  24.472  12.745
74229W        W75093  22.864  24.796  11.023
74230W        W75094  22.092  25.080  11.988
74231W        W75095  22.453  23.443  13.445
74232W        W75096  23.237  22.157  14.050
74233W        W75097  24.065  22.275  13.505
74234W        W75098  23.263  21.998  12.190
74235W        W75099  24.530  22.342  11.349
74236W        W75100  22.347  21.995  13.186
74237W        W75101  22.036  22.846  12.483
74238W        W75102  24.924  22.154  12.871
74239W        W75103  22.354  22.440  11.864
74240W        W75104  24.945  22.417  13.364
74241W        W75105  25.449  23.494  11.063
74242W        W75106  22.633  22.306  12.860
74243W        W75107  23.958  22.976  13.704
74244W        W75108  21.861  22.306  11.313
74245W        W75109  22.775  24.429  13.545
74246W        W75110  24.156  23.418  12.973
74247W        W75111  23.868  25.465  11.268
74248W        W75112  21.668  23.277  10.872
74249W        W75113  23.029  24.536  14.002
74250W        W75114  22.226  23.845  13.680
74251W        W75115  23.478  23.823  13.391
74252W        W75116  25.026  22.144  13.805
74253W        W75117  25.609  23.815  13.895
74254W        W75118  25.496  23.719  11.672
74255W        W75119  24.378  24.268  11.488
74256W        W75120  24.891  25.547  11.002
74257W        W75121  24.072  23.639  14.662
74258W        W75122  22.733  24.812  14.428
74259W        W75123  25.527  22.535  14.465
74260W        W75124  25.129  23.237  13.034
74261W        W75125  23.538  25.451  14.619
74262W        W75126  23.239  21.922  11.341
74263W        W75127  24.923  24.703  11.139
74264W        W75128  22.900  22.509  13.774
74265W        W75129  23.522  24.698  14.054
74266W        W75130  25.259  22.638  13.742
74267W        W75131  24.638  25.590  11.445
74268W        W75132  24.789  24.109  13.064
74269W        W75133  23.302  22.383  13.489
74270W        W75134  23.529  23.556  14.240
74271W        W75135  22.852  24.717  12.011
74272W        W75136  24.601  24.021  11.883
74273W        W75137  22.413  22.399  13.649
74274W        W75138  23.749  24.740  12.190
74275W        W75139  25.344  23.335  12.530
74276W        W75140  23.720  22.075  14.205
74277W        W75141  24.662  24.637  13.080
74278W        W75142  24.982  25.059  12.913
74279W        W75143  23.729  25.020  10.999
74280W        W75144  22.004  24.624  14.068
74281W        W75145  22.755  22.639  13.253
74282W        W75146  22.786  22.004  12.442
74283W        W75147  24.454  22.971  12.973
74284W        W75148  23.600  24.238  11.369
74285W        W75149  25.308  24.086  13.002
74286W        W75150  22.728  25.233  14.127
74287W        W75151  24.991  25.515  11.870
74288W        W75152  23.085  22.420  12.493
74289W        W75153  22.638  23.722  12.946
74290W        W75154  23.371  25.625  13.215
74291W        W75155  25.136  25.551  14.206
74292W        W75156  24.362  23.859  13.253
74293W        W75157  22.011  22.922  10.681
74294W        W75158  25.305  25.109  12.027
74295W        W75159  25.004  22.602  11.436
74296W        W75160  23.056  21.851  13.697
74297W        W75161  25.047  24.801  12.444
74298W        W75162  24.968  23.207  12.186
74299W        W75163  23.340  23.049  12.424
74300W        W75164  23.627  23.371  13.746
74301W        W75165  24.576  24.460  13.738
74302W        W75166  23.450  22.887  13.670
74303W        W75167  23.163  25.571  12.500
74304W        W75168  22.660  25.698  14.384
74305W        W75169  22.594  25.218  11.327
74306W        W75170  25.219  24.533  12.021
74307W        W75171  22.868  23.010  13.597
74308W        W75172  25.706  23.285  11.507
74309W        W75173  23.644  24.321  11.910
74310W        W75174  24.317  23.621  13.788
74311W        W75175  24.305  23.231  13.424
74312W        W75176  22.896  23.713  13.416
74313W        W75177  24.961  25.383  13.325
74314W        W75178  24.660  22.110  14.166
74315W        W75179  22.188  22.036  13.943
74316W        W75180  22.822  23.230  13.129
74317W        W75181  23.276  22.880  10.964
74318W        W75182  22.086  25.076  13.822
74319W        W75183  23.677  23.595  12.986
74320W        W75184  23.279  22.372  11.083
74321W        W75185  23.014  23.999  12.614
74322W        W75186  22.183  25.634  13.576
74323W        W75187  25.091  23.528  11.412
74324W        W75188  25.046  22.461  14.218
74325W        W75189  24.690  24.499  12.122
74326W        W75190  22.075  23.353  13.849
74327W        W75191  25.270  22.184  11.523
74328W        W75192  24.884  24.435  11.607
74329W        W75193  23.915  23.522  11.691
74330W        W75194  24.759  22.360  10.898
74331W        W75195  24.788  22.979  13.374
74332W        W75196  22.292  23.303  12.910
74333W        W75197  22.785  24.468  12.497
74334W        W75198  24.498  23.071  12.080
74335W        W75199  23.491  22.695  12.833
74336W        W75200  25.504  24.493  13.420
74337W        W75201  25.355  22.377  13.012
74338W        W75202  22.114  25.367  12.765
74339W        W75203  22.420  24.448  12.145
74340W        W75204  22.376  22.055  14.415
74341W        W75205  23.646  24.948  14.541
74342W        W75206  25.459  23.848  12.519
74343W        W75207  24.781  23.955  11.353
74344W        W75208  24.099  25.556  13.418
74345W        W75209  24.847  24.264  14.420
74346W        W75210  23.555  21.859  11.757
74347W        W75211  24.285  22.866  12.494
74348W        W75212  22.125  24.573  13.146
74349W        W75213  23.274  22.299  11.712
74350W        W75214  23.388  24.139  14.088
74351W        W75215  24.083  22.729  11.989
74352W        W75216  24.276  24.393  13.323
74353W        W75217  22.540  25.269  13.646
74354W        W75218  23.178  25.013  14.274
74355W        W75219  22.855  22.312  11.393
74356W        W75220  24.486  22.745  11.660
74357W        W75221  24.426  24.952  13.907
74358W        W75222  23.393  23.585  12.532
74359W        W75223  22.912  25.550  13.422
74360W        W75224  25.383  25.393  11.034
74361W        W75225  21.943  23.816  14.102
74362W        W75226  24.296  24.249  12.840
74363W        W75227  22.900  24.175  12.099
74364W        W75228  23.270  25.134  13.387
74365W        W75229  23.595  22.300  12.527
74366W        W75230  21.948  24.387  11.959
74367W        W75231  23.717  23.145  11.085
74368W        W75232  22.500  24.041  12.499
74369W        W75233  23.703  22.453  13.819
74370W        W75234  25.244  22.160  10.996
74371W        W75235  25.318  24.021  14.284
74372W        W75236  24.022  25.322  14.427
74373W        W75237  25.542  24.347  13.913
74374W        W75238  24.960  25.077  14.439
74375W        W75239  22.907  25.702  12.939
74376W        W75240  25.521  24.086  12.079
74377W        W75241  24.304  23.392  12.480
74378W        W75242  23.784  21.919  12.239
74379W        W75243  22.974  25.148  12.263
74380W        W75244  23.219  22.841  13.238
74381W        W75245  23.268  21.966  12.725
74382W        W75246  22.077  25.349  11.411
74383W        W75247  23.855  24.220  12.370
74384W        W75248  23.163  25.333  13.841
74385W        W75249  22.251  23.962  12.040
74386W        W75250  22.087  22.396  12.722
74387W        W75251  23.802  24.472  12.817
74388W        W75252  21.980  22.070  11.802
74389W        W75253  24.753  23.448  13.616
74390W        W75254  24.663  22.832  11.154
74391W        W75255  25.145  24.566  12.958
74392W        W75256  23.869  24.960  12.635
74393W        W75257  23.115  25.376  11.775
74394W        W75258  24.106  22.101  11.113
74395W        W75259  22.462  25.523  13.130
74396W        W75260  24.149  22.955  14.322
74397W        W75261  22.385  22.505  14.150
74398W        W75262  21.773  23.195  12.206
74399W        W75263  23.477  23.273  11.532
74400W        W75264  24.447  23.472  14.350
74401W        W75265  23.170  23.673  12.994
74402W        W75266  24.409  22.027  12.215
74403W        W75267  23.620  25.393  12.721
74404W        W75268  24.766  24.902  13.516
74405W        W75269  24.571  24.921  12.642
74406W        W75270  24.360  24.055  12.340
74407W        W75271  23.677  22.224  11.384
74408W        W75272  25.609  21.975  12.145
74409W        W75273  23.253  23.395  11.048
74410W        W75274  25.358  22.871  12.218
74411W        W75275  24.036  24.048  11.144
74412W        W75276  25.014  24.260  13.932
74413W        W75277  24.581  25.148  11.107
74414W        W75278  23.286  22.662  14.098
74415W        W75279  23.247  23.336  13.414
74416W        W75280  25.181  24.739  13.803
74417W        W75281  24.239  22.628  13.928
74418W        W75282  21.667  22.982  13.804
74419W        W75283  23.949  23.621  13.431
74420W        W75284  22.273  24.540  12.626
74421W        W75285  22.102  23.700  13.188
74422W        W75286  24.746  23.981  13.572
74423W        W75287  24.532  25.345  14.242
74424W        W75288  24.421  23.129  13.920
74425W        W75289  24.767  25.227  12.250
74426W        W75290  23.720  24.999  13.689
74427W        W75291  23.169  25.262  12.903
74428W        W75292  24.987  24.435  13.428
74429W        W75293  23.978  24.529  14.562
74430W        W75294  22.612  24.479  13.005
74431W        W75295  24.987  24.093  12.259
74432W        W75296  24.545  25.153  13.130
74433W        W75297  22.773  25.122  13.191
74434W        W75298  23.657  23.024  14.123
74435W        W75299  23.819  25.151  11.842
74436W        W75300  23.451  24.470  14.502
74437W        W75301  23.337  24.935  11.931
74438W        W75302  22.603  23.209  10.600
74439W        W75303  22.056  25.652  18.045
74440W        W75304  22.457  24.514  17.478
74441W        W75305  25.094  23.977  15.331
74442W        W75306  25.252  25.300  17.223
74443W        W75307  23.075  25.643  14.963
74444W        W75308  23.517  23.767  15.938
74445W        W75309  22.789  23.204  16.458
74446W        W75310  23.936  24.145  15.368
74447W        W75311  23.493  25.246  17.650
74448W        W75312  21.971  22.599  17.590
74449W        W75313  22.521  21.856  17.407
74450W        W75314  24.614  22.343  16.354
74451W        W75315  24.294  23.171  14.768
74452W        W75316  24.634  22.762  17.918
74453W        W75317  22.077  22.248  17.232
74454W        W75318  22.253  25.157  18.144
74455W        W75319  23.642  24.869  15.064
74456W        W75320  21.890  22.940  16.678
74457W        W75321  23.136  23.235  17.782
74458W        W75322  25.309  23.020  16.428
74459W        W75323  25.244  23.922  17.073
74460W        W75324  23.663  23.480  16.343
74461W        W75325  24.235  24.769  16.685
74462W        W75326  22.572  24.084  16.873
74463W        W75327  21.770  23.703  16.632
74464W        W75328  23.153  23.770  17.705
74465W        W75329  25.268  23.451  17.780
74466W        W75330  22.875  24.810  16.346
74467W        W75331  23.993  24.653  17.425
74468W        W75332  23.269  23.278  16.637
74469W        W75333  23.587  23.999  16.402
74470W        W75334  24.304  24.831  18.173
74471W        W75335  23.572  24.035  18.141
74472W        W75336  23.684  23.874  17.653
74473W        W75337  21.882  22.895  17.987
74474W        W75338  24.748  24.804  17.891
74475W        W75339  22.245  22.126  15.677
74476W        W75340  22.966  24.618  16.810
74477W        W75341  25.321  24.378  16.204
74478W        W75342  24.624  22.706  16.720
74479W        W75343  25.122  22.763  14.653
74480W        W75344  25.590  23.481  17.032
74481W        W75345  23.412  25.410  16.779
74482W        W75346  25.309  24.684  15.141
74483W        W75347  22.232  25.712  15.345
74484W        W75348  22.810  25.635  15.894
74485W        W75349  22.584  22.266  17.064
74486W        W75350  25.185  23.274  17.278
74487W        W75351  24.650  23.615  15.931
74488W        W75352  24.583  23.583  14.862
74489W        W75353  23.794  24.590  16.903
74490W        W75354  23.855  22.727  16.179
74491W        W75355  24.235  25.013  17.168
74492W        W75356  25.156  23.659  15.738
74493W        W75357  24.274  22.237  15.560
74494W        W75358  22.637  25.296  15.547
74495W        W75359  21.895  22.397  15.915
74496W        W75360  24.352  23.353  16.293
74497W        W75361  22.237  24.936  16.415
74498W        W75362  23.456  25.338  15.120
74499W        W75363  24.926  23.244  14.639
74500W        W75364  22.004  24.933  16.888
74501W        W75365  22.823  24.822  17.279
74502W        W75366  23.225  24.178  16.085
74503W        W75367  23.017  22.386  16.795
74504W        W75368  25.551  22.077  16.512
74505W        W75369  22.724  23.989  13.807
74506W        W75370  22.131  22.442  14.638
74507W        W75371  22.546  24.915  15.967
74508W        W75372  23.178  24.674  15.932
74509W        W75373  24.927  25.236  17.622
74510W        W75374  24.227  22.882  15.205
74511W        W75375  25.117  25.301  16.259
74512W        W75376  24.805  23.397  17.599
74513W        W75377  25.548  24.775  15.932
74514W        W75378  24.133  24.094  17.470
74515W        W75379  21.713  23.271  15.823
74516W        W75380  22.970  24.228  17.168
74517W        W75381  24.224  23.329  15.534
74518W        W75382  24.269  23.870  15.652
74519W        W75383  22.293  23.088  17.007
74520W        W75384  22.417  23.091  17.707
74521W        W75385  22.274  22.045  16.205
74522W        W75386  24.117  22.504  16.596
74523W        W75387  23.703  22.562  17.741
74524W        W75388  24.316  22.424  14.929
74525W        W75389  25.410  25.166  17.752
74526W        W75390  24.138  22.137  17.735
74527W        W75391  25.251  24.666  17.967
74528W        W75392  24.719  22.679  17.417
74529W        W75393  24.627  22.511  15.846
74530W        W75394  24.906  23.709  18.064
74531W        W75395  22.659  25.292  16.308
74532W        W75396  23.505  22.557  14.978
74533W        W75397  22.698  22.308  17.594
74534W        W75398  24.989  22.815  15.582
74535W        W75399  25.341  23.218  15.540
74536W        W75400  23.080  25.503  18.116
74537W        W75401  22.818  21.775  15.120
74538W        W75402  25.381  22.502  16.281
74539W        W75403  25.413  24.886  14.658
74540W        W75404  22.176  24.039  16.514
74541W        W75405  24.271  22.462  14.410
74542W        W75406  25.368  24.857  16.459
74543W        W75407  25.336  22.104  17.060
74544W        W75408  23.989  23.423  17.672
74545W        W75409  23.743  24.660  15.532
74546W        W75410  24.424  23.778  18.342
74547W        W75411  24.217  22.009  16.432
74548W        W75412  22.367  22.893  16.478
74549W        W75413  22.338  23.999  17.325
74550W        W75414  24.189  25.165  16.323
74551W        W75415  25.084  22.902  16.894
74552W        W75416  23.986  25.330  17.526
74553W        W75417  25.295  23.820  14.777
74554W        W75418  23.915  24.098  15.965
74555W        W75419  25.413  22.138  17.584
74556W        W75420  23.690  24.246  17.271
74557W        W75421  23.734  23.027  16.585
74558W        W75422  24.674  23.148  15.299
74559W        W75423  25.147  23.003  15.109
74560W        W75424  24.991  24.876  15.525
74561W        W75425  24.804  24.427  16.339
74562W        W75426  24.659  23.656  15.401
74563W        W75427  24.107  23.869  16.398
74564W        W75428  25.073  23.556  16.289
74565W        W75429  22.223  22.599  16.884
74566W        W75430  25.030  23.875  17.560
74567W        W75431  25.428  25.322  16.690
74568W        W75432  23.342  25.019  16.277
74569W        W75433  24.493  25.426  17.435
74570W        W75434  24.285  22.756  17.135
74571W        W75435  23.597  25.559  17.247
74572W        W75436  25.289  22.386  15.668
74573W        W75437  25.103  23.423  16.785
74574W        W75438  21.840  22.825  17.160
74575W        W75439  24.936  22.727  16.178
74576W        W75440  25.086  22.957  17.685
74577W        W75441  24.233  24.653  16.166
74578W        W75442  23.483  25.346  15.883
74579W        W75443  22.530  22.174  14.888
74580W        W75444  23.604  22.065  16.744
74581W        W75445  22.545  25.676  14.885
74582W        W75446  23.498  24.216  15.646
74583W        W75447  23.786  24.356  17.766
74584W        W75448  23.792  22.374  15.745
74585W        W75449  25.011  22.192  16.067
74586W        W75450  24.628  25.454  16.350
74587W        W75451  23.910  25.200  16.786
74588W        W75452  23.385  24.197  16.846
74589W        W75453  25.224  24.850  16.982
74590W        W75454  22.678  22.197  15.393
74591W        W75455  23.419  24.909  16.779
74592W        W75456  22.879  22.429  14.340
74593W        W75457  23.660  23.228  17.043
74594W        W75458  24.557  22.102  16.809
74595W        W75459  21.943  24.085  16.985
74596W        W75460  23.707  23.801  15.009
74597W        W75461  22.894  21.969  14.580
74598W        W75462  23.824  23.122  15.832
74599W        W75463  24.416  22.265  17.294
74600W        W75464  23.293  24.257  17.600
74601W        W75465  24.082  24.003  17.981
74602W        W75466  24.561  23.990  17.817
74603W        W75467  23.817  22.196  18.130
74604W        W75468  23.023  22.730  16.420
74605W        W75469  22.366  22.557  16.049
74606W        W75470  22.318  25.448  15.938
74607W        W75471  23.838  24.888  17.932
74608W        W75472  22.974  24.305  15.639
74609W        W75473  24.629  23.806  16.426
74610W        W75474  24.533  23.435  16.772
74611W        W75475  23.889  24.057  16.838
74612W        W75476  24.474  24.450  14.760
74613W        W75477  24.190  22.364  16.069
74614W        W75478  25.535  22.745  15.390
74615W        W75479  22.240  25.391  17.640
74616W        W75480  22.248  24.498  17.010
74617W        W75481  21.870  25.603  15.708
74618W        W75482  23.785  22.710  16.989
74619W        W75483  22.971  25.152  15.154
74620W        W75484  25.077  25.155  15.012
74621W        W75485  24.188  23.692  15.165
74622W        W75486  23.748  22.794  15.397
74623W        W75487  23.946  22.765  14.775
74624W        W75488  24.308  24.463  17.797
74625W        W75489  24.845  22.145  15.555
74626W        W75490  22.026  21.962  14.815
74627W        W75491  23.323  24.603  17.170
74628W        W75492  23.359  24.523  16.448
74629W        W75493  23.197  24.868  14.782
74630W        W75494  22.038  25.000  15.948
74631W        W75495  22.699  23.516  17.750
74632W        W75496  23.042  21.960  17.810
74633W        W75497  23.887  22.310  17.318
74634W        W75498  23.432  22.026  15.891
74635W        W75499  24.751  22.149  15.053
74636W        W75500  22.194  22.106  16.748
74637W        W75501  21.944  22.932  16.175
74638W        W75502  25.058  22.158  16.597
74639W        W75503  22.146  22.349  15.186
74640W        W75504  24.903  22.403  17.016
74641W        W75505  25.433  23.326  14.826
74642W        W75506  22.561  22.424  16.528
74643W        W75507  23.882  22.964  17.440
74644W        W75508  21.683  22.354  14.909
74645W        W75509  22.766  24.136  17.635
74646W        W75510  24.009  23.498  16.729
74647W        W75511  23.956  25.460  14.976
74648W        W75512  21.600  23.735  14.511
74649W        W75513  22.992  24.661  17.753
74650W        W75514  22.375  23.471  17.342
74651W        W75515  23.350  23.858  17.248
74652W        W75516  24.892  22.068  17.406
74653W        W75517  25.548  23.777  17.466
74654W        W75518  25.477  23.650  15.264
74655W        W75519  24.458  24.118  15.217
74656W        W75520  24.869  25.535  14.639
74657W        W75521  23.992  23.545  18.173
74658W        W75522  22.590  24.491  18.010
74659W        W75523  25.511  22.453  18.014
74660W        W75524  24.797  23.131  16.457
74661W        W75525  23.573  25.388  18.159
74662W        W75526  23.505  22.043  14.994
74663W        W75527  24.940  24.670  14.752
74664W        W75528  22.853  22.800  17.706
74665W        W75529  23.481  24.744  17.613
74666W        W75530  25.236  22.608  17.323
74667W        W75531  24.632  25.554  15.102
74668W        W75532  24.813  24.081  16.823
74669W        W75533  22.942  22.605  17.249
74670W        W75534  23.512  23.544  18.001
74671W        W75535  22.865  24.818  15.547
74672W        W75536  24.729  24.099  15.659
74673W        W75537  22.429  22.696  17.351
74674W        W75538  23.857  25.010  15.949
74675W        W75539  25.486  23.320  16.051
74676W        W75540  23.594  22.052  17.690
74677W        W75541  24.708  24.634  16.846
74678W        W75542  24.941  25.162  16.705
74679W        W75543  24.089  24.975  14.813
74680W        W75544  22.114  24.698  17.831
74681W        W75545  22.723  22.836  16.852
74682W        W75546  22.724  22.173  15.983
74683W        W75547  24.229  23.023  16.691
74684W        W75548  23.645  24.354  14.973
74685W        W75549  25.277  23.968  16.550
74686W        W75550  22.539  24.960  17.729
74687W        W75551  24.967  25.549  15.540
74688W        W75552  23.386  22.527  16.046
74689W        W75553  22.962  24.189  16.532
74690W        W75554  23.086  25.666  17.133
74691W        W75555  25.183  25.586  17.921
74692W        W75556  24.341  23.866  16.956
74693W        W75557  22.011  22.906  14.180
74694W        W75558  25.290  25.196  15.786
74695W        W75559  25.113  22.500  15.166
74696W        W75560  23.010  22.042  17.291
74697W        W75561  25.053  24.812  16.060
74698W        W75562  25.006  23.193  15.950
74699W        W75563  23.409  23.027  16.195
74700W        W75564  23.516  23.412  17.495
74701W        W75565  24.573  24.630  17.384
74702W        W75566  23.354  22.888  17.453
74703W        W75567  23.162  25.497  16.297
74704W        W75568  22.575  25.531  17.997
74705W        W75569  22.879  25.280  14.642
74706W        W75570  25.151  24.406  15.712
74707W        W75571  22.762  23.110  17.318
74708W        W75572  25.754  23.211  15.221
74709W        W75573  23.274  24.564  15.290
74710W        W75574  24.386  23.649  17.436
74711W        W75575  24.182  23.274  17.149
74712W        W75576  22.814  23.742  17.299
74713W        W75577  24.819  25.535  17.036
74714W        W75578  24.617  22.220  17.937
74715W        W75579  22.234  22.151  17.717
74716W        W75580  22.687  23.409  16.913
74717W        W75581  23.433  22.848  14.560
74718W        W75582  21.834  24.865  17.403
74719W        W75583  23.532  23.681  16.808
74720W        W75584  23.361  22.319  14.533
74721W        W75585  22.628  23.722  16.502
74722W        W75586  22.231  25.577  17.170
74723W        W75587  25.027  23.501  15.093
74724W        W75588  25.039  22.439  17.759
74725W        W75589  24.656  24.574  15.853
74726W        W75590  22.159  23.617  17.786
74727W        W75591  25.235  21.994  15.200
74728W        W75592  24.862  24.439  15.251
74729W        W75593  23.806  23.653  15.513
74730W        W75594  24.729  22.408  14.610
74731W        W75595  24.690  23.123  17.144
74732W        W75596  22.143  23.358  16.514
74733W        W75597  22.740  24.386  16.102
74734W        W75598  24.554  23.044  15.806
74735W        W75599  23.496  22.558  16.572
74736W        W75600  25.530  24.443  17.084
74737W        W75601  25.442  22.535  16.808
74738W        W75602  21.946  25.379  16.312
74739W        W75603  22.475  24.496  15.671
74740W        W75604  22.358  22.203  18.204
74741W        W75605  23.268  25.002  18.038
74742W        W75606  25.493  23.842  16.094
74743W        W75607  24.844  24.044  14.889
74744W        W75608  24.134  25.549  17.083
74745W        W75609  24.949  24.237  18.167
74746W        W75610  23.717  21.916  15.470
74747W        W75611  24.398  22.811  16.241
74748W        W75612  21.937  24.503  16.570
74749W        W75613  23.378  22.306  15.429
74750W        W75614  23.058  24.174  18.058
74751W        W75615  24.165  22.735  15.708
74752W        W75616  24.249  24.389  17.059
74753W        W75617  22.310  25.016  17.283
74754W        W75618  22.781  25.078  18.152
74755W        W75619  23.043  22.253  14.990
74756W        W75620  24.613  22.574  15.336
74757W        W75621  24.321  24.987  17.682
74758W        W75622  23.164  23.710  16.355
74759W        W75623  22.695  25.319  17.113
74760W        W75624  25.355  25.388  14.646
74761W        W75625  22.242  24.161  17.802
74762W        W75626  24.392  24.263  16.590
74763W        W75627  23.206  25.160  17.197
74764W        W75628  23.741  22.213  16.274
74765W        W75629  21.791  24.232  14.358
74766W        W75630  23.791  23.227  14.580
74767W        W75631  21.893  23.651  16.136
74768W        W75632  23.402  22.383  17.143
74769W        W75633  25.193  22.227  14.715
74770W        W75634  25.370  23.939  17.952
74771W        W75635  24.078  25.328  18.057
74772W        W75636  25.406  24.303  17.567
74773W        W75637  25.046  25.144  18.135
74774W        W75638  22.773  25.627  16.695
74775W        W75639  25.533  24.051  15.635
74776W        W75640  24.019  23.578  15.980
74777W        W75641  23.977  21.903  15.940
74778W        W75642  22.999  25.161  15.918
74779W        W75643  23.265  22.859  16.931
74780W        W75644  23.200  22.162  16.364
74781W        W75645  22.071  25.453  14.922
74782W        W75646  23.659  24.537  16.033
74783W        W75647  22.972  25.214  17.662
74784W        W75648  22.017  22.480  16.418
74785W        W75649  23.920  24.368  16.442
74786W        W75650  21.775  22.064  15.388
74787W        W75651  24.809  23.650  17.144
74788W        W75652  24.669  22.834  14.890
74789W        W75653  25.169  24.438  16.698
74790W        W75654  23.792  24.851  16.433
74791W        W75655  23.139  25.479  15.509
74792W        W75656  24.248  21.957  14.504
74793W        W75657  22.310  25.364  16.703
74794W        W75658  24.135  23.010  18.015
74795W        W75659  22.387  22.616  17.879
74796W        W75660  22.053  22.839  15.688
74797W        W75661  23.895  23.271  15.102
74798W        W75662  24.437  23.481  17.928
74799W        W75663  23.030  23.792  16.843
74800W        W75664  24.522  21.987  15.948
74801W        W75665  23.706  25.377  16.347
74802W        W75666  24.766  25.045  17.172
74803W        W75667  24.644  24.920  16.366
74804W        W75668  24.430  24.143  16.082
74805W        W75669  23.897  22.332  15.217
74806W        W75670  25.594  22.111  16.007
74807W        W75671  22.753  23.448  13.857
74808W        W75672  25.383  22.842  15.902
74809W        W75673  24.085  24.119  14.866
74810W        W75674  24.897  24.361  17.682
74811W        W75675  24.588  25.138  14.800
74812W        W75676  23.213  22.410  17.637
74813W        W75677  23.164  23.371  17.133
74814W        W75678  25.124  24.791  17.485
74815W        W75679  24.218  22.622  17.633
74816W        W75680  21.976  23.182  17.489
74817W        W75681  23.881  23.695  17.212
74818W        W75682  22.213  24.501  16.127
74819W        W75683  22.243  23.681  16.899
74820W        W75684  24.622  24.109  17.314
74821W        W75685  24.584  25.368  17.955
74822W        W75686  24.397  23.093  17.575
74823W        W75687  24.758  25.214  15.900
74824W        W75688  23.697  25.018  17.215
74825W        W75689  22.978  25.156  16.704
74826W        W75690  25.027  24.389  17.188
74827W        W75691  23.933  24.460  18.238
74828W        W75692  22.500  24.493  16.555
74829W        W75693  24.982  24.015  16.088
74830W        W75694  24.443  25.247  16.776
74831W        W75695  22.539  24.914  16.833
74832W        W75696  23.640  23.071  17.885
74833W        W75697  23.826  25.193  15.458
74834W        W75698  23.434  24.526  18.079
74835W        W75699  23.347  25.006  15.530
74836W        W75700  22.788  22.889  14.102
74837W        W75701  22.030  25.558  21.669
74838W        W75702  22.382  24.521  21.272
74839W        W75703  25.105  23.964  18.974
74840W        W75704  25.377  25.238  20.953
74841W        W75705  23.172  25.201  18.534
74842W        W75706  23.274  23.279  19.303
74843W        W75707  22.846  23.032  19.718
74844W        W75708  23.800  23.859  18.971
74845W        W75709  23.435  25.238  21.168
74846W        W75710  21.899  22.623  21.218
74847W        W75711  22.620  21.787  21.125
74848W        W75712  24.558  22.308  19.926
74849W        W75713  24.147  22.829  18.530
74850W        W75714  24.730  22.766  21.588
74851W        W75715  22.054  22.318  20.835
74852W        W75716  22.104  25.087  21.885
74853W        W75717  23.540  24.359  18.572
74854W        W75718  21.950  23.122  20.299
74855W        W75719  23.117  23.238  21.365
74856W        W75720  25.319  22.847  19.979
74857W        W75721  25.233  24.052  20.823
74858W        W75722  23.735  23.258  19.818
74859W        W75723  24.248  24.807  20.289
74860W        W75724  22.484  24.018  20.592
74861W        W75725  21.699  23.594  20.322
74862W        W75726  23.040  23.592  20.988
74863W        W75727  25.314  23.405  21.482
74864W        W75728  22.911  24.825  20.063
74865W        W75729  24.035  24.551  20.927
74866W        W75730  23.394  23.067  20.182
74867W        W75731  23.409  23.933  19.904
74868W        W75732  24.196  24.766  21.704
74869W        W75733  23.514  24.028  21.607
74870W        W75734  23.447  23.874  21.121
74871W        W75735  21.548  22.867  21.541
74872W        W75736  24.702  24.645  21.527
74873W        W75737  22.401  22.181  19.368
74874W        W75738  23.016  24.467  20.420
74875W        W75739  25.464  24.316  19.857
74876W        W75740  24.874  22.848  20.245
74877W        W75741  25.100  22.737  18.176
74878W        W75742  25.630  23.395  20.722
74879W        W75743  23.481  25.361  20.608
74880W        W75744  25.338  24.854  18.868
74881W        W75745  22.807  25.474  19.383
74882W        W75746  22.571  22.188  20.815
74883W        W75747  25.201  23.310  20.993
74884W        W75748  24.551  23.553  19.550
74885W        W75749  24.403  23.251  18.386
74886W        W75750  23.803  24.519  20.457
74887W        W75751  23.803  22.698  19.722
74888W        W75752  24.154  25.021  20.760
74889W        W75753  24.994  23.772  19.439
74890W        W75754  24.150  22.228  19.119
74891W        W75755  22.524  25.355  18.966
74892W        W75756  22.028  22.539  19.489
74893W        W75757  24.602  23.181  19.915
74894W        W75758  22.375  24.905  20.092
74895W        W75759  23.490  25.107  18.941
74896W        W75760  24.852  23.193  18.104
74897W        W75761  22.155  24.995  20.582
74898W        W75762  22.845  24.546  20.909
74899W        W75763  23.219  23.809  19.447
74900W        W75764  22.969  22.310  20.474
74901W        W75765  25.453  22.003  19.965
74902W        W75766  22.603  23.910  18.070
74903W        W75767  22.221  22.702  18.350
74904W        W75768  22.349  24.919  19.573
74905W        W75769  23.235  24.327  19.552
74906W        W75770  24.909  25.161  21.199
74907W        W75771  23.845  22.646  18.931
74908W        W75772  25.105  25.245  19.713
74909W        W75773  24.838  23.272  21.357
74910W        W75774  25.573  24.793  19.695
74911W        W75775  24.234  24.062  20.946
74912W        W75776  21.771  23.371  19.481
74913W        W75777  23.044  24.042  20.718
74914W        W75778  24.135  23.081  18.979
74915W        W75779  24.174  23.544  19.194
74916W        W75780  22.348  23.138  20.669
74917W        W75781  22.345  23.080  21.190
74918W        W75782  22.325  22.063  19.868
74919W        W75783  24.054  22.450  20.140
74920W        W75784  23.723  22.528  21.444
74921W        W75785  24.099  22.320  18.598
74922W        W75786  25.378  25.085  21.449
74923W        W75787  24.182  22.008  21.318
74924W        W75788  25.218  24.590  21.586
74925W        W75789  24.760  22.612  21.108
74926W        W75790  24.572  22.454  19.419
74927W        W75791  24.957  23.653  21.749
74928W        W75792  22.577  25.322  19.837
74929W        W75793  23.448  22.839  18.663
74930W        W75794  22.733  22.247  21.334
74931W        W75795  24.893  22.701  19.100
74932W        W75796  25.058  23.183  19.109
74933W        W75797  23.046  25.478  21.663
74934W        W75798  22.849  22.088  18.853
74935W        W75799  25.286  22.417  19.688
74936W        W75800  25.473  24.944  18.357
74937W        W75801  22.006  24.002  20.141
74938W        W75802  24.237  22.504  18.137
74939W        W75803  25.414  24.951  20.155
74940W        W75804  25.245  22.148  20.585
74941W        W75805  23.980  23.286  21.186
74942W        W75806  23.569  24.399  19.109
74943W        W75807  24.458  23.713  21.824
74944W        W75808  24.156  21.955  20.101
74945W        W75809  22.436  22.959  20.097
74946W        W75810  22.193  24.117  21.023
74947W        W75811  24.159  25.145  19.874
74948W        W75812  25.221  23.094  20.535
74949W        W75813  23.980  25.288  21.190
74950W        W75814  25.217  23.894  18.457
74951W        W75815  23.691  23.557  19.397
74952W        W75816  25.472  22.125  21.279
74953W        W75817  23.755  24.111  20.792
74954W        W75818  23.894  22.932  20.167
74955W        W75819  24.626  23.110  18.841
74956W        W75820  25.098  23.037  18.605
74957W        W75821  24.923  24.961  19.164
74958W        W75822  24.687  24.438  20.020
74959W        W75823  24.715  23.593  19.040
74960W        W75824  23.919  23.745  19.856
74961W        W75825  24.895  23.764  19.948
74962W        W75826  22.220  22.677  20.477
74963W        W75827  25.004  23.753  21.235
74964W        W75828  25.423  25.374  20.449
74965W        W75829  23.331  24.971  19.826
74966W        W75830  24.480  25.355  20.975
74967W        W75831  24.299  22.701  20.789
74968W        W75832  23.453  25.909  20.752
74969W        W75833  25.218  22.309  19.151
74970W        W75834  25.116  23.611  20.563
74971W        W75835  21.801  22.856  20.737
74972W        W75836  24.858  22.740  19.738
74973W        W75837  25.205  22.910  21.338
74974W        W75838  24.210  24.577  19.830
74975W        W75839  23.308  25.304  19.409
74976W        W75840  22.398  22.315  18.697
74977W        W75841  23.691  22.107  20.341
74978W        W75842  22.706  25.471  18.493
74979W        W75843  23.317  23.688  18.956
74980W        W75844  23.640  24.354  21.228
74981W        W75845  23.695  22.361  19.340
74982W        W75846  24.915  22.087  19.588
74983W        W75847  24.563  25.480  19.970
74984W        W75848  23.958  25.257  20.343
74985W        W75849  23.434  24.133  20.372
74986W        W75850  25.194  24.914  20.610
74987W        W75851  22.884  22.402  19.276
74988W        W75852  23.368  24.862  20.393
74989W        W75853  22.837  22.443  18.069
74990W        W75854  23.718  23.140  20.610
74991W        W75855  24.577  22.087  20.401
74992W        W75856  21.951  23.910  20.644
74993W        W75857  23.587  23.639  18.506
74994W        W75858  22.845  22.005  18.315
74995W        W75859  23.750  23.039  19.339
74996W        W75860  24.475  22.234  20.904
74997W        W75861  23.126  24.250  21.210
74998W        W75862  23.932  23.817  21.272
74999W        W75863  24.563  24.028  21.385
75000W        W75864  23.914  22.141  21.732
75001W        W75865  23.030  22.698  20.074
75002W        W75866  22.505  22.619  19.664
75003W        W75867  22.169  25.356  19.337
75004W        W75868  23.798  24.828  21.339
75005W        W75869  22.748  24.457  18.767
75006W        W75870  24.405  23.661  20.042
75007W        W75871  24.671  23.360  20.393
75008W        W75872  23.902  23.890  20.361
75009W        W75873  24.432  24.289  18.264
75010W        W75874  24.127  22.303  19.646
75011W        W75875  25.385  22.768  18.957
75012W        W75876  22.192  25.426  21.195
75013W        W75877  22.345  24.527  20.746
75014W        W75878  21.909  25.355  18.889
75015W        W75879  23.796  22.611  20.566
75016W        W75880  23.205  24.691  18.820
75017W        W75881  25.049  25.236  18.699
75018W        W75882  24.077  23.512  18.681
75019W        W75883  23.356  22.746  19.203
75020W        W75884  23.742  22.692  18.234
75021W        W75885  24.143  24.344  21.381
75022W        W75886  24.723  22.180  19.008
75023W        W75887  22.002  21.970  18.587
75024W        W75888  23.378  24.455  20.774
75025W        W75889  23.362  24.501  20.023
75026W        W75890  23.008  24.642  18.331
75027W        W75891  21.974  24.895  19.150
75028W        W75892  22.653  23.480  21.318
75029W        W75893  23.393  22.136  21.744
75030W        W75894  23.946  22.291  20.948
75031W        W75895  23.299  22.023  19.433
75032W        W75896  24.361  21.906  18.741
75033W        W75897  22.267  22.166  20.401
75034W        W75898  21.996  22.991  19.792
75035W        W75899  25.037  22.340  20.133
75036W        W75900  22.408  22.629  19.128
75037W        W75901  24.849  22.483  20.615
75038W        W75902  25.287  23.402  18.290
75039W        W75903  22.587  22.459  20.147
75040W        W75904  23.853  22.816  21.035
75041W        W75905  21.831  22.442  18.556
75042W        W75906  22.694  23.976  21.089
75043W        W75907  24.067  23.393  20.305
75044W        W75908  23.772  25.422  18.625
75045W        W75909  21.781  23.661  18.169
75046W        W75910  22.825  24.728  21.422
75047W        W75911  22.321  23.611  20.939
75048W        W75912  23.439  23.706  20.654
75049W        W75913  24.979  22.099  21.035
75050W        W75914  25.516  23.733  21.110
75051W        W75915  25.262  23.515  18.798
75052W        W75916  24.330  23.918  18.865
75053W        W75917  24.900  25.603  18.339
75054W        W75918  24.037  23.448  21.664
75055W        W75919  22.444  24.652  21.792
75056W        W75920  25.638  22.433  21.711
75057W        W75921  25.089  23.311  20.098
75058W        W75922  23.549  25.391  21.669
75059W        W75923  23.279  21.956  18.586
75060W        W75924  24.981  24.736  18.445
75061W        W75925  22.835  22.792  21.328
75062W        W75926  23.278  24.750  21.165
75063W        W75927  25.252  22.536  20.954
75064W        W75928  24.648  25.562  18.792
75065W        W75929  24.782  24.063  20.371
75066W        W75930  22.944  22.529  20.918
75067W        W75931  23.554  23.535  21.487
75068W        W75932  22.877  24.578  19.255
75069W        W75933  24.684  24.122  19.222
75070W        W75934  22.447  22.663  20.938
75071W        W75935  23.692  24.571  19.618
75072W        W75936  25.490  23.281  19.762
75073W        W75937  23.608  22.052  21.268
75074W        W75938  24.769  24.793  20.362
75075W        W75939  24.973  25.243  20.206
75076W        W75940  23.582  24.886  18.435
75077W        W75941  21.957  24.668  21.570
75078W        W75942  22.745  22.810  20.512
75079W        W75943  22.812  22.205  19.738
75080W        W75944  24.376  22.930  20.328
75081W        W75945  23.191  23.986  18.527
75082W        W75946  25.280  23.993  20.246
75083W        W75947  22.360  25.022  21.452
75084W        W75948  25.020  25.478  19.196
75085W        W75949  23.265  22.466  19.657
75086W        W75950  22.957  24.180  19.992
75087W        W75951  23.024  25.624  20.702
75088W        W75952  25.101  25.518  21.500
75089W        W75953  24.378  23.756  20.557
75090W        W75954  22.210  23.244  18.161
75091W        W75955  25.396  25.101  19.327
75092W        W75956  25.064  22.506  18.652
75093W        W75957  23.067  22.002  20.953
75094W        W75958  25.082  24.727  19.833
75095W        W75959  24.996  23.285  19.602
75096W        W75960  23.355  22.949  19.690
75097W        W75961  23.500  23.347  21.021
75098W        W75962  24.547  24.457  21.081
75099W        W75963  23.312  22.858  21.057
75100W        W75964  23.084  25.430  19.847
75101W        W75965  22.539  25.507  21.568
75102W        W75966  22.728  24.963  18.642
75103W        W75967  25.234  24.588  19.354
75104W        W75968  22.808  23.115  20.936
75105W        W75969  25.615  23.165  18.721
75106W        W75970  23.118  24.171  19.040
75107W        W75971  24.402  23.551  21.304
75108W        W75972  24.273  23.230  20.750
75109W        W75973  22.717  23.526  20.599
75110W        W75974  24.934  25.361  20.704
75111W        W75975  24.641  22.199  21.411
75112W        W75976  22.239  22.125  21.272
75113W        W75977  22.894  23.226  20.195
75114W        W75978  23.261  22.755  18.020
75115W        W75979  22.027  24.856  21.065
75116W        W75980  23.576  23.537  20.208
75117W        W75981  23.317  22.255  18.131
75118W        W75982  22.828  23.709  19.817
75119W        W75983  22.121  25.544  20.717
75120W        W75984  24.826  23.509  18.537
75121W        W75985  25.110  22.424  21.452
75122W        W75986  24.699  24.598  19.504
75123W        W75987  22.158  23.422  21.512
75124W        W75988  25.085  21.985  18.686
75125W        W75989  24.947  24.476  18.926
75126W        W75990  23.661  23.301  18.911
75127W        W75991  24.611  22.292  18.488
75128W        W75992  24.752  22.988  20.753
75129W        W75993  22.003  23.522  19.917
75130W        W75994  22.674  24.535  19.734
75131W        W75995  24.597  23.023  19.368
75132W        W75996  23.522  22.567  20.130
75133W        W75997  25.493  24.497  20.731
75134W        W75998  25.378  22.609  20.431
75135W        W75999  22.053  25.270  19.818
75136W        W76000  22.492  24.861  19.087
75137W        W76001  22.359  22.219  21.792
75138W        W76002  23.217  25.007  21.599
75139W        W76003  25.390  23.788  19.784
75140W        W76004  24.756  24.059  18.620
75141W        W76005  24.033  25.564  20.765
75142W        W76006  24.922  24.176  21.734
75143W        W76007  23.660  21.923  19.023
75144W        W76008  24.326  22.759  19.821
75145W        W76009  22.022  24.473  20.351
75146W        W76010  23.303  22.286  18.992
75147W        W76011  23.062  23.791  21.470
75148W        W76012  24.149  22.717  19.337
75149W        W76013  24.439  24.424  20.586
75150W        W76014  22.533  24.958  20.985
75151W        W76015  22.731  25.098  21.806
75152W        W76016  23.078  22.450  18.542
75153W        W76017  24.428  22.613  18.901
75154W        W76018  24.338  24.911  21.237
75155W        W76019  23.250  23.432  19.822
75156W        W76020  22.597  25.349  20.653
75157W        W76021  25.393  25.451  18.384
75158W        W76022  22.335  23.901  21.455
75159W        W76023  24.292  24.155  20.176
75160W        W76024  22.777  24.106  19.464
75161W        W76025  23.070  25.054  20.804
75162W        W76026  23.672  22.184  19.828
75163W        W76027  21.798  24.430  19.337
75164W        W76028  23.785  23.163  18.418
75165W        W76029  22.453  24.069  19.877
75166W        W76030  23.439  22.357  20.856
75167W        W76031  25.067  22.215  18.221
75168W        W76032  25.377  23.943  21.560
75169W        W76033  24.046  25.269  21.701
75170W        W76034  25.530  24.343  21.226
75171W        W76035  24.947  25.065  21.720
75172W        W76036  22.723  25.646  20.236
75173W        W76037  25.394  24.099  19.373
75174W        W76038  24.175  23.198  19.589
75175W        W76039  23.886  21.860  19.497
75176W        W76040  22.880  24.994  19.565
75177W        W76041  23.268  22.740  20.553
75178W        W76042  23.219  22.150  20.063
75179W        W76043  22.211  25.016  18.657
75180W        W76044  23.692  24.063  19.490
75181W        W76045  22.882  25.215  21.261
75182W        W76046  22.334  24.433  19.360
75183W        W76047  22.088  22.517  20.006
75184W        W76048  23.814  24.252  20.001
75185W        W76049  22.011  22.290  19.037
75186W        W76050  24.710  23.486  20.893
75187W        W76051  24.657  22.797  18.435
75188W        W76052  25.192  24.493  20.280
75189W        W76053  23.777  24.844  20.054
75190W        W76054  22.980  25.100  19.061
75191W        W76055  24.261  21.977  18.229
75192W        W76056  22.266  25.381  20.255
75193W        W76057  24.079  22.914  21.573
75194W        W76058  22.364  22.601  21.449
75195W        W76059  22.046  23.001  19.221
75196W        W76060  23.287  23.187  18.295
75197W        W76061  24.489  23.203  21.716
75198W        W76062  23.088  23.724  20.274
75199W        W76063  24.434  21.945  19.461
75200W        W76064  23.600  25.379  19.985
75201W        W76065  24.671  24.896  20.837
75202W        W76066  24.627  24.953  19.909
75203W        W76067  24.506  24.056  19.710
75204W        W76068  23.596  22.345  18.579
75205W        W76069  25.535  22.014  19.450
75206W        W76070  23.026  23.618  18.173
75207W        W76071  25.277  22.877  19.460
75208W        W76072  23.967  23.997  18.486
75209W        W76073  25.007  24.273  21.234
75210W        W76074  24.610  25.171  18.426
75211W        W76075  23.221  22.400  21.334
75212W        W76076  23.190  23.254  20.616
75213W        W76077  25.182  24.741  21.094
75214W        W76078  24.256  22.529  21.287
75215W        W76079  21.834  23.139  21.196
75216W        W76080  23.924  23.611  20.792
75217W        W76081  22.172  24.502  19.850
75218W        W76082  22.237  23.569  20.388
75219W        W76083  24.728  24.004  20.876
75220W        W76084  24.527  25.352  21.498
75221W        W76085  24.429  23.015  21.198
75222W        W76086  24.642  25.254  19.494
75223W        W76087  23.653  24.903  20.829
75224W        W76088  23.026  25.247  20.330
75225W        W76089  24.940  24.460  20.729
75226W        W76090  23.792  24.438  21.740
75227W        W76091  22.533  24.429  20.242
75228W        W76092  25.001  24.216  19.685
75229W        W76093  24.490  25.255  20.437
75230W        W76094  22.679  24.859  20.510
75231W        W76095  23.604  23.038  21.442
75232W        W76096  23.752  25.078  19.558
75233W        W76097  23.301  24.510  21.615
75234W        W76098  23.326  24.801  19.333
75235W        W76099  22.757  23.111  18.111
75236W        W76100  21.989  25.612  25.264
75237W        W76101  22.351  24.508  24.936
75238W        W76102  25.188  23.932  22.805
75239W        W76103  25.411  25.339  24.553
75240W        W76104  22.850  25.319  22.259
75241W        W76105  23.282  23.592  23.217
75242W        W76106  22.698  23.096  23.559
75243W        W76107  23.918  23.629  22.644
75244W        W76108  23.444  25.199  25.074
75245W        W76109  21.887  22.718  24.993
75246W        W76110  22.595  21.882  24.975
75247W        W76111  24.403  22.341  23.633
75248W        W76112  24.229  22.938  22.075
75249W        W76113  24.574  22.780  25.224
75250W        W76114  22.031  22.398  24.625
75251W        W76115  22.126  25.176  25.514
75252W        W76116  23.414  24.565  22.131
75253W        W76117  21.914  23.110  23.998
75254W        W76118  23.031  23.246  25.205
75255W        W76119  25.183  22.858  23.712
75256W        W76120  25.126  23.904  24.551
75257W        W76121  23.560  23.427  23.613
75258W        W76122  24.196  24.714  24.022
75259W        W76123  22.482  24.044  24.195
75260W        W76124  21.750  23.598  23.907
75261W        W76125  22.941  23.652  24.867
75262W        W76126  25.212  23.385  25.137
75263W        W76127  22.768  24.746  23.647
75264W        W76128  23.990  24.542  24.703
75265W        W76129  23.203  23.082  24.015
75266W        W76130  23.337  23.898  23.755
75267W        W76131  24.292  24.926  25.410
75268W        W76132  23.533  24.023  25.455
75269W        W76133  23.608  23.831  24.968
75270W        W76134  21.881  23.058  25.369
75271W        W76135  24.685  24.558  25.220
75272W        W76136  22.305  22.141  23.197
75273W        W76137  22.812  24.492  24.245
75274W        W76138  25.423  24.358  23.591
75275W        W76139  24.739  22.800  23.991
75276W        W76140  25.188  22.669  21.888
75277W        W76141  25.509  23.415  24.365
75278W        W76142  23.425  25.014  24.210
75279W        W76143  25.245  24.742  22.442
75280W        W76144  22.472  25.521  22.609
75281W        W76145  22.654  25.476  23.115
75282W        W76146  22.514  22.132  24.536
75283W        W76147  25.067  23.387  24.636
75284W        W76148  24.574  23.520  23.349
75285W        W76149  24.670  23.321  22.183
75286W        W76150  23.731  24.571  24.236
75287W        W76151  23.623  22.666  23.378
75288W        W76152  24.085  24.970  24.446
75289W        W76153  25.056  23.611  23.196
75290W        W76154  24.085  22.233  22.775
75291W        W76155  22.486  25.039  22.798
75292W        W76156  22.007  22.555  23.191
75293W        W76157  24.511  23.076  23.611
75294W        W76158  22.195  24.877  23.724
75295W        W76159  23.254  25.069  22.098
75296W        W76160  25.019  23.144  21.832
75297W        W76161  22.035  24.941  24.219
75298W        W76162  22.826  24.556  24.757
75299W        W76163  22.955  23.941  23.400
75300W        W76164  22.884  22.357  24.245
75301W        W76165  25.333  22.018  23.780
75302W        W76166  22.743  24.240  21.557
75303W        W76167  22.283  22.674  22.001
75304W        W76168  22.378  24.796  23.255
75305W        W76169  23.132  24.431  23.446
75306W        W76170  24.950  25.215  24.765
75307W        W76171  24.047  22.667  22.463
75308W        W76172  25.201  25.294  23.546
75309W        W76173  24.743  23.230  25.020
75310W        W76174  25.621  24.726  23.260
75311W        W76175  24.091  23.981  24.742
75312W        W76176  21.874  23.587  23.116
75313W        W76177  22.869  24.072  24.532
75314W        W76178  24.391  23.087  22.559
75315W        W76179  24.216  23.371  22.993
75316W        W76180  22.335  23.166  24.391
75317W        W76181  22.357  23.184  25.188
75318W        W76182  22.239  21.982  23.672
75319W        W76183  23.902  22.473  23.793
75320W        W76184  23.747  22.512  25.185
75321W        W76185  24.110  22.223  22.214
75322W        W76186  25.370  25.173  25.061
75323W        W76187  24.080  22.080  25.095
75324W        W76188  25.190  24.426  25.355
75325W        W76189  24.706  22.566  24.785
75326W        W76190  24.460  22.431  23.099
75327W        W76191  24.867  23.520  25.510
75328W        W76192  22.549  25.211  23.564
75329W        W76193  23.576  22.842  22.348
75330W        W76194  22.876  22.321  25.156
75331W        W76195  24.914  22.678  22.941
75332W        W76196  25.231  23.222  22.895
75333W        W76197  22.994  25.394  25.276
75334W        W76198  22.750  22.043  22.630
75335W        W76199  25.228  22.386  23.428
75336W        W76200  25.393  24.890  21.967
75337W        W76201  22.121  24.007  23.816
75338W        W76202  24.324  22.503  21.805
75339W        W76203  25.514  24.922  23.733
75340W        W76204  25.299  22.033  24.335
75341W        W76205  23.891  23.357  24.961
75342W        W76206  23.467  24.439  22.654
75343W        W76207  24.386  23.718  25.573
75344W        W76208  24.028  21.984  23.671
75345W        W76209  22.406  22.891  23.937
75346W        W76210  22.256  24.079  24.675
75347W        W76211  24.182  25.106  23.675
75348W        W76212  25.099  23.141  24.179
75349W        W76213  23.986  25.274  24.835
75350W        W76214  25.260  23.978  22.066
75351W        W76215  23.800  23.641  23.170
75352W        W76216  25.457  22.108  24.844
75353W        W76217  23.639  24.185  24.579
75354W        W76218  23.743  22.991  23.791
75355W        W76219  24.924  22.992  22.529
75356W        W76220  25.356  23.020  22.225
75357W        W76221  24.921  24.978  22.768
75358W        W76222  24.905  24.378  23.702
75359W        W76223  24.736  23.353  22.860
75360W        W76224  23.861  23.837  23.644
75361W        W76225  24.914  23.830  23.661
75362W        W76226  22.397  22.604  24.353
75363W        W76227  24.854  23.723  24.984
75364W        W76228  25.349  25.315  24.041
75365W        W76229  23.253  24.932  23.520
75366W        W76230  24.508  25.440  24.627
75367W        W76231  24.292  22.680  24.460
75368W        W76232  23.598  25.418  24.511
75369W        W76233  25.297  22.307  22.916
75370W        W76234  24.869  23.631  24.190
75371W        W76235  21.915  22.880  24.476
75372W        W76236  24.776  22.652  23.448
75373W        W76237  25.105  22.905  24.873
75374W        W76238  24.091  24.602  23.529
75375W        W76239  23.349  25.201  23.087
75376W        W76240  22.323  22.228  22.315
75377W        W76241  23.623  22.076  24.005
75378W        W76242  22.403  25.467  22.067
75379W        W76243  23.487  23.888  22.817
75380W        W76244  23.685  24.335  25.071
75381W        W76245  23.606  22.313  22.989
75382W        W76246  24.813  22.101  23.340
75383W        W76247  24.695  25.361  23.748
75384W        W76248  23.865  25.245  24.070
75385W        W76249  23.290  24.180  24.183
75386W        W76250  25.160  24.912  24.400
75387W        W76251  22.752  22.355  23.046
75388W        W76252  23.213  24.631  23.940
75389W        W76253  22.781  22.536  21.768
75390W        W76254  23.543  23.136  24.418
75391W        W76255  24.373  21.996  24.149
75392W        W76256  21.956  23.938  24.294
75393W        W76257  23.679  23.665  21.966
75394W        W76258  22.844  22.026  21.881
75395W        W76259  23.752  23.125  23.198
75396W        W76260  24.357  22.184  24.650
75397W        W76261  23.206  24.191  24.901
75398W        W76262  24.019  23.955  25.258
75399W        W76263  24.485  24.075  25.066
75400W        W76264  23.801  22.226  25.635
75401W        W76265  22.890  22.690  23.837
75402W        W76266  22.484  22.596  23.457
75403W        W76267  22.182  25.285  23.175
75404W        W76268  23.839  24.845  25.131
75405W        W76269  23.012  24.349  22.426
75406W        W76270  24.375  23.690  23.788
75407W        W76271  24.495  23.283  24.102
75408W        W76272  23.771  23.964  24.134
75409W        W76273  24.429  24.298  21.817
75410W        W76274  24.003  22.326  23.302
75411W        W76275  25.387  22.762  22.687
75412W        W76276  22.169  25.238  24.955
75413W        W76277  22.301  24.517  24.392
75414W        W76278  21.919  25.532  22.801
75415W        W76279  23.794  22.706  24.259
75416W        W76280  22.907  24.845  22.492
75417W        W76281  24.946  25.136  22.245
75418W        W76282  24.112  23.421  22.190
75419W        W76283  23.506  22.794  22.863
75420W        W76284  23.820  22.593  21.965
75421W        W76285  24.178  24.465  25.163
75422W        W76286  24.811  22.181  22.809
75423W        W76287  21.902  21.915  22.368
75424W        W76288  23.279  24.565  24.517
75425W        W76289  22.894  24.202  23.838
75426W        W76290  22.937  24.658  21.962
75427W        W76291  21.939  24.986  22.823
75428W        W76292  22.638  23.590  25.306
75429W        W76293  23.346  22.255  25.381
75430W        W76294  23.830  22.338  24.675
75431W        W76295  23.167  22.050  23.110
75432W        W76296  24.628  22.154  22.316
75433W        W76297  22.134  22.087  24.200
75434W        W76298  22.090  22.949  23.536
75435W        W76299  24.893  22.307  23.824
75436W        W76300  22.298  22.435  22.776
75437W        W76301  24.724  22.371  24.310
75438W        W76302  25.401  23.488  21.987
75439W        W76303  22.489  22.361  23.919
75440W        W76304  23.803  22.863  24.784
75441W        W76305  21.836  22.430  22.285
75442W        W76306  22.654  24.053  25.001
75443W        W76307  23.936  23.447  24.002
75444W        W76308  23.729  25.330  22.162
75445W        W76309  21.905  23.810  21.746
75446W        W76310  22.864  24.438  25.255
75447W        W76311  22.348  23.615  24.883
75448W        W76312  23.306  23.800  24.535
75449W        W76313  24.886  22.065  24.720
75450W        W76314  25.496  23.695  24.813
75451W        W76315  25.549  23.809  22.455
75452W        W76316  24.435  23.619  22.549
75453W        W76317  24.825  25.533  21.919
75454W        W76318  23.948  23.451  25.478
75455W        W76319  22.380  24.507  25.462
75456W        W76320  25.609  22.444  25.336
75457W        W76321  24.919  23.333  23.747
75458W        W76322  23.431  25.438  25.541
75459W        W76323  23.195  22.024  22.305
75460W        W76324  24.920  24.633  22.021
75461W        W76325  22.720  22.827  25.126
75462W        W76326  23.309  24.686  25.061
75463W        W76327  25.174  22.481  24.571
75464W        W76328  24.573  25.535  22.370
75465W        W76329  24.623  24.067  24.041
75466W        W76330  22.803  22.555  24.703
75467W        W76331  23.439  23.524  25.372
75468W        W76332  22.713  24.559  22.927
75469W        W76333  24.677  23.875  22.973
75470W        W76334  22.333  22.845  24.793
75471W        W76335  23.605  24.605  23.324
75472W        W76336  25.366  23.294  23.457
75473W        W76337  23.581  22.001  25.012
75474W        W76338  24.695  24.570  24.132
75475W        W76339  24.989  24.967  23.909
75476W        W76340  23.675  24.920  21.833
75477W        W76341  22.008  24.766  25.224
75478W        W76342  22.808  22.910  24.330
75479W        W76343  22.721  22.132  23.518
75480W        W76344  24.210  22.866  23.977
75481W        W76345  23.115  24.151  21.926
75482W        W76346  25.142  24.079  24.050
75483W        W76347  22.529  24.937  25.190
75484W        W76348  25.003  25.488  22.866
75485W        W76349  23.122  22.494  23.399
75486W        W76350  22.590  23.786  23.753
75487W        W76351  23.162  25.505  24.231
75488W        W76352  25.059  25.579  25.119
75489W        W76353  24.243  23.761  24.281
75490W        W76354  22.037  22.944  21.631
75491W        W76355  25.313  25.109  23.071
75492W        W76356  25.045  22.478  22.396
75493W        W76357  23.020  22.068  24.722
75494W        W76358  25.129  24.770  23.443
75495W        W76359  24.906  23.119  23.284
75496W        W76360  23.254  23.007  23.511
75497W        W76361  23.390  23.386  24.848
75498W        W76362  24.555  24.472  24.713
75499W        W76363  23.143  22.942  24.793
75500W        W76364  23.031  25.392  23.473
75501W        W76365  22.493  25.456  25.305
75502W        W76366  22.465  24.972  22.247
75503W        W76367  25.216  24.573  22.961
75504W        W76368  22.692  23.212  24.779
75505W        W76369  25.605  23.313  22.564
75506W        W76370  23.107  24.210  22.973
75507W        W76371  24.343  23.577  25.068
75508W        W76372  24.073  23.163  24.410
75509W        W76373  22.611  23.618  24.454
75510W        W76374  24.885  25.345  24.255
75511W        W76375  24.591  22.224  25.152
75512W        W76376  22.396  22.380  24.984
75513W        W76377  22.705  23.321  24.035
75514W        W76378  23.232  22.792  21.674
75515W        W76379  21.970  24.817  24.715
75516W        W76380  23.437  23.540  24.108
75517W        W76381  23.297  22.490  22.096
75518W        W76382  22.610  23.563  23.294
75519W        W76383  22.147  25.525  24.484
75520W        W76384  25.113  23.486  22.447
75521W        W76385  25.128  22.433  25.100
75522W        W76386  24.730  24.550  23.212
75523W        W76387  22.024  23.570  25.278
75524W        W76388  25.377  22.067  22.469
75525W        W76389  25.034  24.267  22.433
75526W        W76390  23.889  23.115  22.675
75527W        W76391  24.813  22.322  21.873
75528W        W76392  24.717  22.996  24.503
75529W        W76393  22.158  23.498  23.577
75530W        W76394  22.601  24.324  23.399
75531W        W76395  24.474  22.940  23.075
75532W        W76396  23.407  22.609  23.858
75533W        W76397  25.607  24.428  24.412
75534W        W76398  25.333  22.482  24.055
75535W        W76399  21.927  25.333  23.611
75536W        W76400  22.206  24.374  22.986
75537W        W76401  22.440  22.223  25.467
75538W        W76402  23.514  24.926  25.532
75539W        W76403  25.414  23.837  23.475
75540W        W76404  24.788  23.837  22.214
75541W        W76405  24.080  25.582  24.389
75542W        W76406  24.838  24.041  25.433
75543W        W76407  23.487  21.898  22.717
75544W        W76408  24.119  22.807  23.457
75545W        W76409  21.937  24.481  23.971
75546W        W76410  23.176  22.367  22.690
75547W        W76411  23.060  23.906  25.304
75548W        W76412  24.010  22.713  22.970
75549W        W76413  24.237  24.288  24.339
75550W        W76414  22.484  24.956  24.639
75551W        W76415  23.001  24.903  25.433
75552W        W76416  22.814  22.388  22.261
75553W        W76417  24.544  22.592  22.592
75554W        W76418  24.340  24.899  24.903
75555W        W76419  23.039  23.483  23.677
75556W        W76420  22.659  25.370  24.325
75557W        W76421  25.310  25.387  21.971
75558W        W76422  22.185  24.054  25.210
75559W        W76423  24.159  24.198  23.847
75560W        W76424  22.623  24.023  22.986
75561W        W76425  22.960  24.960  24.411
75562W        W76426  23.533  22.173  23.493
75563W        W76427  21.868  24.283  22.568
75564W        W76428  23.761  23.113  21.936
75565W        W76429  22.228  23.942  23.311
75566W        W76430  23.333  22.457  24.865
75567W        W76431  25.287  22.158  21.964
75568W        W76432  25.299  23.891  25.248
75569W        W76433  23.894  25.327  25.340
75570W        W76434  25.473  24.246  24.879
75571W        W76435  24.869  25.059  25.247
75572W        W76436  22.734  25.593  23.870
75573W        W76437  25.553  24.193  23.121
75574W        W76438  24.083  23.346  23.517
75575W        W76439  23.820  21.861  23.169
75576W        W76440  22.844  25.003  23.190
75577W        W76441  23.277  22.674  24.368
75578W        W76442  23.126  22.189  23.819
75579W        W76443  22.046  25.270  22.377
75580W        W76444  23.499  24.077  23.308
75581W        W76445  22.959  25.040  24.912
75582W        W76446  22.151  23.886  22.789
75583W        W76447  22.029  22.466  23.710
75584W        W76448  23.630  24.328  23.773
75585W        W76449  21.845  22.182  22.832
75586W        W76450  24.540  23.472  24.597
75587W        W76451  24.715  22.783  22.107
75588W        W76452  25.282  24.572  24.034
75589W        W76453  23.698  24.850  23.787
75590W        W76454  22.956  25.282  22.755
75591W        W76455  24.408  21.993  21.840
75592W        W76456  22.274  25.344  23.987
75593W        W76457  24.049  22.941  25.284
75594W        W76458  22.278  22.714  25.376
75595W        W76459  22.013  23.083  23.049
75596W        W76460  23.568  23.360  22.356
75597W        W76461  24.447  23.224  25.439
75598W        W76462  22.969  23.769  24.117
75599W        W76463  24.335  21.935  23.233
75600W        W76464  23.432  25.337  23.810
75601W        W76465  24.630  24.936  24.477
75602W        W76466  24.586  24.792  23.655
75603W        W76467  24.525  24.099  23.467
75604W        W76468  23.647  22.328  22.454
75605W        W76469  25.580  22.010  23.302
75606W        W76470  23.291  23.295  21.857
75607W        W76471  25.309  22.832  23.212
75608W        W76472  24.026  23.975  21.741
75609W        W76473  24.962  24.216  24.941
75610W        W76474  24.492  25.129  21.967
75611W        W76475  23.184  22.722  25.288
75612W        W76476  23.062  23.352  24.438
75613W        W76477  25.116  24.720  24.907
75614W        W76478  24.205  22.562  24.954
75615W        W76479  21.981  23.234  24.853
75616W        W76480  23.787  23.603  24.512
75617W        W76481  22.096  24.411  23.485
75618W        W76482  22.244  23.565  24.081
75619W        W76483  24.622  23.984  24.565
75620W        W76484  24.419  25.359  25.136
75621W        W76485  24.307  23.054  24.849
75622W        W76486  24.794  25.126  23.271
75623W        W76487  23.620  24.914  24.674
75624W        W76488  22.971  25.129  23.922
75625W        W76489  25.053  24.408  24.473
75626W        W76490  23.818  24.457  25.557
75627W        W76491  22.434  24.439  23.880
75628W        W76492  25.050  24.145  23.261
75629W        W76493  24.387  25.230  24.132
75630W        W76494  22.540  24.907  24.104
75631W        W76495  23.555  23.050  25.224
75632W        W76496  23.389  24.994  22.592
75633W        W76497  23.281  24.465  25.559
75634W        W76498  23.206  24.714  22.999
75635W        W76499  22.550  23.047  21.668
75636W        W76500  22.130  25.607  28.863
75637W        W76501  22.437  24.405  28.544
75638W        W76502  25.114  23.994  26.307
75639W        W76503  25.299  25.261  28.234
75640W        W76504  22.981  25.295  25.797
75641W        W76505  22.951  23.546  26.629
75642W        W76506  22.492  23.111  26.800
75643W        W76507  23.294  23.822  26.333
75644W        W76508  23.396  25.241  28.478
75645W        W76509  22.229  22.727  28.501
75646W        W76510  22.707  21.952  28.292
75647W        W76511  24.520  22.292  27.282
75648W        W76512  24.119  23.052  25.797
75649W        W76513  24.790  22.642  28.842
75650W        W76514  22.180  22.378  28.098
75651W        W76515  22.225  24.799  28.854
75652W        W76516  23.519  24.203  25.946
75653W        W76517  22.100  23.113  27.545
75654W        W76518  22.970  23.174  28.798
75655W        W76519  25.326  22.893  27.333
75656W        W76520  25.199  24.016  28.070
75657W        W76521  23.609  23.412  27.261
75658W        W76522  24.129  24.797  27.698
75659W        W76523  22.435  24.051  27.843
75660W        W76524  21.755  23.532  27.411
75661W        W76525  22.977  23.530  28.388
75662W        W76526  25.320  23.383  28.676
75663W        W76527  22.732  24.687  27.209
75664W        W76528  23.971  24.686  28.249
75665W        W76529  23.231  23.102  27.461
75666W        W76530  23.434  23.922  27.244
75667W        W76531  24.131  24.694  28.998
75668W        W76532  23.413  24.048  28.871
75669W        W76533  23.740  23.825  28.526
75670W        W76534  21.961  22.906  28.903
75671W        W76535  24.664  24.602  28.800
75672W        W76536  22.291  22.180  26.696
75673W        W76537  22.805  24.446  27.700
75674W        W76538  25.413  24.495  27.200
75675W        W76539  24.680  22.622  27.624
75676W        W76540  25.295  22.692  25.707
75677W        W76541  25.508  23.460  27.922
75678W        W76542  23.333  25.242  27.653
75679W        W76543  25.367  24.486  26.317
75680W        W76544  22.356  25.669  26.294
75681W        W76545  22.760  25.428  26.698
75682W        W76546  22.676  22.270  27.891
75683W        W76547  25.231  23.103  28.173
75684W        W76548  24.557  23.505  26.838
75685W        W76549  24.553  23.335  25.934
75686W        W76550  23.725  24.498  27.819
75687W        W76551  23.494  22.929  27.049
75688W        W76552  24.282  25.075  28.097
75689W        W76553  25.051  23.603  26.655
75690W        W76554  24.052  22.476  26.467
75691W        W76555  22.542  25.191  26.243
75692W        W76556  22.034  22.609  26.714
75693W        W76557  24.603  23.199  27.284
75694W        W76558  22.206  24.710  27.177
75695W        W76559  23.465  25.197  25.993
75696W        W76560  24.971  23.010  25.438
75697W        W76561  22.007  24.900  27.978
75698W        W76562  22.810  24.633  28.188
75699W        W76563  23.120  24.012  26.801
75700W        W76564  23.139  22.415  27.721
75701W        W76565  25.529  22.021  27.378
75702W        W76566  22.608  24.046  25.537
75703W        W76567  22.381  22.828  25.888
75704W        W76568  22.421  24.821  26.721
75705W        W76569  23.301  24.500  26.876
75706W        W76570  24.813  25.057  28.617
75707W        W76571  23.860  22.916  26.235
75708W        W76572  25.080  25.471  27.064
75709W        W76573  24.867  23.269  28.476
75710W        W76574  25.562  24.751  26.742
75711W        W76575  24.179  23.957  28.311
75712W        W76576  21.740  23.706  26.517
75713W        W76577  22.909  24.100  28.056
75714W        W76578  24.226  23.230  26.413
75715W        W76579  24.045  23.647  26.672
75716W        W76580  22.500  23.170  27.868
75717W        W76581  22.459  23.027  28.881
75718W        W76582  22.260  21.984  27.162
75719W        W76583  24.119  22.456  27.600
75720W        W76584  23.765  22.424  28.735
75721W        W76585  24.130  22.562  25.951
75722W        W76586  25.341  25.064  28.733
75723W        W76587  24.224  22.003  28.576
75724W        W76588  25.197  24.568  28.814
75725W        W76589  24.883  22.700  28.301
75726W        W76590  24.475  22.474  26.788
75727W        W76591  24.951  23.630  28.966
75728W        W76592  22.513  25.147  27.139
75729W        W76593  23.342  22.873  26.170
75730W        W76594  22.863  22.230  28.681
75731W        W76595  24.916  22.727  26.592
75732W        W76596  25.251  23.184  26.415
75733W        W76597  23.058  25.564  28.970
75734W        W76598  22.902  21.986  26.116
75735W        W76599  25.337  22.421  27.098
75736W        W76600  25.335  24.968  25.531
75737W        W76601  22.084  23.929  27.288
75738W        W76602  24.233  22.484  25.462
75739W        W76603  25.474  24.917  27.488
75740W        W76604  25.413  22.018  27.886
75741W        W76605  23.980  22.862  28.558
75742W        W76606  23.492  24.282  26.450
75743W        W76607  24.510  23.726   0.179
75744W        W76608  24.147  21.948  27.410
75745W        W76609  22.543  22.944  27.294
75746W        W76610  22.112  24.090  28.283
75747W        W76611  24.073  25.128  27.216
75748W        W76612  25.127  22.785  27.797
75749W        W76613  23.921  25.290  28.411
75750W        W76614  25.193  23.832  25.764
75751W        W76615  23.514  23.651  26.787
75752W        W76616  25.535  22.123  28.380
75753W        W76617  23.709  24.059  28.075
75754W        W76618  23.889  22.976  27.389
75755W        W76619  24.743  23.195  26.412
75756W        W76620  25.030  23.078  25.947
75757W        W76621  25.069  24.841  26.575
75758W        W76622  24.566  24.327  27.574
75759W        W76623  24.517  23.670  26.349
75760W        W76624  23.958  23.789  27.180
75761W        W76625  24.946  23.611  27.187
75762W        W76626  22.337  22.672  27.685
75763W        W76627  25.032  23.774  28.483
75764W        W76628  25.349  25.371  27.694
75765W        W76629  23.229  24.877  27.211
75766W        W76630  24.458  25.407  28.459
75767W        W76631  24.409  22.637  28.062
75768W        W76632  23.592  25.495  28.069
75769W        W76633  25.267  22.321  26.592
75770W        W76634  24.983  23.540  28.033
75771W        W76635  22.078  22.931  28.047
75772W        W76636  24.856  22.688  27.119
75773W        W76637  25.241  22.858  28.622
75774W        W76638  24.044  24.598  27.219
75775W        W76639  23.337  25.177  26.769
75776W        W76640  22.527  22.321  25.960
75777W        W76641  23.655  22.099  27.533
75778W        W76642  22.485  25.517  25.807
75779W        W76643  22.816  23.723  26.146
75780W        W76644  23.647  24.361  28.504
75781W        W76645  23.563  22.651  26.583
75782W        W76646  24.891  22.180  26.935
75783W        W76647  24.623  25.556  27.278
75784W        W76648  23.863  25.339  27.646
75785W        W76649  23.313  24.129  27.707
75786W        W76650  25.148  24.913  27.868
75787W        W76651  22.729  22.317  26.476
75788W        W76652  23.259  24.675  27.676
75789W        W76653  22.762  22.616  25.589
75790W        W76654  23.639  23.250  27.760
75791W        W76655  24.523  22.124  27.783
75792W        W76656  21.937  23.899  27.838
75793W        W76657  23.492  23.700  25.868
75794W        W76658  22.918  22.130  25.629
75795W        W76659  23.332  23.158  26.620
75796W        W76660  24.623  22.264  28.377
75797W        W76661  23.276  23.967  28.386
75798W        W76662  24.124  23.802  28.848
75799W        W76663  24.572  23.915  28.639
75800W        W76664  23.878  21.995  28.981
75801W        W76665  23.097  22.648  27.242
75802W        W76666  22.567  22.605  26.895
75803W        W76667  22.249  25.327  26.710
75804W        W76668  23.737  24.880  28.678
75805W        W76669  22.534  24.151  26.046
75806W        W76670  24.459  23.737  27.313
75807W        W76671  24.574  23.458  27.731
75808W        W76672  23.721  23.776  27.651
75809W        W76673  24.371  24.231  25.572
75810W        W76674  24.032  22.330  27.054
75811W        W76675  25.414  22.715  26.320
75812W        W76676  22.062  25.208  28.558
75813W        W76677  22.320  24.499  28.052
75814W        W76678  21.865  25.581  26.410
75815W        W76679  23.864  22.777  27.927
75816W        W76680  23.119  24.825  25.937
75817W        W76681  25.228  25.181  26.159
75818W        W76682  24.068  23.523  26.001
75819W        W76683  22.858  23.072  26.440
75820W        W76684  23.702  22.746  25.651
75821W        W76685  24.241  24.390  28.575
75822W        W76686  24.776  22.243  26.415
75823W        W76687  22.069  22.033  25.861
75824W        W76688  23.301  24.431  28.126
75825W        W76689  23.049  24.286  27.263
75826W        W76690  22.794  24.489  25.768
75827W        W76691  22.082  24.968  26.350
75828W        W76692  22.568  23.510  28.778
75829W        W76693  23.388  22.078  28.790
75830W        W76694  24.015  22.406  28.285
75831W        W76695  23.179  22.133  26.767
75832W        W76696  24.563  22.284  25.910
75833W        W76697  22.246  22.156  27.638
75834W        W76698  22.077  22.967  27.063
75835W        W76699  25.025  22.194  27.464
75836W        W76700  22.435  22.756  26.411
75837W        W76701  24.970  22.311  27.968
75838W        W76702  25.356  23.338  25.625
75839W        W76703  22.670  22.426  27.392
75840W        W76704  23.547  22.665  28.350
75841W        W76705  21.984  22.515  25.757
75842W        W76706  22.595  23.904  28.420
75843W        W76707  24.088  23.433  27.558
75844W        W76708  23.825  25.575  25.931
75845W        W76709  22.089  23.838  25.727
75846W        W76710  22.941  24.296  28.550
75847W        W76711  22.259  23.587  28.168
75848W        W76712  23.423  23.587  28.097
75849W        W76713  25.055  21.913  28.286
75850W        W76714  25.552  23.754  28.354
75851W        W76715  25.493  23.562  26.103
75852W        W76716  23.806  23.899  26.269
75853W        W76717  24.741  25.487  25.522
75854W        W76718  24.091  23.371   0.129
75855W        W76719  22.500  24.042  28.923
75856W        W76720  25.563  22.464  28.813
75857W        W76721  25.063  23.275  27.591
75858W        W76722  23.544  25.390  28.963
75859W        W76723  23.358  22.063  25.889
75860W        W76724  25.074  24.317  25.889
75861W        W76725  22.749  22.724  28.600
75862W        W76726  23.230  24.746  28.516
75863W        W76727  25.364  22.568  28.202
75864W        W76728  24.825  25.526  26.026
75865W        W76729  24.870  23.881  27.649
75866W        W76730  23.048  22.511  28.224
75867W        W76731  23.384  23.512  28.696
75868W        W76732  22.736  24.710  26.297
75869W        W76733  24.756  24.010  26.748
75870W        W76734  22.583  22.724  28.124
75871W        W76735  23.685  24.855  26.954
75872W        W76736  25.421  23.358  27.088
75873W        W76737  23.734  21.984  28.418
75874W        W76738  24.637  24.827  27.805
75875W        W76739  24.907  25.152  27.466
75876W        W76740  23.608  24.697  26.010
75877W        W76741  22.003  24.251  28.802
75878W        W76742  22.850  22.828  27.690
75879W        W76743  22.720  22.116  26.982
75880W        W76744  24.316  22.983  27.678
75881W        W76745  23.060  24.039  25.809
75882W        W76746  25.275  24.216  27.597
75883W        W76747  22.759  24.751  28.760
75884W        W76748  25.057  25.582  26.489
75885W        W76749  23.063  22.660  26.711
75886W        W76750  22.649  23.829  27.048
75887W        W76751  23.053  25.527  27.989
75888W        W76752  25.078  25.494  28.683
75889W        W76753  24.277  23.864  27.805
75890W        W76754  22.226  23.327  25.684
75891W        W76755  25.387  25.237  26.678
75892W        W76756  24.939  22.599  26.081
75893W        W76757  23.220  22.039  28.302
75894W        W76758  25.181  24.943  27.067
75895W        W76759  24.957  23.165  26.906
75896W        W76760  22.966  23.086  26.996
75897W        W76761  23.649  23.159  28.271
75898W        W76762  24.601  24.666  28.287
75899W        W76763  23.151  23.002  28.369
75900W        W76764  23.000  25.324  27.161
75901W        W76765  22.536  25.233  28.824
75902W        W76766  22.570  24.980  25.733
75903W        W76767  25.181  24.341  26.776
75904W        W76768  22.609  23.176  28.377
75905W        W76769  25.579  23.053  25.990
75906W        W76770  22.996  24.254  26.288
75907W        W76771  24.012  23.379  28.575
75908W        W76772  24.179  23.119  28.147
75909W        W76773  22.720  23.635  27.955
75910W        W76774  24.867  25.594  27.743
75911W        W76775  24.669  22.143  28.898
75912W        W76776  22.340  22.208  28.565
75913W        W76777  22.768  23.380  27.475
75914W        W76778  23.197  23.051  25.679
75915W        W76779  21.969  24.623  28.425
75916W        W76780  23.242  23.597  27.618
75917W        W76781  23.236  22.544  25.787
75918W        W76782  22.452  23.479  26.448
75919W        W76783  22.095  25.393  28.076
75920W        W76784  24.982  23.543  26.130
75921W        W76785  25.105  22.324  28.591
75922W        W76786  24.781  24.593  26.962
75923W        W76787  22.104  23.381   0.045
75924W        W76788  25.343  22.284  26.073
75925W        W76789  24.835  24.410  26.393
75926W        W76790  23.683  23.406  26.338
75927W        W76791  24.851  22.477  25.533
75928W        W76792  24.715  23.070  28.010
75929W        W76793  22.301  23.430  27.161
75930W        W76794  22.793  24.426  26.757
75931W        W76795  24.485  22.986  26.798
75932W        W76796  23.565  22.611  27.513
75933W        W76797  25.454  24.490  28.005
75934W        W76798  25.510  22.479  27.616
75935W        W76799  21.968  25.208  27.186
75936W        W76800  22.275  24.449  26.387
75937W        W76801  22.513  22.072   0.064
75938W        W76802  23.695  24.926   0.209
75939W        W76803  25.343  23.902  27.018
75940W        W76804  24.704  23.926  25.926
75941W        W76805  24.137  25.569  28.015
75942W        W76806  24.899  24.154  28.946
75943W        W76807  23.341  21.859  26.362
75944W        W76808  24.327  22.755  27.220
75945W        W76809  22.078  24.353  27.593
75946W        W76810  23.210  22.365  26.302
75947W        W76811  22.964  23.824  28.822
75948W        W76812  23.978  22.834  26.842
75949W        W76813  24.273  24.363  27.992
75950W        W76814  22.423  24.914  28.370
75951W        W76815  23.162  25.025  28.942
75952W        W76816  22.855  22.689  26.101
75953W        W76817  24.472  22.756  26.301
75954W        W76818  24.282  24.935  28.585
75955W        W76819  23.103  23.562  27.121
75956W        W76820  22.615  25.218  27.993
75957W        W76821  25.231  25.466  25.689
75958W        W76822  22.138  23.756  28.677
75959W        W76823  24.018  24.192  27.520
75960W        W76824  22.610  23.987  26.551
75961W        W76825  23.142  25.003  28.059
75962W        W76826  23.517  22.412  27.042
75963W        W76827  21.928  24.248  26.026
75964W        W76828  23.641  23.218  25.854
75965W        W76829  22.175  23.780  26.796
75966W        W76830  23.570  22.313  27.992
75967W        W76831  25.251  22.168  25.591
75968W        W76832  25.396  23.883  28.831
75969W        W76833  24.028  25.252  28.924
75970W        W76834  25.485  24.264  28.480
75971W        W76835  24.986  24.926   0.118
75972W        W76836  22.720  25.539  27.573
75973W        W76837  25.542  24.050  26.574
75974W        W76838  24.131  23.293  27.056
75975W        W76839  23.689  22.136  26.624
75976W        W76840  22.907  24.931  26.785
75977W        W76841  23.346  22.843  27.915
75978W        W76842  23.150  22.130  27.309
75979W        W76843  22.049  25.343  25.994
75980W        W76844  23.722  24.152  26.891
75981W        W76845  22.883  25.181  28.458
75982W        W76846  22.169  23.878  26.281
75983W        W76847  22.179  22.486  27.224
75984W        W76848  23.559  24.419  27.323
75985W        W76849  22.111  22.383  26.254
75986W        W76850  24.474  23.529  28.254
75987W        W76851  24.576  22.828  25.773
75988W        W76852  24.983  24.634  27.453
75989W        W76853  23.679  24.893  27.472
75990W        W76854  23.063  25.190  26.327
75991W        W76855  24.265  21.984  25.570
75992W        W76856  22.264  25.248  27.603
75993W        W76857  24.381  22.943   0.017
75994W        W76858  22.327  22.541  28.981
75995W        W76859  22.044  23.118  26.527
75996W        W76860  23.191  23.357  26.136
75997W        W76861  24.486  23.406  28.782
75998W        W76862  22.844  23.907  27.538
75999W        W76863  24.400  21.949  26.926
76000W        W76864  23.551  25.325  27.209
76001W        W76865  24.794  25.219  28.108
76002W        W76866  24.498  24.828  27.324
76003W        W76867  24.393  24.209  27.103
76004W        W76868  23.657  22.457  26.095
76005W        W76869  25.539  21.978  26.861
76006W        W76870  23.010  23.539  25.675
76007W        W76871  25.354  22.870  26.824
76008W        W76872  23.948  23.961  25.762
76009W        W76873  24.936  24.286  28.452
76010W        W76874  24.887  25.060  25.775
76011W        W76875  23.227  22.591  28.741
76012W        W76876  23.035  23.245  27.935
76013W        W76877  25.123  24.754  28.342
76014W        W76878  24.289  22.490  28.759
76015W        W76879  22.118  23.247  28.532
76016W        W76880  23.941  23.565  28.076
76017W        W76881  22.302  24.290  26.884
76018W        W76882  22.299  23.593  27.641
76019W        W76883  24.672  23.995  28.118
76020W        W76884  24.496  25.071   0.035
76021W        W76885  24.485  22.933  28.514
76022W        W76886  24.703  25.137  26.960
76023W        W76887  23.660  24.992  27.991
76024W        W76888  22.866  25.023  27.581
76025W        W76889  24.928  24.429  27.943
76026W        W76890  23.883  24.241  28.947
76027W        W76891  22.507  24.243  27.342
76028W        W76892  24.928  24.158  27.215
76029W        W76893  24.397  25.274  27.635
76030W        W76894  22.412  24.769  27.635
76031W        W76895  23.520  23.020  28.770
76032W        W76896  23.684  25.018  26.434
76033W        W76897  23.444  24.555  28.954
76034W        W76898  23.245  24.729  26.427
76035W        W76899  22.691  23.122  25.576
76036W        W76900  21.993   0.151   3.418
76037W        W76901  22.309  28.016   2.951
76038W        W76902  25.155  27.634   0.818
76039W        W76903  25.277  28.763   2.724
76040W        W76904  23.282  28.781   0.341
76041W        W76905  23.192  26.925   1.241
76042W        W76906  22.787  26.602   1.498
76043W        W76907  23.678  27.574   0.814
76044W        W76908  23.400  28.716   3.134
76045W        W76909  22.024  26.537   3.086
76046W        W76910  22.690  25.913   2.909
76047W        W76911  24.488  25.972   1.765
76048W        W76912  24.145  26.684   0.470
76049W        W76913  24.753  26.298   3.365
76050W        W76914  22.174  25.789   2.655
76051W        W76915  22.134  28.683   3.568
76052W        W76916  23.943  28.128   0.589
76053W        W76917  22.023  26.686   2.028
76054W        W76918  22.873  26.775   3.264
76055W        W76919  25.290  26.508   1.854
76056W        W76920  25.129  27.490   2.530
76057W        W76921  23.566  27.015   1.625
76058W        W76922  24.119  28.326   1.960
76059W        W76923  22.464  27.592   2.152
76060W        W76924  21.831  27.172   1.917
76061W        W76925  23.130  27.203   3.106
76062W        W76926  25.173  26.988   3.252
76063W        W76927  22.741  28.403   1.695
76064W        W76928  23.964  28.096   2.753
76065W        W76929  23.402  26.756   2.039
76066W        W76930  23.404  27.522   1.714
76067W        W76931  24.233  28.363   3.465
76068W        W76932  23.437  27.483   3.442
76069W        W76933  23.566  27.383   2.943
76070W        W76934  21.705  26.842   3.444
76071W        W76935  24.667  28.210   3.216
76072W        W76936  22.360  25.730   1.100
76073W        W76937  22.858  28.223   2.190
76074W        W76938  25.428  27.926   1.646
76075W        W76939  24.954  26.124   1.977
76076W        W76940  25.142  26.300   0.133
76077W        W76941  25.659  27.064   2.517
76078W        W76942  23.529  28.701   2.232
76079W        W76943  25.093  28.170   0.848
76080W        W76944  22.502   0.249   0.629
76081W        W76945  22.681  28.960   1.037
76082W        W76946  22.635  25.741   2.409
76083W        W76947  25.144  26.860   2.730
76084W        W76948  24.509  27.177   1.250
76085W        W76949  24.543  26.965   0.342
76086W        W76950  23.759  28.128   2.269
76087W        W76951  23.811  26.553   1.753
76088W        W76952  24.082  28.528   2.455
76089W        W76953  25.024  27.199   1.102
76090W        W76954  24.063  26.058   1.020
76091W        W76955  22.550  28.556   0.735
76092W        W76956  22.025  26.061   1.297
76093W        W76957  24.805  26.620   1.965
76094W        W76958  22.186  28.305   1.632
76095W        W76959  23.601  28.537   0.747
76096W        W76960  24.844  26.748  28.993
76097W        W76961  21.981  28.407   2.396
76098W        W76962  22.818  28.203   2.717
76099W        W76963  23.031  27.428   1.368
76100W        W76964  23.063  25.972   2.162
76101W        W76965  25.477  25.532   1.765
76102W        W76966  22.473  27.298   0.160
76103W        W76967  22.450  26.512   0.529
76104W        W76968  22.373  28.318   1.155
76105W        W76969  23.323  27.854   1.325
76106W        W76970  24.822  28.674   2.960
76107W        W76971  23.831  26.457   0.788
76108W        W76972  25.045  28.856   1.541
76109W        W76973  24.736  26.750   3.053
76110W        W76974  25.512  28.160   1.194
76111W        W76975  24.083  27.578   2.790
76112W        W76976  21.843  27.026   1.081
76113W        W76977  22.886  27.763   2.434
76114W        W76978  24.199  26.864   0.970
76115W        W76979  24.026  27.322   1.123
76116W        W76980  22.531  26.715   2.379
76117W        W76981  22.191  26.990   3.254
76118W        W76982  22.254  25.662   1.612
76119W        W76983  24.004  26.116   2.085
76120W        W76984  23.891  26.186   3.261
76121W        W76985  24.301  25.975   0.554
76122W        W76986  25.328  28.555   3.213
76123W        W76987  24.195  25.691   3.200
76124W        W76988  25.139  28.061   3.364
76125W        W76989  24.816  26.256   2.840
76126W        W76990  24.470  26.156   1.292
76127W        W76991  24.774  27.251   3.487
76128W        W76992  22.428  28.760   1.466
76129W        W76993  23.342  26.585   0.870
76130W        W76994  22.708  25.928   3.433
76131W        W76995  24.875  26.404   1.038
76132W        W76996  25.219  26.752   0.936
76133W        W76997  23.028  28.963   3.400
76134W        W76998  22.991  25.577   0.634
76135W        W76999  25.289  25.990   1.628
76136W        W77000  25.392  28.382   0.244
76137W        W77001  22.105  27.570   1.765
76138W        W77002  24.280  26.086   0.049
76139W        W77003  25.428  28.395   1.932
76140W        W77004  25.350  25.680   2.445
76141W        W77005  23.844  26.711   3.273
76142W        W77006  24.225  28.456   1.067
76143W        W77007  24.309  27.422   3.653
76144W        W77008  24.094  25.650   1.862
76145W        W77009  22.470  26.482   1.886
76146W        W77010  22.266  27.609   2.621
76147W        W77011  24.119  28.677   1.543
76148W        W77012  25.036  26.440   2.395
76149W        W77013  23.939  28.833   2.938
76150W        W77014  25.166  27.619   0.309
76151W        W77015  23.521  27.350   1.240
76152W        W77016  25.468  25.678   2.955
76153W        W77017  23.619  27.744   2.592
76154W        W77018  23.768  26.535   2.293
76155W        W77019  24.695  26.855   0.851
76156W        W77020  25.024  26.710   0.467
76157W        W77021  24.739  28.537   0.959
76158W        W77022  24.712  27.921   1.664
76159W        W77023  24.403  27.298   0.723
76160W        W77024  23.908  27.430   1.629
76161W        W77025  24.868  27.130   1.906
76162W        W77026  22.238  26.224   2.288
76163W        W77027  24.893  27.262   2.942
76164W        W77028  25.311  28.830   2.181
76165W        W77029  23.225  28.330   1.515
76166W        W77030  24.414  28.859   2.686
76167W        W77031  24.164  26.327   2.550
76168W        W77032  23.509   0.014   2.689
76169W        W77033  25.195  26.000   1.113
76170W        W77034  24.776  27.108   2.407
76171W        W77035  22.041  26.643   2.574
76172W        W77036  24.873  26.329   1.538
76173W        W77037  25.213  26.495   3.106
76174W        W77038  24.140  28.145   1.476
76175W        W77039  23.358  28.720   1.210
76176W        W77040  22.501  25.991   0.567
76177W        W77041  23.604  25.717   2.085
76178W        W77042  22.719  28.849   0.341
76179W        W77043  22.936  27.220   0.888
76180W        W77044  23.672  27.858   3.107
76181W        W77045  23.599  26.272   1.217
76182W        W77046  24.833  25.796   1.423
76183W        W77047  24.378   0.086   1.767
76184W        W77048  23.978  28.844   2.022
76185W        W77049  23.339  27.762   2.165
76186W        W77050  25.134  28.393   2.390
76187W        W77051  22.821  25.897   1.007
76188W        W77052  23.333  28.260   2.013
76189W        W77053  22.868  26.487   0.190
76190W        W77054  23.459  26.890   2.565
76191W        W77055  24.534  25.689   2.186
76192W        W77056  21.937  27.548   2.248
76193W        W77057  23.586  27.333   0.330
76194W        W77058  22.957  25.979   0.281
76195W        W77059  23.710  26.855   1.145
76196W        W77060  24.458  25.907   2.646
76197W        W77061  23.193  27.751   2.926
76198W        W77062  23.951  27.447   3.289
76199W        W77063  24.467  27.499   3.124
76200W        W77064  23.856  25.794   3.599
76201W        W77065  22.967  26.482   2.017
76202W        W77066  22.520  26.128   1.463
76203W        W77067  22.154  28.797   1.028
76204W        W77068  23.796  28.362   3.176
76205W        W77069  22.647  27.581   0.577
76206W        W77070  24.398  27.317   1.771
76207W        W77071  24.395  26.888   2.069
76208W        W77072  23.828  27.607   2.111
76209W        W77073  24.345  27.964   0.219
76210W        W77074  23.993  26.075   1.562
76211W        W77075  25.590  26.370   0.912
76212W        W77076  22.109  28.804   3.043
76213W        W77077  22.419  28.051   2.432
76214W        W77078  21.740   0.035   0.721
76215W        W77079  23.609  26.069   2.473
76216W        W77080  23.161  28.296   0.468
76217W        W77081  25.041  28.636   0.555
76218W        W77082  23.924  27.130   0.644
76219W        W77083  23.065  26.301   1.190
76220W        W77084  23.846  26.326   0.228
76221W        W77085  24.185  27.919   3.216
76222W        W77086  24.729  25.947   0.869
76223W        W77087  22.092  25.699   0.368
76224W        W77088  23.283  28.130   2.513
76225W        W77089  23.033  27.902   1.773
76226W        W77090  22.974  27.848   0.291
76227W        W77091  22.042  28.378   0.730
76228W        W77092  22.628  27.191   3.051
76229W        W77093  23.350  25.924   3.576
76230W        W77094  23.965  25.940   2.809
76231W        W77095  23.218  25.637   1.274
76232W        W77096  24.082  25.571   0.845
76233W        W77097  22.154  25.722   2.135
76234W        W77098  22.209  26.555   1.421
76235W        W77099  25.020  25.621   1.972
76236W        W77100  22.423  26.296   0.992
76237W        W77101  24.916  25.934   2.429
76238W        W77102  25.322  27.106   0.305
76239W        W77103  22.581  25.970   1.949
76240W        W77104  23.751  26.478   2.811
76241W        W77105  22.038  26.210   0.310
76242W        W77106  22.690  27.679   2.904
76243W        W77107  23.896  27.038   2.024
76244W        W77108  23.775  28.938   0.410
76245W        W77109  22.008  27.490   0.229
76246W        W77110  22.832  28.090   3.208
76247W        W77111  22.204  27.113   2.742
76248W        W77112  23.188  27.354   2.579
76249W        W77113  24.943  25.670   2.854
76250W        W77114  25.443  27.320   2.936
76251W        W77115  25.662  27.486   0.448
76252W        W77116  24.211  27.769   0.886
76253W        W77117  24.802   0.003   0.173
76254W        W77118  23.929  27.053   3.659
76255W        W77119  22.434  27.867   3.439
76256W        W77120  25.597  26.179   3.433
76257W        W77121  25.218  26.897   2.223
76258W        W77122  23.467  28.917   3.647
76259W        W77123  23.400  25.724   0.369
76260W        W77124  24.932  28.138   0.351
76261W        W77125  22.497  26.375   3.284
76262W        W77126  23.280  28.249   3.011
76263W        W77127  25.303  26.122   2.723
76264W        W77128  24.592  28.945   0.657
76265W        W77129  24.692  27.620   2.101
76266W        W77130  23.137  25.912   2.659
76267W        W77131  23.437  26.960   3.459
76268W        W77132  22.778  28.083   0.797
76269W        W77133  24.693  27.605   1.026
76270W        W77134  22.331  26.254   2.792
76271W        W77135  23.705  28.318   1.237
76272W        W77136  25.497  26.941   1.312
76273W        W77137  23.655  25.707   3.121
76274W        W77138  24.583  28.158   2.108
76275W        W77139  24.927  28.566   1.959
76276W        W77140  24.131  28.617   0.578
76277W        W77141  22.017  28.187   3.421
76278W        W77142  22.734  26.245   2.442
76279W        W77143  22.753  25.667   1.494
76280W        W77144  24.526  26.237   2.215
76281W        W77145  23.473  27.860   0.444
76282W        W77146  25.190  27.545   1.912
76283W        W77147  22.434  28.429   3.236
76284W        W77148  24.937   0.029   1.048
76285W        W77149  23.004  26.104   1.662
76286W        W77150  22.595  27.492   1.628
76287W        W77151  23.076   0.106   2.361
76288W        W77152  25.098   0.017   3.243
76289W        W77153  24.263  27.340   2.287
76290W        W77154  22.098  26.987   0.457
76291W        W77155  25.250  28.608   1.102
76292W        W77156  25.153  26.216   0.641
76293W        W77157  23.124  25.722   3.150
76294W        W77158  25.085  28.323   1.523
76295W        W77159  25.012  26.840   1.491
76296W        W77160  23.311  26.537   1.581
76297W        W77161  23.333  26.676   3.043
76298W        W77162  24.471  27.985   2.805
76299W        W77163  22.908  26.381   2.903
76300W        W77164  22.953  28.839   1.524
76301W        W77165  22.519  28.961   3.322
76302W        W77166  22.640  28.276   0.287
76303W        W77167  25.068  27.870   1.274
76304W        W77168  22.487  26.720   2.902
76305W        W77169  25.545  26.712   0.547
76306W        W77170  23.138  27.695   0.833
76307W        W77171  23.948  27.066   2.934
76308W        W77172  24.100  26.856   2.487
76309W        W77173  22.666  27.276   2.530
76310W        W77174  24.857  28.860   2.416
76311W        W77175  24.696  25.795   3.306
76312W        W77176  22.254  25.878   3.168
76313W        W77177  22.985  26.968   2.246
76314W        W77178  23.093  26.823   0.497
76315W        W77179  21.917  28.333   2.908
76316W        W77180  23.426  27.247   2.135
76317W        W77181  23.377  26.279   0.443
76318W        W77182  22.656  27.070   1.310
76319W        W77183  22.149  28.913   2.477
76320W        W77184  24.916  27.237   0.591
76321W        W77185  25.156  26.006   3.208
76322W        W77186  24.591  28.092   1.192
76323W        W77187  21.797  27.337   3.298
76324W        W77188  25.144  25.689   0.575
76325W        W77189  24.485  28.171   0.681
76326W        W77190  23.424  27.108   0.781
76327W        W77191  24.755  25.934   0.289
76328W        W77192  24.586  26.647   2.545
76329W        W77193  22.295  27.007   1.705
76330W        W77194  22.782  27.992   1.334
76331W        W77195  24.541  26.675   1.328
76332W        W77196  23.458  26.247   2.006
76333W        W77197  25.418  27.966   2.515
76334W        W77198  25.419  26.133   2.207
76335W        W77199  21.890  28.697   1.485
76336W        W77200  22.291  27.901   0.848
76337W        W77201  22.273  26.062   3.662
76338W        W77202  23.544  28.422   3.633
76339W        W77203  25.370  27.464   1.392
76340W        W77204  24.686  27.703   0.521
76341W        W77205  23.976   0.088   2.476
76342W        W77206  24.732  27.761   3.469
76343W        W77207  23.483  25.485   0.825
76344W        W77208  24.329  26.461   1.754
76345W        W77209  22.066  28.007   2.063
76346W        W77210  23.320  25.978   0.864
76347W        W77211  22.924  27.611   3.366
76348W        W77212  24.061  26.494   1.285
76349W        W77213  24.227  27.864   2.368
76350W        W77214  22.386  28.497   2.723
76351W        W77215  23.061  28.453   3.485
76352W        W77216  22.916  26.298   0.683
76353W        W77217  24.395  26.409   0.845
76354W        W77218  24.281  28.443   2.957
76355W        W77219  23.048  27.017   1.727
76356W        W77220  22.677  28.747   2.385
76357W        W77221  25.311  28.882   0.186
76358W        W77222  22.228  27.516   3.113
76359W        W77223  24.233  27.813   1.863
76360W        W77224  22.613  27.570   1.096
76361W        W77225  23.139  28.627   2.590
76362W        W77226  23.494  25.948   1.606
76363W        W77227  21.864  27.865   0.557
76364W        W77228  23.617  26.781   0.391
76365W        W77229  22.198  27.330   1.308
76366W        W77230  23.402  26.158   3.038
76367W        W77231  25.211  25.781   0.090
76368W        W77232  25.195  27.520   3.357
76369W        W77233  23.930  28.787   3.466
76370W        W77234  25.452  27.838   3.020
76371W        W77235  24.906  28.574   3.478
76372W        W77236  22.608  28.966   1.911
76373W        W77237  25.637  27.688   0.951
76374W        W77238  24.103  26.950   1.522
76375W        W77239  23.722  25.744   1.202
76376W        W77240  22.846  28.481   1.186
76377W        W77241  23.232  26.431   2.476
76378W        W77242  23.168  25.614   1.815
76379W        W77243  22.184  28.863   0.511
76380W        W77244  23.832  27.792   1.261
76381W        W77245  22.860  28.618   3.029
76382W        W77246  22.237  27.357   0.793
76383W        W77247  22.088  26.135   1.802
76384W        W77248  23.697  27.966   1.745
76385W        W77249  22.017  25.990   0.786
76386W        W77250  24.431  27.101   2.788
76387W        W77251  24.605  26.421   0.366
76388W        W77252  25.078  28.036   2.015
76389W        W77253  23.685  28.493   1.732
76390W        W77254  23.061  28.686   0.784
76391W        W77255  24.338  25.587   0.179
76392W        W77256  22.124  28.809   1.921
76393W        W77257  24.289  26.539   3.442
76394W        W77258  22.099  26.549   3.596
76395W        W77259  22.313  26.847   0.961
76396W        W77260  22.811  26.710   0.956
76397W        W77261  24.330  27.030   3.302
76398W        W77262  22.951  27.443   2.021
76399W        W77263  24.246  25.675   1.358
76400W        W77264  23.410  28.921   1.722
76401W        W77265  24.630  28.407   2.555
76402W        W77266  24.555  28.411   1.642
76403W        W77267  24.335  27.660   1.385
76404W        W77268  23.779  25.950   0.612
76405W        W77269  25.492  25.580   1.248
76406W        W77270  23.066  27.338   0.381
76407W        W77271  25.332  26.447   1.346
76408W        W77272  24.004  27.620   0.427
76409W        W77273  24.918  27.770   2.979
76410W        W77274  24.569  28.541   0.327
76411W        W77275  23.031  26.301   3.392
76412W        W77276  22.952  26.877   2.743
76413W        W77277  25.094  28.240   2.874
76414W        W77278  24.361  26.169   3.065
76415W        W77279  21.747  26.948   2.942
76416W        W77280  23.792  27.269   2.490
76417W        W77281  22.259  27.854   1.370
76418W        W77282  22.252  27.125   2.224
76419W        W77283  24.601  27.545   2.612
76420W        W77284  24.454  28.802   3.299
76421W        W77285  24.240  26.645   2.943
76422W        W77286  24.564  28.828   1.340
76423W        W77287  23.626  28.486   2.697
76424W        W77288  23.045  28.695   2.023
76425W        W77289  24.883  27.951   2.485
76426W        W77290  23.838  28.016   3.582
76427W        W77291  22.522  27.967   1.822
76428W        W77292  24.851  27.457   1.515
76429W        W77293  24.459  28.687   2.125
76430W        W77294  22.400  28.427   2.087
76431W        W77295  23.501  26.424   3.495
76432W        W77296  23.857  28.833   1.120
76433W        W77297  23.310  27.986   3.454
76434W        W77298  23.249  28.227   0.981
76435W        W77299  22.613  27.013   0.558
76436W        W77300  22.012   0.257   6.997
76437W        W77301  22.343  28.125   6.700
76438W        W77302  25.088  27.680   4.339
76439W        W77303  25.298  28.809   6.368
76440W        W77304  23.024  28.779   3.896
76441W        W77305  23.209  26.991   4.811
76442W        W77306  22.822  26.761   5.176
76443W        W77307  23.668  27.532   4.275
76444W        W77308  23.327  28.760   6.946
76445W        W77309  22.055  26.350   6.583
76446W        W77310  22.617  25.612   6.512
76447W        W77311  24.559  25.948   5.378
76448W        W77312  24.102  26.721   4.070
76449W        W77313  24.640  26.405   6.998
76450W        W77314  22.231  25.938   6.297
76451W        W77315  22.320  28.782   7.475
76452W        W77316  23.622  28.106   4.060
76453W        W77317  22.014  26.716   5.696
76454W        W77318  23.097  26.835   6.851
76455W        W77319  25.470  26.675   5.392
76456W        W77320  25.267  27.575   6.354
76457W        W77321  23.545  27.087   5.221
76458W        W77322  24.128  28.235   5.621
76459W        W77323  22.506  27.713   5.932
76460W        W77324  21.877  27.204   5.576
76461W        W77325  23.047  27.261   6.543
76462W        W77326  25.177  27.028   6.950
76463W        W77327  22.781  28.396   5.298
76464W        W77328  23.971  28.120   6.483
76465W        W77329  23.269  26.748   5.675
76466W        W77330  23.438  27.591   5.286
76467W        W77331  24.137  28.453   7.147
76468W        W77332  23.630  27.564   7.181
76469W        W77333  23.517  27.380   6.711
76470W        W77334  21.911  26.651   7.029
76471W        W77335  24.723  28.300   6.827
76472W        W77336  22.465  25.880   4.775
76473W        W77337  22.889  28.103   5.895
76474W        W77338  25.476  27.958   5.300
76475W        W77339  24.968  26.570   5.593
76476W        W77340  25.148  26.376   3.679
76477W        W77341  25.676  27.137   6.153
76478W        W77342  23.331  28.670   6.101
76479W        W77343  25.127  28.189   4.187
76480W        W77344  22.355   0.030   4.306
76481W        W77345  22.696  28.859   4.694
76482W        W77346  22.673  25.927   6.047
76483W        W77347  25.222  26.970   6.376
76484W        W77348  24.452  27.166   4.888
76485W        W77349  24.536  27.033   3.948
76486W        W77350  23.787  28.102   5.990
76487W        W77351  23.761  26.354   5.174
76488W        W77352  24.239  28.348   6.116
76489W        W77353  24.934  27.301   4.696
76490W        W77354  23.654  26.044   4.770
76491W        W77355  22.681  28.592   4.249
76492W        W77356  22.062  26.185   4.937
76493W        W77357  24.600  26.845   5.292
76494W        W77358  22.245  28.349   5.319
76495W        W77359  23.532  28.661   4.103
76496W        W77360  24.770  26.754   3.572
76497W        W77361  22.063  28.515   6.019
76498W        W77362  22.832  28.110   6.449
76499W        W77363  23.077  27.540   4.857
76500W        W77364  23.131  26.156   5.989
76501W        W77365  25.423  25.708   5.411
76502W        W77366  22.487  27.345   3.528
76503W        W77367  22.289  26.514   4.082
76504W        W77368  22.500  28.366   4.843
76505W        W77369  23.340  27.990   4.942
76506W        W77370  24.799  28.808   6.611
76507W        W77371  23.710  26.423   4.332
76508W        W77372  25.153  28.978   5.261
76509W        W77373  24.822  26.775   6.666
76510W        W77374  25.582  28.244   4.899
76511W        W77375  24.156  27.664   6.341
76512W        W77376  21.788  27.287   4.632
76513W        W77377  22.995  27.692   6.189
76514W        W77378  24.134  26.915   4.562
76515W        W77379  24.061  27.462   4.616
76516W        W77380  22.360  26.797   6.113
76517W        W77381  22.387  26.734   6.783
76518W        W77382  22.329  25.739   5.261
76519W        W77383  23.997  26.109   5.589
76520W        W77384  23.777  26.141   6.808
76521W        W77385  24.282  25.992   4.071
76522W        W77386  25.373  28.613   6.892
76523W        W77387  24.154  25.763   6.788
76524W        W77388  25.174  28.127   7.043
76525W        W77389  24.784  26.261   6.535
76526W        W77390  24.505  26.135   4.822
76527W        W77391  24.813  27.378   7.168
76528W        W77392  22.456  28.775   5.140
76529W        W77393  23.236  26.728   4.269
76530W        W77394  22.874  25.901   6.967
76531W        W77395  24.882  26.446   4.589
76532W        W77396  25.215  26.823   4.481
76533W        W77397  22.851  28.885   7.185
76534W        W77398  22.861  25.768   4.404
76535W        W77399  25.260  26.185   5.346
76536W        W77400  25.322  28.346   3.740
76537W        W77401  22.175  27.613   5.451
76538W        W77402  24.323  26.046   3.564
76539W        W77403  25.453  28.411   5.554
76540W        W77404  25.315  25.782   6.062
76541W        W77405  23.899  27.037   6.805
76542W        W77406  23.804  27.966   4.528
76543W        W77407  24.285  27.609   7.239
76544W        W77408  23.986  25.597   5.659
76545W        W77409  22.493  26.612   5.554
76546W        W77410  22.241  27.721   6.373
76547W        W77411  24.286  28.657   4.876
76548W        W77412  25.318  26.800   5.890
76549W        W77413  24.022  28.917   6.586
76550W        W77414  25.132  27.795   3.825
76551W        W77415  23.566  27.380   4.773
76552W        W77416  25.494  25.757   6.575
76553W        W77417  23.638  27.755   6.378
76554W        W77418  23.756  26.720   5.524
76555W        W77419  24.655  26.900   4.456
76556W        W77420  24.916  26.674   4.075
76557W        W77421  24.797  28.473   4.500
76558W        W77422  24.559  27.958   5.419
76559W        W77423  24.518  27.390   4.388
76560W        W77424  23.976  27.322   5.097
76561W        W77425  24.801  27.402   5.194
76562W        W77426  22.262  26.313   5.942
76563W        W77427  24.905  27.310   6.635
76564W        W77428  25.343  28.855   5.806
76565W        W77429  23.309  28.408   5.256
76566W        W77430  24.407  28.826   6.253
76567W        W77431  24.421  26.387   6.180
76568W        W77432  23.574   0.074   6.332
76569W        W77433  25.178  26.031   4.678
76570W        W77434  25.125  27.285   5.960
76571W        W77435  21.840  26.567   6.156
76572W        W77436  24.827  26.376   5.130
76573W        W77437  25.301  26.585   6.716
76574W        W77438  24.178  28.149   5.118
76575W        W77439  23.429  28.728   4.861
76576W        W77440  22.468  26.024   4.150
76577W        W77441  23.601  25.871   5.927
76578W        W77442  22.515  28.954   3.837
76579W        W77443  23.209  27.301   4.384
76580W        W77444  23.659  27.961   6.856
76581W        W77445  23.324  26.449   4.694
76582W        W77446  24.985  25.778   5.110
76583W        W77447  24.655  28.970   5.432
76584W        W77448  23.763  28.629   5.763
76585W        W77449  23.373  27.775   5.835
76586W        W77450  25.162  28.417   6.008
76587W        W77451  22.906  26.153   4.747
76588W        W77452  23.364  28.287   5.755
76589W        W77453  22.681  26.361   3.776
76590W        W77454  23.679  26.955   5.982
76591W        W77455  24.479  25.701   5.870
76592W        W77456  21.996  27.570   5.947
76593W        W77457  23.444  27.208   3.915
76594W        W77458  22.929  25.933   3.912
76595W        W77459  23.692  26.786   4.823
76596W        W77460  24.468  25.874   6.367
76597W        W77461  23.190  27.778   6.661
76598W        W77462  23.997  27.549   6.811
76599W        W77463  24.513  27.608   6.768
76600W        W77464  23.823  25.838   7.226
76601W        W77465  22.987  26.369   5.484
76602W        W77466  22.540  26.319   5.099
76603W        W77467  22.169  28.742   4.696
76604W        W77468  23.764  28.494   6.779
76605W        W77469  22.864  27.677   4.192
76606W        W77470  24.369  27.294   5.431
76607W        W77471  24.729  27.054   5.728
76608W        W77472  23.843  27.585   5.935
76609W        W77473  24.334  27.937   3.741
76610W        W77474  24.096  25.971   5.089
76611W        W77475  25.529  26.407   4.482
76612W        W77476  21.923  28.839   6.710
76613W        W77477  22.410  28.173   6.172
76614W        W77478  21.860  28.908   4.322
76615W        W77479  23.957  26.476   5.940
76616W        W77480  23.130  28.300   4.079
76617W        W77481  24.993  28.687   4.063
76618W        W77482  24.083  27.234   4.128
76619W        W77483  22.836  26.665   4.650
76620W        W77484  23.928  26.309   3.786
76621W        W77485  24.253  28.020   6.907
76622W        W77486  24.727  26.003   4.375
76623W        W77487  22.051  25.744   4.014
76624W        W77488  23.309  28.134   6.244
76625W        W77489  23.102  27.966   5.428
76626W        W77490  22.873  27.995   3.734
76627W        W77491  21.835  28.395   4.385
76628W        W77492  22.670  27.170   6.903
76629W        W77493  23.396  25.777   6.935
76630W        W77494  23.955  26.069   6.286
76631W        W77495  23.234  25.727   4.816
76632W        W77496  24.107  25.916   4.555
76633W        W77497  22.235  25.793   5.795
76634W        W77498  22.114  26.635   5.188
76635W        W77499  24.974  25.713   5.655
76636W        W77500  22.415  26.353   4.569
76637W        W77501  24.856  26.050   6.047
76638W        W77502  25.180  27.003   3.759
76639W        W77503  22.575  26.106   5.576
76640W        W77504  23.868  26.552   6.466
76641W        W77505  21.886  26.218   3.952
76642W        W77506  22.690  27.626   6.628
76643W        W77507  23.886  27.218   5.590
76644W        W77508  23.965  28.967   4.111
76645W        W77509  21.829  27.719   3.650
76646W        W77510  22.789  28.036   6.948
76647W        W77511  22.363  27.207   6.486
76648W        W77512  23.394  27.363   6.179
76649W        W77513  24.977  25.775   6.482
76650W        W77514  25.538  27.255   6.668
76651W        W77515  25.439  27.379   3.992
76652W        W77516  24.156  27.740   4.180
76653W        W77517  24.810   0.020   3.681
76654W        W77518  23.956  27.187   7.333
76655W        W77519  22.303  27.996   7.231
76656W        W77520  25.587  26.249   7.224
76657W        W77521  25.100  27.032   5.364
76658W        W77522  23.323  28.776   7.486
76659W        W77523  23.297  25.592   4.026
76660W        W77524  24.799  28.178   3.771
76661W        W77525  22.771  26.402   6.831
76662W        W77526  23.262  28.280   6.747
76663W        W77527  25.261  26.204   6.357
76664W        W77528  24.579   0.006   4.156
76665W        W77529  24.730  27.575   5.725
76666W        W77530  22.934  26.020   6.478
76667W        W77531  23.480  27.067   7.129
76668W        W77532  22.816  28.114   4.482
76669W        W77533  24.720  27.760   4.701
76670W        W77534  22.543  26.361   6.376
76671W        W77535  23.733  28.323   4.946
76672W        W77536  25.446  26.975   4.947
76673W        W77537  23.712  25.668   6.557
76674W        W77538  24.637  28.293   5.807
76675W        W77539  24.966  28.596   5.564
76676W        W77540  23.986  28.474   3.905
76677W        W77541  22.027  28.414   7.001
76678W        W77542  22.806  26.552   5.966
76679W        W77543  22.823  25.886   5.172
76680W        W77544  24.242  26.838   5.670
76681W        W77545  23.312  27.716   3.910
76682W        W77546  25.203  27.566   5.521
76683W        W77547  22.536  28.443   7.162
76684W        W77548  24.950  28.988   4.551
76685W        W77549  23.276  26.137   5.121
76686W        W77550  22.640  27.537   5.208
76687W        W77551  22.983   0.055   6.001
76688W        W77552  25.160   0.078   6.842
76689W        W77553  24.298  27.314   5.956
76690W        W77554  22.030  27.135   3.727
76691W        W77555  25.262  28.603   4.713
76692W        W77556  25.148  26.228   4.181
76693W        W77557  23.163  25.540   6.536
76694W        W77558  25.138  28.358   5.149
76695W        W77559  24.933  26.851   4.913
76696W        W77560  23.326  26.636   5.181
76697W        W77561  23.481  26.909   6.489
76698W        W77562  24.495  28.017   6.440
76699W        W77563  23.108  26.500   6.437
76700W        W77564  23.019  28.835   5.173
76701W        W77565  22.402  28.902   6.923
76702W        W77566  22.603  28.457   3.733
76703W        W77567  25.123  28.098   4.689
76704W        W77568  22.746  26.851   6.454
76705W        W77569  25.441  26.640   4.030
76706W        W77570  23.286  27.834   4.446
76707W        W77571  24.342  27.218   6.511
76708W        W77572  24.183  26.862   6.190
76709W        W77573  22.729  27.263   6.125
76710W        W77574  24.867  28.856   6.019
76711W        W77575  24.674  25.904   6.904
76712W        W77576  22.402  26.009   6.779
76713W        W77577  22.816  27.004   5.676
76714W        W77578  23.098  26.679   3.747
76715W        W77579  21.885  28.377   6.485
76716W        W77580  23.360  27.256   5.684
76717W        W77581  23.340  26.276   3.962
76718W        W77582  22.697  27.158   4.856
76719W        W77583  22.040   0.007   6.232
76720W        W77584  24.986  27.193   4.191
76721W        W77585  25.171  26.105   6.860
76722W        W77586  24.666  28.215   4.941
76723W        W77587  22.118  27.129   6.972
76724W        W77588  25.131  25.720   4.157
76725W        W77589  24.649  27.974   4.230
76726W        W77590  23.665  27.009   4.354
76727W        W77591  24.782  26.012   3.841
76728W        W77592  24.944  26.568   6.152
76729W        W77593  22.390  27.070   5.296
76730W        W77594  22.822  27.982   4.998
76731W        W77595  24.470  26.643   4.850
76732W        W77596  23.493  26.280   5.613
76733W        W77597  25.470  28.031   6.171
76734W        W77598  25.415  26.278   5.845
76735W        W77599  21.918  28.745   5.160
76736W        W77600  22.239  28.075   4.516
76737W        W77601  22.386  25.920   7.287
76738W        W77602  23.548  28.339   7.220
76739W        W77603  25.317  27.462   5.032
76740W        W77604  24.705  27.549   3.941
76741W        W77605  23.995   0.049   6.048
76742W        W77606  24.726  27.884   7.140
76743W        W77607  23.584  25.567   4.456
76744W        W77608  24.308  26.400   5.281
76745W        W77609  22.127  28.055   5.741
76746W        W77610  23.307  26.015   4.392
76747W        W77611  23.113  27.430   7.043
76748W        W77612  24.036  26.401   4.753
76749W        W77613  24.346  27.865   5.917
76750W        W77614  22.355  28.617   6.466
76751W        W77615  23.051  28.411   7.196
76752W        W77616  22.895  26.313   4.260
76753W        W77617  24.397  26.421   4.385
76754W        W77618  24.295  28.485   6.629
76755W        W77619  23.049  27.219   5.265
76756W        W77620  22.476  28.886   6.017
76757W        W77621  25.301  28.857   3.695
76758W        W77622  22.241  27.615   6.882
76759W        W77623  24.069  27.722   5.476
76760W        W77624  22.593  27.656   4.677
76761W        W77625  22.827  28.550   6.180
76762W        W77626  23.637  25.837   5.329
76763W        W77627  21.869  27.933   4.138
76764W        W77628  23.611  26.720   3.904
76765W        W77629  22.178  27.412   4.956
76766W        W77630  23.441  26.081   6.410
76767W        W77631  25.262  25.865   3.691
76768W        W77632  25.240  27.584   6.970
76769W        W77633  23.785  28.816   7.197
76770W        W77634  25.487  27.931   6.679
76771W        W77635  24.923  28.667   7.127
76772W        W77636  22.657  28.993   5.553
76773W        W77637  25.523  27.774   4.672
76774W        W77638  24.090  26.837   5.145
76775W        W77639  23.825  25.576   4.917
76776W        W77640  23.012  28.439   4.828
76777W        W77641  23.479  26.507   6.099
76778W        W77642  23.173  25.874   5.560
76779W        W77643  22.195  28.598   4.071
76780W        W77644  23.825  27.791   5.001
76781W        W77645  22.815  28.563   6.739
76782W        W77646  22.149  27.578   4.424
76783W        W77647  22.089  26.203   5.467
76784W        W77648  23.670  28.060   5.415
76785W        W77649  22.057  25.948   4.480
76786W        W77650  24.715  27.029   6.229
76787W        W77651  24.501  26.435   3.886
76788W        W77652  25.059  28.065   5.614
76789W        W77653  23.985  28.623   5.296
76790W        W77654  23.144  28.740   4.421
76791W        W77655  24.304  25.560   3.739
76792W        W77656  22.169  28.805   5.597
76793W        W77657  24.061  26.708   7.173
76794W        W77658  22.357  26.406   7.163
76795W        W77659  22.087  26.830   4.697
76796W        W77660  22.738  26.784   4.115
76797W        W77661  24.361  27.154   7.012
76798W        W77662  22.915  27.538   5.675
76799W        W77663  24.494  25.640   4.951
76800W        W77664  23.509  28.870   5.361
76801W        W77665  24.727  28.430   6.288
76802W        W77666  24.502  28.486   5.341
76803W        W77667  24.356  27.661   5.041
76804W        W77668  23.731  25.926   4.094
76805W        W77669  25.459  25.639   4.887
76806W        W77670  22.982  27.164   3.617
76807W        W77671  25.294  26.487   4.927
76808W        W77672  23.824  27.554   3.791
76809W        W77673  24.945  27.854   6.644
76810W        W77674  24.510  28.607   3.824
76811W        W77675  23.254  26.261   6.886
76812W        W77676  23.130  26.932   6.119
76813W        W77677  25.156  28.310   6.526
76814W        W77678  24.273  26.243   6.656
76815W        W77679  21.966  26.865   6.546
76816W        W77680  23.863  27.255   6.345
76817W        W77681  22.302  27.917   5.029
76818W        W77682  22.349  27.219   5.786
76819W        W77683  24.665  27.552   6.250
76820W        W77684  24.446  28.847   6.987
76821W        W77685  24.312  26.739   6.702
76822W        W77686  24.801  28.724   4.980
76823W        W77687  23.810  28.577   6.269
76824W        W77688  23.031  28.660   5.668
76825W        W77689  24.936  27.967   6.124
76826W        W77690  23.916  27.982   7.305
76827W        W77691  22.575  27.967   5.486
76828W        W77692  24.995  27.863   5.135
76829W        W77693  24.286  28.717   5.746
76830W        W77694  22.526  28.450   5.744
76831W        W77695  23.610  26.623   6.912
76832W        W77696  23.861  28.634   4.536
76833W        W77697  23.236  27.920   7.173
76834W        W77698  23.426  28.325   4.519
76835W        W77699  22.526  26.835   3.634
76836W        W77700  21.992   0.167  10.718
76837W        W77701  22.403  28.184  10.342
76838W        W77702  25.150  27.694   8.045
76839W        W77703  25.280  28.794   9.956
76840W        W77704  23.125  27.032   8.430
76841W        W77705  22.812  26.700   8.672
76842W        W77706  23.646  27.593   8.048
76843W        W77707  23.473  28.757  10.401
76844W        W77708  22.220  26.552  10.379
76845W        W77709  22.717  25.672  10.133
76846W        W77710  24.598  25.949   9.001
76847W        W77711  24.158  26.857   7.704
76848W        W77712  24.695  26.399  10.672
76849W        W77713  22.166  26.030   9.865
76850W        W77714  22.129  28.679  10.768
76851W        W77715  23.512  27.844   7.600
76852W        W77716  22.151  26.771   9.367
76853W        W77717  23.041  26.934  10.581
76854W        W77718  25.319  26.661   8.979
76855W        W77719  25.158  27.588   9.929
76856W        W77720  23.524  27.106   8.907
76857W        W77721  24.081  28.320   9.219
76858W        W77722  22.494  27.766   9.630
76859W        W77723  21.859  27.175   9.248
76860W        W77724  22.968  27.329  10.259
76861W        W77725  25.211  27.007  10.528
76862W        W77726  22.662  28.405   8.870
76863W        W77727  23.920  28.143  10.027
76864W        W77728  23.229  26.785   9.257
76865W        W77729  23.326  27.592   8.962
76866W        W77730  24.289  28.422  10.760
76867W        W77731  23.623  27.609  10.857
76868W        W77732  23.505  27.419  10.337
76869W        W77733  21.891  26.830  10.750
76870W        W77734  24.684  28.275  10.442
76871W        W77735  22.424  25.840   8.357
76872W        W77736  22.867  28.148   9.460
76873W        W77737  25.360  27.838   8.905
76874W        W77738  24.699  26.615   9.423
76875W        W77739  25.115  26.483   7.221
76876W        W77740  25.603  27.082   9.723
76877W        W77741  23.285  28.762   9.636
76878W        W77742  25.272  28.148   7.796
76879W        W77743  22.361   0.137   7.870
76880W        W77744  22.726   0.072   8.242
76881W        W77745  22.639  25.890   9.679
76882W        W77746  25.181  26.931  10.009
76883W        W77747  24.452  27.173   8.465
76884W        W77748  24.490  27.180   7.514
76885W        W77749  23.724  28.156   9.548
76886W        W77750  23.766  26.364   8.739
76887W        W77751  24.131  28.461   9.706
76888W        W77752  24.959  27.257   8.327
76889W        W77753  23.763  25.983   8.367
76890W        W77754  22.494  28.645   8.003
76891W        W77755  22.096  26.223   8.489
76892W        W77756  24.500  26.904   8.919
76893W        W77757  22.153  28.329   8.952
76894W        W77758  23.585  28.604   8.018
76895W        W77759  24.742  26.859   7.191
76896W        W77760  21.972  28.507   9.627
76897W        W77761  22.865  28.206  10.121
76898W        W77762  22.962  27.552   8.568
76899W        W77763  23.085  26.064   9.461
76900W        W77764  25.435  25.684   8.989
76901W        W77765  22.654  27.609   7.207
76902W        W77766  22.483  26.430   7.665
76903W        W77767  22.312  28.413   8.466
76904W        W77768  23.309  27.932   8.560
76905W        W77769  24.801  28.726  10.172
76906W        W77770  23.907  26.436   7.849
76907W        W77771  25.119   0.026   8.834
76908W        W77772  24.769  26.783  10.337
76909W        W77773  25.523  28.263   8.659
76910W        W77774  24.064  27.673  10.069
76911W        W77775  21.741  27.382   8.325
76912W        W77776  22.988  27.784   9.803
76913W        W77777  24.125  26.856   8.227
76914W        W77778  23.971  27.345   8.394
76915W        W77779  22.489  26.857   9.735
76916W        W77780  22.352  27.031  10.592
76917W        W77781  22.424  25.719   8.888
76918W        W77782  24.008  26.168   9.171
76919W        W77783  23.870  26.215  10.556
76920W        W77784  24.233  26.065   7.665
76921W        W77785  25.285  28.582  10.496
76922W        W77786  24.253  25.733  10.428
76923W        W77787  25.124  28.086  10.669
76924W        W77788  24.802  26.185  10.224
76925W        W77789  24.644  26.136   8.490
76926W        W77790  24.801  27.389  10.795
76927W        W77791  22.466  28.869   8.641
76928W        W77792  23.394  26.393   7.747
76929W        W77793  22.924  26.064  10.497
76930W        W77794  24.917  26.486   8.140
76931W        W77795  25.174  26.925   8.002
76932W        W77796  22.927  28.952  10.788
76933W        W77797  22.806  25.641   7.985
76934W        W77798  25.152  26.121   9.028
76935W        W77799  25.368  28.465   7.399
76936W        W77800  22.093  27.621   9.105
76937W        W77801  24.188  26.193   7.150
76938W        W77802  25.391  28.404   9.147
76939W        W77803  25.323  25.718   9.718
76940W        W77804  23.872  26.996  10.405
76941W        W77805  23.685  28.099   8.011
76942W        W77806  24.288  27.544  10.943
76943W        W77807  24.139  25.653   9.082
76944W        W77808  22.541  26.582   9.095
76945W        W77809  22.160  27.849  10.021
76946W        W77810  24.158  28.706   8.888
76947W        W77811  25.199  26.737   9.518
76948W        W77812  23.974  28.894  10.226
76949W        W77813  25.057  27.735   7.518
76950W        W77814  23.462  27.426   8.495
76951W        W77815  25.494  25.717  10.218
76952W        W77816  23.565  27.778   9.894
76953W        W77817  23.721  26.682   9.140
76954W        W77818  24.639  26.935   8.028
76955W        W77819  24.884  26.645   7.659
76956W        W77820  24.862  28.530   8.100
76957W        W77821  24.695  27.853   8.946
76958W        W77822  24.283  27.301   7.975
76959W        W77823  23.838  27.507   8.888
76960W        W77824  24.768  27.351   8.811
76961W        W77825  22.383  26.345   9.533
76962W        W77826  24.878  27.289  10.268
76963W        W77827  25.319  28.861   9.384
76964W        W77828  23.180  28.384   8.782
76965W        W77829  24.388  28.869   9.871
76966W        W77830  24.382  26.428   9.814
76967W        W77831  23.511   0.111   9.995
76968W        W77832  25.120  25.968   8.266
76969W        W77833  24.997  27.224   9.609
76970W        W77834  22.069  26.576   9.880
76971W        W77835  24.763  26.460   8.929
76972W        W77836  25.209  26.531  10.354
76973W        W77837  24.096  28.181   8.720
76974W        W77838  23.362  28.751   8.481
76975W        W77839  22.445  25.935   7.790
76976W        W77840  23.746  25.882   9.535
76977W        W77841  23.182  27.355   8.032
76978W        W77842  23.671  27.901  10.417
76979W        W77843  23.584  26.465   8.254
76980W        W77844  24.985  25.716   8.717
76981W        W77845  24.586  28.977   8.956
76982W        W77846  23.756  28.687   9.421
76983W        W77847  23.312  27.852   9.411
76984W        W77848  25.112  28.437   9.601
76985W        W77849  22.906  26.006   8.343
76986W        W77850  23.338  28.351   9.280
76987W        W77851  22.843  26.270   7.329
76988W        W77852  23.574  26.883   9.647
76989W        W77853  24.525  25.677   9.479
76990W        W77854  21.965  27.588   9.634
76991W        W77855  23.486  27.316   7.601
76992W        W77856  22.849  25.778   7.467
76993W        W77857  23.641  26.945   8.415
76994W        W77858  24.460  25.896   9.959
76995W        W77859  23.176  27.809  10.273
76996W        W77860  23.988  27.476  10.531
76997W        W77861  24.475  27.579  10.422
76998W        W77862  23.890  25.847  10.933
76999W        W77863  23.019  26.369   9.018
77000W        W77864  22.595  26.222   8.694
77001W        W77865  22.122  28.870   8.265
77002W        W77866  23.842  28.397  10.449
77003W        W77867  22.455  27.751   7.684
77004W        W77868  24.301  27.356   9.025
77005W        W77869  24.509  27.098   9.409
77006W        W77870  23.783  27.644   9.400
77007W        W77871  24.387  28.116   7.457
77008W        W77872  24.157  25.994   8.697
77009W        W77873  25.444  26.443   8.170
77010W        W77874  22.044  28.882  10.296
77011W        W77875  22.415  28.247   9.818
77012W        W77876  21.910  28.825   7.783
77013W        W77877  23.846  26.422   9.603
77014W        W77878  23.261  28.295   7.691
77015W        W77879  25.003  28.748   7.661
77016W        W77880  23.797  27.122   7.946
77017W        W77881  23.065  26.491   8.232
77018W        W77882  23.724  26.336   7.338
77019W        W77883  24.195  27.999  10.476
77020W        W77884  24.707  26.052   7.948
77021W        W77885  21.994  25.706   7.618
77022W        W77886  23.278  28.237   9.805
77023W        W77887  22.961  27.949   8.975
77024W        W77888  22.810  28.057   7.466
77025W        W77889  22.027  28.394   8.035
77026W        W77890  22.634  27.465  10.643
77027W        W77891  23.429  26.002  10.753
77028W        W77892  23.925  26.022  10.037
77029W        W77893  23.335  25.687   8.478
77030W        W77894  24.251  25.896   8.172
77031W        W77895  22.221  25.848   9.389
77032W        W77896  22.272  26.671   8.653
77033W        W77897  25.015  25.662   9.285
77034W        W77898  22.514  26.318   8.173
77035W        W77899  24.883  26.023   9.666
77036W        W77900  25.142  27.053   7.453
77037W        W77901  22.643  26.080   9.194
77038W        W77902  23.789  26.559  10.110
77039W        W77903  22.023  26.229   7.536
77040W        W77904  22.646  27.742  10.190
77041W        W77905  23.902  27.137   9.295
77042W        W77906  23.789  28.949   7.705
77043W        W77907  22.078  27.543   7.389
77044W        W77908  22.835  28.030  10.611
77045W        W77909  22.339  27.332  10.144
77046W        W77910  23.274  27.354   9.857
77047W        W77911  24.964  25.709  10.122
77048W        W77912  25.474  27.305  10.188
77049W        W77913  25.454  27.355   7.717
77050W        W77914  24.146  27.786   8.104
77051W        W77915  24.763   0.123   7.333
77052W        W77916  23.991  27.105  10.916
77053W        W77917  22.392  28.077  10.894
77054W        W77918  25.618  26.247  10.780
77055W        W77919  24.940  26.992   9.148
77056W        W77920  23.425  28.914  10.905
77057W        W77921  23.274  25.669   7.746
77058W        W77922  24.889  28.261   7.462
77059W        W77923  22.692  26.529  10.567
77060W        W77924  23.289  28.283  10.433
77061W        W77925  25.256  26.147   9.996
77062W        W77926  24.602   0.044   7.822
77063W        W77927  24.599  27.624   9.397
77064W        W77928  23.005  26.087   9.979
77065W        W77929  23.490  27.126  10.760
77066W        W77930  22.802  28.203   7.967
77067W        W77931  24.632  27.619   8.201
77068W        W77932  22.595  26.422   9.998
77069W        W77933  23.655  28.315   8.476
77070W        W77934  25.413  26.869   8.483
77071W        W77935  23.738  25.728  10.442
77072W        W77936  24.574  28.152   9.369
77073W        W77937  24.921  28.626   9.148
77074W        W77938  23.865  28.427   7.607
77075W        W77939  21.981  28.222  10.623
77076W        W77940  22.857  26.513   9.517
77077W        W77941  22.972  25.874   8.851
77078W        W77942  24.204  26.683   9.299
77079W        W77943  23.042  27.606   7.574
77080W        W77944  25.067  27.515   9.182
77081W        W77945  22.607  28.531  10.659
77082W        W77946  24.984   0.035   8.219
77083W        W77947  23.312  26.178   8.610
77084W        W77948  22.586  27.524   8.931
77085W        W77949  22.930   0.054   9.933
77086W        W77950  24.996   0.012  10.546
77087W        W77951  24.182  27.409   9.638
77088W        W77952  22.443  27.164   7.382
77089W        W77953  25.292  28.633   8.391
77090W        W77954  25.189  26.206   7.780
77091W        W77955  23.233  25.710  10.270
77092W        W77956  25.028  28.229   8.805
77093W        W77957  24.941  26.876   8.654
77094W        W77958  23.337  26.667   8.738
77095W        W77959  23.405  26.938  10.173
77096W        W77960  24.459  28.011  10.048
77097W        W77961  23.061  26.551  10.206
77098W        W77962  22.964  28.867   8.792
77099W        W77963  22.475   0.026  10.543
77100W        W77964  22.812  28.577   7.608
77101W        W77965  25.145  28.149   8.303
77102W        W77966  22.670  26.909  10.205
77103W        W77967  25.410  26.660   7.634
77104W        W77968  23.206  27.867   8.022
77105W        W77969  24.264  27.219  10.128
77106W        W77970  24.099  26.888   9.757
77107W        W77971  22.734  27.321   9.797
77108W        W77972  24.856  28.906   9.645
77109W        W77973  24.731  25.847  10.606
77110W        W77974  22.425  26.089  10.346
77111W        W77975  22.766  27.008   9.337
77112W        W77976  23.249  26.598   7.289
77113W        W77977  21.969  28.381  10.123
77114W        W77978  23.376  27.284   9.366
77115W        W77979  23.304  26.031   7.374
77116W        W77980  22.601  27.162   8.537
77117W        W77981  22.050   0.012   9.796
77118W        W77982  24.892  27.326   7.809
77119W        W77983  25.213  26.050  10.503
77120W        W77984  24.639  28.089   8.466
77121W        W77985  21.949  27.341  10.721
77122W        W77986  25.055  25.691   7.789
77123W        W77987  24.777  28.043   7.930
77124W        W77988  23.353  26.862   7.973
77125W        W77989  24.716  26.080   7.420
77126W        W77990  24.914  26.520   9.879
77127W        W77991  22.336  27.067   8.981
77128W        W77992  22.801  28.063   8.477
77129W        W77993  24.538  26.646   8.453
77130W        W77994  23.488  26.229   9.189
77131W        W77995  25.403  28.033   9.747
77132W        W77996  25.378  26.215   9.499
77133W        W77997  21.982  28.769   8.755
77134W        W77998  22.361  28.019   8.137
77135W        W77999  22.495  26.136  10.874
77136W        W78000  23.553  28.438  10.862
77137W        W78001  25.304  27.313   8.749
77138W        W78002  24.525  27.669   7.685
77139W        W78003  23.954   0.096   9.708
77140W        W78004  24.658  27.894  10.796
77141W        W78005  23.650  25.558   8.081
77142W        W78006  24.252  26.473   8.834
77143W        W78007  22.023  28.057   9.383
77144W        W78008  23.344  26.029   8.096
77145W        W78009  23.140  27.526  10.707
77146W        W78010  24.103  26.364   8.345
77147W        W78011  24.185  27.929   9.621
77148W        W78012  22.476  28.669  10.126
77149W        W78013  23.046  28.464  10.916
77150W        W78014  22.921  26.144   7.831
77151W        W78015  24.421  26.475   7.966
77152W        W78016  24.290  28.485  10.209
77153W        W78017  23.006  27.167   8.920
77154W        W78018  22.521  28.938   9.617
77155W        W78019  25.301  28.962   7.317
77156W        W78020  22.205  27.735  10.516
77157W        W78021  24.190  27.841   9.110
77158W        W78022  22.741  27.667   8.112
77159W        W78023  22.835  28.564   9.766
77160W        W78024  23.671  25.860   8.866
77161W        W78025  21.952  27.908   7.784
77162W        W78026  23.658  26.808   7.544
77163W        W78027  22.160  27.434   8.625
77164W        W78028  23.439  26.190  10.263
77165W        W78029  25.210  25.933   7.345
77166W        W78030  25.247  27.545  10.579
77167W        W78031  23.898  28.808  10.741
77168W        W78032  25.411  27.912  10.255
77169W        W78033  24.869  28.553  10.829
77170W        W78034  22.583  28.994   9.116
77171W        W78035  25.510  27.800   8.413
77172W        W78036  24.014  26.965   8.777
77173W        W78037  23.939  25.532   8.560
77174W        W78038  22.819  28.579   8.395
77175W        W78039  23.335  26.437   9.761
77176W        W78040  23.361  25.696   9.244
77177W        W78041  22.382  28.273   7.664
77178W        W78042  23.804  27.826   8.490
77179W        W78043  22.963  28.694  10.315
77180W        W78044  22.213  27.524   8.110
77181W        W78045  22.179  26.180   8.995
77182W        W78046  23.665  28.003   9.005
77183W        W78047  22.013  26.018   8.034
77184W        W78048  24.633  26.958   9.879
77185W        W78049  24.438  26.514   7.458
77186W        W78050  25.082  28.018   9.293
77187W        W78051  23.688  28.522   8.927
77188W        W78052  23.110  28.815   7.990
77189W        W78053  24.331  25.725   7.281
77190W        W78054  22.114  28.852   9.256
77191W        W78055  24.201  26.627  10.735
77192W        W78056  22.324  26.624  10.911
77193W        W78057  22.102  27.007   8.279
77194W        W78058  22.946  26.652   7.708
77195W        W78059  24.413  27.092  10.610
77196W        W78060  22.900  27.536   9.339
77197W        W78061  24.481  25.621   8.579
77198W        W78062  23.360  28.852   9.112
77199W        W78063  24.639  28.425   9.799
77200W        W78064  24.536  28.361   8.914
77201W        W78065  24.312  27.681   8.616
77202W        W78066  23.711  25.963   7.728
77203W        W78067  25.493  25.601   8.487
77204W        W78068  23.051  27.088   7.430
77205W        W78069  25.128  26.397   8.582
77206W        W78070  23.971  27.583   7.652
77207W        W78071  24.892  27.826  10.288
77208W        W78072  24.522  28.643   7.466
77209W        W78073  23.181  26.448  10.714
77210W        W78074  23.039  26.896   9.799
77211W        W78075  25.074  28.287  10.102
77212W        W78076  24.313  26.240  10.318
77213W        W78077  21.982  26.969  10.246
77214W        W78078  23.778  27.263   9.931
77215W        W78079  22.323  27.924   8.667
77216W        W78080  22.358  27.306   9.431
77217W        W78081  24.616  27.529   9.903
77218W        W78082  24.492  28.853  10.565
77219W        W78083  24.275  26.729  10.226
77220W        W78084  24.821  28.667   8.604
77221W        W78085  23.670  28.586   9.938
77222W        W78086  22.919  28.638   9.263
77223W        W78087  24.870  27.962   9.751
77224W        W78088  23.883  28.059  10.866
77225W        W78089  22.482  27.981   9.159
77226W        W78090  25.009  27.722   8.552
77227W        W78091  24.448  28.669   9.358
77228W        W78092  22.444  28.470   9.360
77229W        W78093  23.656  26.642  10.724
77230W        W78094  23.883  28.784   8.442
77231W        W78095  23.288  27.998  10.874
77232W        W78096  23.217  28.325   8.229
77233W        W78097  22.724  26.756   7.217
77234W        W78098  21.976   0.185  14.365
77235W        W78099  22.362  28.046  14.009
77236W        W78100  25.071  27.807  11.571
77237W        W78101  25.249  28.789  13.577
77238W        W78102  22.903  28.832  11.301
77239W        W78103  23.174  27.029  12.152
77240W        W78104  22.838  26.824  12.524
77241W        W78105  23.743  27.522  11.685
77242W        W78106  23.343  28.770  13.803
77243W        W78107  22.064  26.418  14.078
77244W        W78108  22.757  25.683  13.883
77245W        W78109  24.659  26.041  12.637
77246W        W78110  24.211  26.757  11.279
77247W        W78111  24.747  26.395  14.357
77248W        W78112  22.110  26.146  13.641
77249W        W78113  22.146  28.724  14.508
77250W        W78114  23.585  28.157  11.292
77251W        W78115  22.071  26.761  13.059
77252W        W78116  22.881  26.861  14.383
77253W        W78117  25.336  26.622  12.728
77254W        W78118  25.226  27.584  13.508
77255W        W78119  23.558  27.111  12.685
77256W        W78120  24.118  28.347  12.911
77257W        W78121  22.434  27.730  13.243
77258W        W78122  21.833  27.188  12.946
77259W        W78123  23.099  27.257  14.016
77260W        W78124  25.273  27.077  14.250
77261W        W78125  22.784  28.413  12.622
77262W        W78126  24.014  28.202  13.781
77263W        W78127  23.167  26.834  12.953
77264W        W78128  23.426  27.615  12.575
77265W        W78129  24.171  28.427  14.351
77266W        W78130  23.538  27.493  14.446
77267W        W78131  23.595  27.425  13.938
77268W        W78132  21.753  26.815  14.673
77269W        W78133  24.650  28.305  14.212
77270W        W78134  22.412  25.943  12.135
77271W        W78135  22.915  28.202  13.155
77272W        W78136  25.463  27.970  12.529
77273W        W78137  24.892  26.413  12.964
77274W        W78138  25.134  26.401  10.923
77275W        W78139  25.491  27.148  13.382
77276W        W78140  23.365  28.844  13.279
77277W        W78141  25.272  28.320  11.553
77278W        W78142  22.424  28.890  11.562
77279W        W78143  22.715  28.868  12.010
77280W        W78144  22.595  25.979  13.486
77281W        W78145  25.272  26.873  13.775
77282W        W78146  24.556  27.267  12.214
77283W        W78147  24.552  27.143  11.184
77284W        W78148  23.786  28.077  13.198
77285W        W78149  23.719  26.343  12.438
77286W        W78150  24.189  28.508  13.405
77287W        W78151  25.015  27.390  11.990
77288W        W78152  23.734  26.062  11.981
77289W        W78153  22.763  28.485  11.663
77290W        W78154  22.095  26.357  12.189
77291W        W78155  24.605  26.917  12.635
77292W        W78156  22.257  28.375  12.653
77293W        W78157  23.365  28.612  11.324
77294W        W78158  24.836  26.867  10.847
77295W        W78159  22.039  28.538  13.347
77296W        W78160  22.790  28.274  13.809
77297W        W78161  23.041  27.551  12.185
77298W        W78162  23.079  26.076  13.261
77299W        W78163  25.453  25.726  12.629
77300W        W78164  22.312  27.592  11.034
77301W        W78165  22.415  26.656  11.416
77302W        W78166  22.529  28.365  12.135
77303W        W78167  23.299  28.013  12.255
77304W        W78168  24.852  28.714  13.942
77305W        W78169  23.842  26.487  11.605
77306W        W78170  25.127  28.969  12.554
77307W        W78171  24.814  26.854  14.082
77308W        W78172  25.544  28.274  12.079
77309W        W78173  24.115  27.703  13.724
77310W        W78174  21.857  27.426  11.815
77311W        W78175  22.871  27.847  13.514
77312W        W78176  24.206  26.918  11.774
77313W        W78177  24.074  27.350  12.031
77314W        W78178  22.476  26.872  13.426
77315W        W78179  22.394  26.802  14.218
77316W        W78180  22.368  25.804  12.655
77317W        W78181  24.019  26.202  12.837
77318W        W78182  23.879  26.172  14.248
77319W        W78183  24.322  26.072  11.322
77320W        W78184  25.342  28.607  14.093
77321W        W78185  24.190  25.754  14.165
77322W        W78186  25.143  28.146  14.230
77323W        W78187  24.798  26.375  13.821
77324W        W78188  24.558  26.212  12.138
77325W        W78189  24.810  27.305  14.374
77326W        W78190  22.461  28.780  12.434
77327W        W78191  23.338  26.712  11.558
77328W        W78192  23.029  26.014  14.172
77329W        W78193  24.914  26.489  11.895
77330W        W78194  25.222  26.896  11.779
77331W        W78195  22.969  28.968  14.407
77332W        W78196  22.978  25.810  11.523
77333W        W78197  25.185  26.152  12.590
77334W        W78198  25.351  28.377  11.025
77335W        W78199  22.150  27.626  12.780
77336W        W78200  24.314  26.109  10.812
77337W        W78201  25.434  28.429  12.795
77338W        W78202  25.310  25.755  13.380
77339W        W78203  23.832  27.046  14.230
77340W        W78204  23.801  28.034  11.736
77341W        W78205  24.383  27.562  14.564
77342W        W78206  24.249  25.739  12.707
77343W        W78207  22.539  26.652  12.886
77344W        W78208  22.155  27.684  13.678
77345W        W78209  24.138  28.592  12.068
77346W        W78210  25.247  26.655  13.299
77347W        W78211  23.946  28.885  13.701
77348W        W78212  25.119  27.704  11.061
77349W        W78213  23.545  27.375  12.133
77350W        W78214  25.464  25.769  13.879
77351W        W78215  23.623  27.844  13.627
77352W        W78216  23.876  26.701  12.755
77353W        W78217  24.707  26.856  11.603
77354W        W78218  25.108  26.797  11.274
77355W        W78219  24.717  28.586  11.770
77356W        W78220  24.586  28.122  12.604
77357W        W78221  24.532  27.324  11.699
77358W        W78222  23.924  27.445  12.526
77359W        W78223  24.935  27.326  12.569
77360W        W78224  22.351  26.400  13.284
77361W        W78225  24.985  27.315  13.887
77362W        W78226  25.304  28.865  13.037
77363W        W78227  23.314  28.431  12.557
77364W        W78228  24.438  29.000  13.532
77365W        W78229  24.332  26.377  13.530
77366W        W78230  23.544   0.202  13.585
77367W        W78231  25.146  26.026  11.961
77368W        W78232  24.990  27.120  13.421
77369W        W78233  22.005  26.665  13.579
77370W        W78234  24.839  26.499  12.457
77371W        W78235  25.266  26.571  14.189
77372W        W78236  24.095  28.190  12.414
77373W        W78237  23.447  28.794  12.218
77374W        W78238  22.559  26.126  11.389
77375W        W78239  23.825  25.757  13.015
77376W        W78240  22.468  28.956  11.049
77377W        W78241  23.264  27.267  11.671
77378W        W78242  23.723  27.950  14.129
77379W        W78243  23.480  26.511  12.002
77380W        W78244  24.988  25.730  12.364
77381W        W78245  24.624   0.055  12.650
77382W        W78246  23.838  28.752  13.081
77383W        W78247  23.321  27.845  13.194
77384W        W78248  25.124  28.428  13.216
77385W        W78249  22.878  26.075  11.958
77386W        W78250  23.394  28.380  13.060
77387W        W78251  22.797  26.520  11.085
77388W        W78252  23.620  26.902  13.195
77389W        W78253  24.544  25.676  13.164
77390W        W78254  21.882  27.632  13.220
77391W        W78255  23.596  27.276  11.254
77392W        W78256  23.001  26.061  11.050
77393W        W78257  23.716  26.898  12.226
77394W        W78258  24.453  25.878  13.686
77395W        W78259  23.210  27.809  13.968
77396W        W78260  24.014  27.524  14.213
77397W        W78261  24.507  27.509  14.007
77398W        W78262  23.908  25.810  14.597
77399W        W78263  22.997  26.380  12.760
77400W        W78264  22.556  26.384  12.429
77401W        W78265  22.162  28.825  12.008
77402W        W78266  23.763  28.572  14.063
77403W        W78267  22.876  27.611  11.564
77404W        W78268  24.415  27.397  12.708
77405W        W78269  24.546  27.128  13.139
77406W        W78270  23.735  27.590  12.990
77407W        W78271  24.317  28.051  11.156
77408W        W78272  24.116  26.047  12.331
77409W        W78273  25.454  26.415  11.771
77410W        W78274  22.117  28.892  13.962
77411W        W78275  22.371  28.158  13.506
77412W        W78276  21.796  28.852  11.623
77413W        W78277  23.883  26.460  13.274
77414W        W78278  23.047  28.160  11.342
77415W        W78279  25.001  28.706  11.362
77416W        W78280  24.099  27.271  11.405
77417W        W78281  22.963  26.558  12.096
77418W        W78282  23.936  26.346  11.081
77419W        W78283  24.278  27.953  14.169
77420W        W78284  24.717  26.035  11.674
77421W        W78285  22.175  25.810  11.221
77422W        W78286  23.250  28.205  13.566
77423W        W78287  23.121  27.993  12.743
77424W        W78288  22.825  27.769  11.062
77425W        W78289  22.246  28.385  11.704
77426W        W78290  22.603  27.263  14.264
77427W        W78291  23.425  26.001  14.526
77428W        W78292  23.931  25.960  13.756
77429W        W78293  23.282  25.784  12.044
77430W        W78294  24.215  25.976  11.823
77431W        W78295  22.172  25.934  13.167
77432W        W78296  22.095  26.741  12.523
77433W        W78297  25.030  25.770  12.934
77434W        W78298  22.496  26.409  11.870
77435W        W78299  24.851  26.063  13.360
77436W        W78300  25.267  27.207  10.995
77437W        W78301  22.622  26.120  12.969
77438W        W78302  23.882  26.484  13.805
77439W        W78303  22.077  26.303  11.235
77440W        W78304  22.696  27.654  13.956
77441W        W78305  24.030  27.137  12.948
77442W        W78306  23.780  28.932  11.298
77443W        W78307  21.863  27.825  10.898
77444W        W78308  22.857  28.078  14.269
77445W        W78309  22.318  27.210  13.827
77446W        W78310  23.236  27.481  13.566
77447W        W78311  24.946  25.710  13.755
77448W        W78312  25.523  27.345  13.881
77449W        W78313  25.477  27.456  11.396
77450W        W78314  24.230  27.739  11.666
77451W        W78315  24.748   0.028  11.005
77452W        W78316  23.953  27.281  14.667
77453W        W78317  22.423  28.021  14.543
77454W        W78318  25.623  26.222  14.439
77455W        W78319  24.995  26.936  12.947
77456W        W78320  23.452  28.827  14.523
77457W        W78321  23.410  25.789  11.235
77458W        W78322  24.906  28.162  11.180
77459W        W78323  22.701  26.397  14.232
77460W        W78324  23.307  28.313  14.077
77461W        W78325  25.265  26.228  13.620
77462W        W78326  24.561   0.001  11.491
77463W        W78327  24.608  27.775  13.003
77464W        W78328  22.954  26.290  13.739
77465W        W78329  23.355  27.018  14.411
77466W        W78330  22.895  28.035  11.857
77467W        W78331  24.674  27.757  11.944
77468W        W78332  22.477  26.485  13.775
77469W        W78333  23.674  28.339  12.149
77470W        W78334  25.472  26.990  12.344
77471W        W78335  23.620  25.747  14.126
77472W        W78336  24.604  28.290  13.084
77473W        W78337  24.864  28.606  12.793
77474W        W78338  23.984  28.478  11.172
77475W        W78339  22.013  28.247  14.358
77476W        W78340  22.863  26.547  13.282
77477W        W78341  22.825  25.954  12.491
77478W        W78342  24.340  26.645  13.020
77479W        W78343  23.339  27.715  11.307
77480W        W78344  25.005  27.468  13.054
77481W        W78345  22.473  28.519  14.168
77482W        W78346  24.921   0.069  11.880
77483W        W78347  23.248  26.188  12.339
77484W        W78348  22.626  27.557  12.560
77485W        W78349  23.010   0.123  13.533
77486W        W78350  25.135   0.065  14.192
77487W        W78351  24.207  27.504  13.244
77488W        W78352  22.194  27.089  11.112
77489W        W78353  25.218  28.657  11.955
77490W        W78354  25.073  26.307  11.436
77491W        W78355  23.230  25.833  13.713
77492W        W78356  25.114  28.348  12.409
77493W        W78357  24.974  26.937  12.232
77494W        W78358  23.336  26.676  12.494
77495W        W78359  23.615  26.931  13.739
77496W        W78360  24.542  28.135  13.731
77497W        W78361  23.197  26.706  13.969
77498W        W78362  22.999  28.862  12.469
77499W        W78363  22.481   0.044  14.273
77500W        W78364  22.574  28.461  11.181
77501W        W78365  24.997  28.169  11.949
77502W        W78366  22.748  26.920  13.860
77503W        W78367  25.598  26.756  11.421
77504W        W78368  23.331  27.773  11.813
77505W        W78369  24.079  27.204  13.821
77506W        W78370  24.122  26.899  13.419
77507W        W78371  22.721  27.344  13.515
77508W        W78372  24.841  28.994  13.201
77509W        W78373  24.692  25.861  14.258
77510W        W78374  22.400  26.015  14.041
77511W        W78375  22.756  27.110  13.049
77512W        W78376  23.214  26.820  11.067
77513W        W78377  22.022  28.401  13.849
77514W        W78378  23.304  27.315  13.090
77515W        W78379  23.425  26.340  11.176
77516W        W78380  22.652  27.184  12.206
77517W        W78381  22.097   0.036  13.461
77518W        W78382  24.993  27.286  11.453
77519W        W78383  25.141  26.083  14.123
77520W        W78384  24.517  28.237  12.112
77521W        W78385  22.083  27.170  14.452
77522W        W78386  25.144  25.786  11.455
77523W        W78387  24.602  28.116  11.588
77524W        W78388  23.716  27.012  11.715
77525W        W78389  24.780  26.030  11.099
77526W        W78390  24.725  26.681  13.387
77527W        W78391  22.365  27.133  12.700
77528W        W78392  22.798  27.986  12.350
77529W        W78393  24.518  26.741  12.123
77530W        W78394  23.485  26.425  12.945
77531W        W78395  25.457  28.061  13.361
77532W        W78396  25.356  26.186  13.095
77533W        W78397  21.942  28.776  12.489
77534W        W78398  22.554  28.022  11.456
77535W        W78399  22.408  26.114  14.555
77536W        W78400  23.677  28.347  14.520
77537W        W78401  25.394  27.483  12.387
77538W        W78402  24.645  27.664  11.302
77539W        W78403  24.020   0.191  13.297
77540W        W78404  24.773  27.817  14.368
77541W        W78405  23.598  25.606  11.700
77542W        W78406  24.315  26.487  12.525
77543W        W78407  22.101  28.085  13.056
77544W        W78408  23.358  26.136  11.649
77545W        W78409  22.998  27.586  14.404
77546W        W78410  24.052  26.502  12.075
77547W        W78411  24.268  28.000  13.325
77548W        W78412  22.444  28.647  13.652
77549W        W78413  23.149  28.414  14.566
77550W        W78414  22.932  26.411  11.570
77551W        W78415  24.399  26.447  11.679
77552W        W78416  24.343  28.599  13.889
77553W        W78417  23.053  27.268  12.633
77554W        W78418  22.583  28.965  13.283
77555W        W78419  25.257  28.868  10.963
77556W        W78420  22.228  27.628  14.260
77557W        W78421  24.140  27.844  12.808
77558W        W78422  22.552  27.674  12.004
77559W        W78423  22.937  28.615  13.466
77560W        W78424  23.647  25.822  12.435
77561W        W78425  22.045  28.011  11.346
77562W        W78426  23.707  26.790  11.212
77563W        W78427  22.178  27.425  12.287
77564W        W78428  23.447  26.227  13.950
77565W        W78429  25.272  25.904  10.979
77566W        W78430  25.247  27.607  14.229
77567W        W78431  23.957  28.857  14.519
77568W        W78432  25.444  27.895  13.851
77569W        W78433  24.971  28.625  14.433
77570W        W78434  22.626   0.075  12.801
77571W        W78435  25.361  27.807  11.999
77572W        W78436  24.161  26.996  12.426
77573W        W78437  23.968  25.596  12.098
77574W        W78438  23.030  28.458  12.137
77575W        W78439  23.378  26.509  13.483
77576W        W78440  23.329  25.958  12.808
77577W        W78441  22.081  28.600  11.271
77578W        W78442  23.788  27.821  12.205
77579W        W78443  22.839  28.823  13.934
77580W        W78444  22.294  27.585  11.558
77581W        W78445  22.155  26.291  12.781
77582W        W78446  23.665  28.069  12.685
77583W        W78447  22.148  26.062  11.698
77584W        W78448  24.555  27.097  13.674
77585W        W78449  24.653  26.515  11.196
77586W        W78450  25.055  28.044  12.861
77587W        W78451  23.830  28.619  12.559
77588W        W78452  23.163  28.799  11.761
77589W        W78453  24.376  25.639  10.992
77590W        W78454  22.183  28.851  12.935
77591W        W78455  24.129  26.608  14.393
77592W        W78456  22.211  26.585  14.643
77593W        W78457  22.045  26.973  12.045
77594W        W78458  22.872  26.924  11.460
77595W        W78459  24.341  27.098  14.310
77596W        W78460  22.885  27.617  13.024
77597W        W78461  24.492  25.698  12.227
77598W        W78462  23.428  28.876  12.765
77599W        W78463  24.710  28.569  13.484
77600W        W78464  24.365  28.617  12.543
77601W        W78465  24.318  27.735  12.316
77602W        W78466  23.828  25.993  11.450
77603W        W78467  25.453  25.603  12.126
77604W        W78468  23.077  27.305  11.165
77605W        W78469  25.298  26.526  12.230
77606W        W78470  23.904  27.739  11.262
77607W        W78471  24.923  27.825  13.873
77608W        W78472  24.523  28.538  11.229
77609W        W78473  23.174  26.438  14.432
77610W        W78474  23.123  26.976  13.476
77611W        W78475  25.101  28.299  13.733
77612W        W78476  24.341  26.238  14.037
77613W        W78477  21.945  26.907  14.026
77614W        W78478  23.743  27.348  13.442
77615W        W78479  22.286  27.933  12.366
77616W        W78480  22.269  27.263  13.194
77617W        W78481  24.669  27.557  13.490
77618W        W78482  24.505  28.897  14.288
77619W        W78483  24.313  26.737  13.924
77620W        W78484  24.783  28.717  12.262
77621W        W78485  23.674  28.486  13.510
77622W        W78486  22.970  28.727  12.973
77623W        W78487  24.918  27.984  13.368
77624W        W78488  23.904  27.843  14.617
77625W        W78489  22.565  27.995  12.824
77626W        W78490  24.971  27.825  12.369
77627W        W78491  24.395  28.786  13.037
77628W        W78492  22.499  28.480  13.104
77629W        W78493  23.618  26.599  14.246
77630W        W78494  23.769  28.554  11.665
77631W        W78495  23.341  27.960  14.472
77632W        W78496  23.333  28.294  11.753
77633W        W78497  22.699  27.012  10.966
77634W        W78498  21.932   0.166  18.030
77635W        W78499  22.396  28.056  17.614
77636W        W78500  24.952  27.762  15.404
77637W        W78501  25.290  28.803  17.336
77638W        W78502  23.041  28.798  14.878
77639W        W78503  23.292  27.132  15.737
77640W        W78504  22.771  26.792  16.100
77641W        W78505  23.553  27.608  15.589
77642W        W78506  23.368  28.747  17.759
77643W        W78507  22.152  26.419  17.659
77644W        W78508  22.701  25.632  17.513
77645W        W78509  24.620  26.002  16.327
77646W        W78510  24.245  26.753  14.893
77647W        W78511  24.725  26.396  17.948
77648W        W78512  22.166  26.090  17.262
77649W        W78513  22.096  28.703  18.162
77650W        W78514  23.547  28.081  14.952
77651W        W78515  22.111  26.804  16.690
77652W        W78516  22.964  26.828  17.951
77653W        W78517  25.285  26.660  16.352
77654W        W78518  25.259  27.612  17.271
77655W        W78519  23.685  26.966  16.330
77656W        W78520  24.179  28.343  16.544
77657W        W78521  22.508  27.716  16.894
77658W        W78522  21.738  27.172  16.690
77659W        W78523  23.090  27.260  17.509
77660W        W78524  25.251  27.005  17.864
77661W        W78525  22.759  28.398  16.256
77662W        W78526  24.028  28.129  17.387
77663W        W78527  23.353  26.754  16.650
77664W        W78528  23.384  27.592  16.132
77665W        W78529  24.209  28.406  18.024
77666W        W78530  23.621  27.559  18.127
77667W        W78531  23.564  27.409  17.642
77668W        W78532  21.896  26.757  18.209
77669W        W78533  24.686  28.265  17.801
77670W        W78534  22.422  25.950  15.765
77671W        W78535  22.919  28.195  16.808
77672W        W78536  25.491  27.990  16.204
77673W        W78537  24.929  26.514  16.705
77674W        W78538  25.170  26.389  14.654
77675W        W78539  25.734  27.108  17.163
77676W        W78540  23.494  28.833  16.810
77677W        W78541  25.167  28.148  15.097
77678W        W78542  22.337  28.940  15.266
77679W        W78543  22.709  28.855  15.645
77680W        W78544  22.637  25.939  17.099
77681W        W78545  25.276  26.977  17.348
77682W        W78546  24.531  27.163  15.769
77683W        W78547  24.601  27.170  14.839
77684W        W78548  23.866  28.068  16.870
77685W        W78549  23.797  26.468  16.172
77686W        W78550  24.263  28.413  17.039
77687W        W78551  25.013  27.363  15.717
77688W        W78552  23.743  26.062  15.803
77689W        W78553  22.688  28.581  15.205
77690W        W78554  22.080  26.316  15.881
77691W        W78555  24.505  27.006  16.270
77692W        W78556  22.238  28.337  16.267
77693W        W78557  23.533  28.615  14.998
77694W        W78558  24.973  26.865  14.610
77695W        W78559  22.042  28.512  16.980
77696W        W78560  22.878  28.154  17.338
77697W        W78561  23.055  27.588  15.738
77698W        W78562  23.252  26.157  17.074
77699W        W78563  25.431  25.721  16.329
77700W        W78564  22.558  27.545  14.686
77701W        W78565  22.371  26.643  15.141
77702W        W78566  22.468  28.348  15.783
77703W        W78567  23.334  28.026  15.867
77704W        W78568  24.825  28.719  17.579
77705W        W78569  23.824  26.657  15.219
77706W        W78570  25.161  28.957  16.055
77707W        W78571  24.838  26.787  17.595
77708W        W78572  25.618  28.241  15.783
77709W        W78573  24.238  27.643  17.384
77710W        W78574  21.797  27.142  15.763
77711W        W78575  23.018  27.743  17.034
77712W        W78576  24.151  26.915  15.520
77713W        W78577  24.113  27.459  15.578
77714W        W78578  22.524  26.841  17.002
77715W        W78579  22.420  26.842  17.814
77716W        W78580  22.492  25.793  16.290
77717W        W78581  24.027  26.144  16.552
77718W        W78582  23.866  26.168  17.874
77719W        W78583  24.240  25.952  15.030
77720W        W78584  25.339  28.621  17.835
77721W        W78585  24.236  25.739  17.787
77722W        W78586  25.160  28.110  17.988
77723W        W78587  24.838  26.213  17.497
77724W        W78588  24.668  26.157  15.835
77725W        W78589  24.803  27.362  18.228
77726W        W78590  22.415  28.775  16.063
77727W        W78591  23.339  26.826  15.298
77728W        W78592  22.863  25.952  17.991
77729W        W78593  24.859  26.463  15.456
77730W        W78594  25.128  26.877  15.538
77731W        W78595  22.947  28.937  18.007
77732W        W78596  22.747  25.791  15.380
77733W        W78597  25.128  26.156  16.343
77734W        W78598  25.401  28.372  14.637
77735W        W78599  22.211  27.583  16.423
77736W        W78600  24.324  26.131  14.538
77737W        W78601  25.493  28.429  16.478
77738W        W78602  25.350  25.747  16.967
77739W        W78603  23.918  26.997  17.767
77740W        W78604  24.242  27.566  18.308
77741W        W78605  24.139  25.674  16.377
77742W        W78606  22.561  26.623  16.527
77743W        W78607  22.168  27.675  17.290
77744W        W78608  24.252  28.701  16.181
77745W        W78609  25.305  26.841  16.857
77746W        W78610  23.994  28.926  17.369
77747W        W78611  25.274  27.875  14.660
77748W        W78612  23.755  27.266  15.910
77749W        W78613  25.503  25.661  17.501
77750W        W78614  23.729  27.740  17.274
77751W        W78615  23.903  26.628  16.677
77752W        W78616  24.621  26.897  15.299
77753W        W78617  25.237  26.722  15.047
77754W        W78618  24.843  28.532  15.405
77755W        W78619  24.614  27.895  16.282
77756W        W78620  24.585  27.420  15.321
77757W        W78621  23.790  27.464  16.388
77758W        W78622  24.840  27.418  16.209
77759W        W78623  22.328  26.366  16.878
77760W        W78624  24.956  27.302  17.574
77761W        W78625  25.456  28.888  16.734
77762W        W78626  23.286  28.430  16.205
77763W        W78627  24.486  28.915  17.176
77764W        W78628  24.539  26.529  17.218
77765W        W78629  23.559   0.191  17.177
77766W        W78630  25.133  26.035  15.618
77767W        W78631  25.126  27.323  16.884
77768W        W78632  22.078  26.655  17.207
77769W        W78633  24.771  26.506  16.227
77770W        W78634  25.282  26.537  17.659
77771W        W78635  24.225  28.174  16.057
77772W        W78636  23.425  28.760  15.830
77773W        W78637  22.543  26.157  15.076
77774W        W78638  23.771  25.765  16.774
77775W        W78639  22.553  28.961  14.788
77776W        W78640  23.196  27.336  15.285
77777W        W78641  23.702  27.923  17.747
77778W        W78642  23.424  26.380  15.541
77779W        W78643  24.980  25.746  16.036
77780W        W78644  24.703   0.020  16.308
77781W        W78645  24.014  28.795  16.800
77782W        W78646  23.457  27.767  16.735
77783W        W78647  25.238  28.448  16.938
77784W        W78648  22.935  26.151  15.730
77785W        W78649  23.416  28.333  16.699
77786W        W78650  22.720  26.530  14.753
77787W        W78651  23.694  27.040  16.910
77788W        W78652  24.470  25.767  16.751
77789W        W78653  21.917  27.632  16.835
77790W        W78654  23.490  27.177  14.898
77791W        W78655  22.916  26.054  14.694
77792W        W78656  23.665  26.780  15.741
77793W        W78657  24.488  25.910  17.242
77794W        W78658  23.230  27.768  17.501
77795W        W78659  24.035  27.488  17.833
77796W        W78660  24.551  27.523  17.786
77797W        W78661  23.899  25.797  18.248
77798W        W78662  23.028  26.450  16.410
77799W        W78663  22.584  26.293  16.121
77800W        W78664  22.099  28.685  15.635
77801W        W78665  23.821  28.505  17.670
77802W        W78666  22.791  27.618  15.149
77803W        W78667  24.442  27.457  16.541
77804W        W78668  24.485  26.797  16.754
77805W        W78669  23.924  27.520  16.865
77806W        W78670  24.380  28.080  14.671
77807W        W78671  24.184  26.097  16.066
77808W        W78672  25.426  26.445  15.438
77809W        W78673  22.078  28.866  17.633
77810W        W78674  22.396  28.158  17.122
77811W        W78675  21.786  28.822  15.219
77812W        W78676  24.075  26.302  17.058
77813W        W78677  23.105  28.325  15.083
77814W        W78678  25.056  28.656  14.951
77815W        W78679  24.158  27.217  15.117
77816W        W78680  23.017  26.680  15.669
77817W        W78681  23.906  26.298  14.793
77818W        W78682  24.268  27.949  17.816
77819W        W78683  24.688  26.002  15.329
77820W        W78684  22.084  25.967  14.918
77821W        W78685  23.388  28.097  17.145
77822W        W78686  23.114  27.969  16.376
77823W        W78687  22.891  27.977  14.773
77824W        W78688  21.881  28.324  15.332
77825W        W78689  22.700  27.268  17.856
77826W        W78690  23.409  25.935  18.086
77827W        W78691  23.948  25.931  17.385
77828W        W78692  23.300  25.811  15.859
77829W        W78693  24.221  25.965  15.566
77830W        W78694  22.254  25.879  16.751
77831W        W78695  22.268  26.712  16.117
77832W        W78696  24.992  25.711  16.588
77833W        W78697  22.542  26.457  15.611
77834W        W78698  24.913  26.060  16.982
77835W        W78699  25.210  27.359  14.680
77836W        W78700  22.701  26.131  16.627
77837W        W78701  23.895  26.522  17.498
77838W        W78702  21.847  26.412  14.984
77839W        W78703  22.704  27.648  17.452
77840W        W78704  24.099  27.091  16.581
77841W        W78705  23.905  28.984  15.050
77842W        W78706  21.927  27.813  14.670
77843W        W78707  22.884  27.994  17.833
77844W        W78708  22.351  27.195  17.419
77845W        W78709  23.397  27.399  17.121
77846W        W78710  24.988  25.730  17.464
77847W        W78711  25.532  27.351  17.601
77848W        W78712  25.346  27.627  15.105
77849W        W78713  24.264  27.726  15.039
77850W        W78714  24.847   0.061  14.649
77851W        W78715  23.906  27.145  18.279
77852W        W78716  22.453  27.969  18.128
77853W        W78717  25.663  26.247  18.105
77854W        W78718  24.933  27.007  16.536
77855W        W78719  23.435  28.910  18.237
77856W        W78720  23.578  25.829  14.985
77857W        W78721  24.877  28.203  14.688
77858W        W78722  22.672  26.401  17.805
77859W        W78723  23.313  28.258  17.643
77860W        W78724  25.318  26.119  17.314
77861W        W78725  24.659  28.963  15.119
77862W        W78726  24.828  27.713  16.718
77863W        W78727  22.942  26.090  17.492
77864W        W78728  23.416  27.087  18.021
77865W        W78729  22.745  28.089  15.420
77866W        W78730  24.582  27.677  15.798
77867W        W78731  22.572  26.419  17.315
77868W        W78732  23.744  28.357  15.919
77869W        W78733  25.432  26.990  15.956
77870W        W78734  23.718  25.688  17.767
77871W        W78735  24.635  28.197  16.743
77872W        W78736  25.044  28.675  16.489
77873W        W78737  24.039  28.475  14.871
77874W        W78738  22.025  28.218  17.981
77875W        W78739  22.914  26.516  16.920
77876W        W78740  22.976  25.972  16.229
77877W        W78741  24.486  26.277  16.753
77878W        W78742  23.267  27.643  14.871
77879W        W78743  25.262  27.630  16.473
77880W        W78744  22.453  28.511  17.840
77881W        W78745  24.997   0.022  15.537
77882W        W78746  23.344  26.276  16.048
77883W        W78747  22.667  27.542  16.128
77884W        W78748  23.065   0.070  17.012
77885W        W78749  25.077   0.064  17.838
77886W        W78750  24.352  27.267  17.000
77887W        W78751  22.142  27.362  14.940
77888W        W78752  25.343  28.657  15.614
77889W        W78753  25.124  26.188  15.116
77890W        W78754  23.213  25.683  17.647
77891W        W78755  25.160  28.412  16.054
77892W        W78756  24.934  26.936  16.011
77893W        W78757  23.288  26.771  16.105
77894W        W78758  23.524  26.930  17.447
77895W        W78759  24.542  28.064  17.344
77896W        W78760  23.167  26.548  17.432
77897W        W78761  22.963  28.825  16.094
77898W        W78762  22.445   0.026  17.940
77899W        W78763  22.648  28.470  14.674
77900W        W78764  25.158  28.177  15.600
77901W        W78765  22.772  26.875  17.450
77902W        W78766  25.549  27.147  14.981
77903W        W78767  23.212  27.882  15.329
77904W        W78768  24.426  27.143  17.481
77905W        W78769  24.116  26.818  17.132
77906W        W78770  22.770  27.288  17.076
77907W        W78771  24.964  28.913  16.927
77908W        W78772  24.729  25.874  17.905
77909W        W78773  22.377  25.960  17.744
77910W        W78774  22.895  26.993  16.639
77911W        W78775  23.178  26.758  14.825
77912W        W78776  22.003  28.375  17.482
77913W        W78777  23.348  27.275  16.605
77914W        W78778  23.430  26.339  14.994
77915W        W78779  22.759  27.154  15.725
77916W        W78780  22.089   0.006  17.138
77917W        W78781  25.031  27.215  15.152
77918W        W78782  25.230  26.072  17.828
77919W        W78783  24.698  28.195  15.816
77920W        W78784  22.110  27.189  18.043
77921W        W78785  25.137  25.687  15.057
77922W        W78786  24.640  28.101  15.143
77923W        W78787  23.711  27.164  15.384
77924W        W78788  24.754  26.008  14.795
77925W        W78789  25.064  26.541  17.187
77926W        W78790  22.459  27.125  16.387
77927W        W78791  22.812  27.994  15.942
77928W        W78792  24.516  26.655  15.804
77929W        W78793  23.521  26.280  16.591
77930W        W78794  25.524  28.029  17.107
77931W        W78795  25.376  26.279  16.816
77932W        W78796  21.892  28.699  16.107
77933W        W78797  22.205  27.970  15.502
77934W        W78798  22.416  25.976  18.272
77935W        W78799  23.592  28.424  18.129
77936W        W78800  25.446  27.492  16.010
77937W        W78801  24.822  27.669  14.882
77938W        W78802  24.142   0.261  16.978
77939W        W78803  24.716  27.859  18.117
77940W        W78804  23.643  25.675  15.479
77941W        W78805  24.283  26.538  16.336
77942W        W78806  22.145  28.065  16.691
77943W        W78807  23.232  25.963  15.340
77944W        W78808  23.138  27.536  17.945
77945W        W78809  24.050  26.449  15.706
77946W        W78810  24.341  27.824  16.919
77947W        W78811  22.433  28.624  17.336
77948W        W78812  23.064  28.437  18.074
77949W        W78813  22.968  26.414  15.227
77950W        W78814  24.346  26.420  15.290
77951W        W78815  24.334  28.538  17.529
77952W        W78816  23.045  27.214  16.186
77953W        W78817  22.569  28.932  16.958
77954W        W78818  25.371  28.885  14.618
77955W        W78819  22.308  27.590  17.790
77956W        W78820  24.116  27.843  16.449
77957W        W78821  22.562  27.633  15.629
77958W        W78822  23.167  28.563  17.130
77959W        W78823  23.633  25.882  16.273
77960W        W78824  21.789  27.809  15.203
77961W        W78825  23.736  26.779  14.712
77962W        W78826  22.230  27.356  15.948
77963W        W78827  23.476  26.132  17.547
77964W        W78828  25.239  25.894  14.596
77965W        W78829  25.218  27.553  17.970
77966W        W78830  23.924  28.837  18.075
77967W        W78831  25.488  27.903  17.631
77968W        W78832  24.909  28.616  18.095
77969W        W78833  22.628  28.998  16.469
77970W        W78834  25.481  27.772  15.581
77971W        W78835  24.087  26.892  16.021
77972W        W78836  23.941  25.590  15.909
77973W        W78837  23.007  28.433  15.740
77974W        W78838  23.580  26.556  17.082
77975W        W78839  23.231  25.868  16.654
77976W        W78840  22.199  28.544  14.979
77977W        W78841  23.868  27.784  15.963
77978W        W78842  22.896  28.632  17.582
77979W        W78843  22.110  27.441  15.451
77980W        W78844  22.133  26.287  16.408
77981W        W78845  23.647  28.052  16.338
77982W        W78846  22.132  26.228  15.383
77983W        W78847  24.799  26.999  17.118
77984W        W78848  24.737  26.517  14.937
77985W        W78849  25.070  28.124  16.486
77986W        W78850  23.758  28.594  16.387
77987W        W78851  23.183  28.780  15.374
77988W        W78852  24.376  25.623  14.652
77989W        W78853  22.145  28.813  16.547
77990W        W78854  24.066  26.649  18.119
77991W        W78855  22.312  26.475  18.162
77992W        W78856  22.125  26.767  15.614
77993W        W78857  22.830  26.926  15.195
77994W        W78858  24.359  27.110  18.033
77995W        W78859  22.887  27.522  16.590
77996W        W78860  24.470  25.677  15.919
77997W        W78861  23.393  28.947  16.322
77998W        W78862  24.766  28.484  17.140
77999W        W78863  24.662  28.412  16.280
78000W        W78864  24.219  27.416  16.093
78001W        W78865  23.827  26.152  15.298
78002W        W78866  25.471  25.672  15.812
78003W        W78867  22.975  27.227  14.776
78004W        W78868  25.165  26.478  15.889
78005W        W78869  23.752  27.592  15.074
78006W        W78870  24.933  27.832  17.613
78007W        W78871  24.535  28.609  14.724
78008W        W78872  23.166  26.352  17.923
78009W        W78873  23.161  26.943  17.085
78010W        W78874  25.129  28.300  17.486
78011W        W78875  24.323  26.215  17.605
78012W        W78876  21.949  26.887  17.645
78013W        W78877  23.923  27.253  17.318
78014W        W78878  22.294  27.889  16.007
78015W        W78879  22.272  27.264  16.866
78016W        W78880  24.723  27.566  17.205
78017W        W78881  24.466  28.853  17.933
78018W        W78882  24.349  26.700  17.704
78019W        W78883  24.715  28.738  15.875
78020W        W78884  23.729  28.502  17.144
78021W        W78885  23.020  28.689  16.619
78022W        W78886  24.993  28.013  17.087
78023W        W78887  23.907  27.992  18.206
78024W        W78888  22.590  27.956  16.443
78025W        W78889  25.053  27.840  15.982
78026W        W78890  24.528  28.721  16.690
78027W        W78891  22.500  28.475  16.705
78028W        W78892  23.593  26.614  17.904
78029W        W78893  23.825  28.689  15.478
78030W        W78894  23.334  27.987  18.123
78031W        W78895  23.452  28.335  15.464
78032W        W78896  22.502  27.010  14.734
78033W        W78897  21.978   0.128  21.623
78034W        W78898  22.384  28.046  21.147
78035W        W78899  25.054  27.741  18.963
78036W        W78900  25.270  28.816  20.934
78037W        W78901  23.000  28.760  18.493
78038W        W78902  23.084  27.029  19.385
78039W        W78903  22.739  26.924  19.779
78040W        W78904  23.562  27.427  19.016
78041W        W78905  23.419  28.758  21.387
78042W        W78906  22.000  26.362  21.317
78043W        W78907  22.656  25.640  21.085
78044W        W78908  24.470  26.009  19.924
78045W        W78909  24.055  26.751  18.627
78046W        W78910  24.679  26.351  21.650
78047W        W78911  22.101  26.037  20.848
78048W        W78912  22.133  28.645  21.740
78049W        W78913  23.570  28.112  18.581
78050W        W78914  22.096  26.774  20.358
78051W        W78915  23.006  26.819  21.615
78052W        W78916  25.272  26.653  19.997
78053W        W78917  25.228  27.578  20.863
78054W        W78918  23.600  26.990  19.917
78055W        W78919  24.109  28.280  20.220
78056W        W78920  22.545  27.705  20.424
78057W        W78921  21.814  27.179  20.230
78058W        W78922  23.046  27.235  21.303
78059W        W78923  25.168  26.999  21.532
78060W        W78924  22.846  28.301  19.929
78061W        W78925  23.938  28.130  21.027
78062W        W78926  23.394  26.692  20.271
78063W        W78927  23.434  27.547  19.995
78064W        W78928  24.236  28.387  21.733
78065W        W78929  23.558  27.586  21.796
78066W        W78930  23.560  27.409  21.275
78067W        W78931  21.833  26.717  21.761
78068W        W78932  24.665  28.201  21.457
78069W        W78933  22.404  25.816  19.298
78070W        W78934  22.858  28.128  20.456
78071W        W78935  25.479  27.893  20.003
78072W        W78936  24.897  26.368  20.291
78073W        W78937  25.163  26.472  18.229
78074W        W78938  25.501  27.128  20.719
78075W        W78939  23.390  28.742  20.553
78076W        W78940  25.180  28.236  18.800
78077W        W78941  22.337  28.929  18.939
78078W        W78942  22.704  28.820  19.310
78079W        W78943  22.587  25.925  20.674
78080W        W78944  25.165  26.848  21.009
78081W        W78945  24.452  27.173  19.475
78082W        W78946  24.494  27.075  18.550
78083W        W78947  23.732  28.167  20.545
78084W        W78948  23.663  26.411  19.781
78085W        W78949  24.185  28.419  20.717
78086W        W78950  24.954  27.331  19.295
78087W        W78951  23.671  26.048  19.250
78088W        W78952  22.673  28.544  18.842
78089W        W78953  22.039  26.127  19.492
78090W        W78954  24.499  26.863  19.886
78091W        W78955  22.196  28.394  20.012
78092W        W78956  23.465  28.598  18.639
78093W        W78957  24.801  26.860  18.124
78094W        W78958  21.971  28.476  20.505
78095W        W78959  22.856  28.237  21.067
78096W        W78960  23.017  27.433  19.699
78097W        W78961  23.022  26.105  20.468
78098W        W78962  25.293  25.624  20.015
78099W        W78963  22.469  27.457  18.292
78100W        W78964  22.393  26.578  18.657
78101W        W78965  22.432  28.270  19.551
78102W        W78966  23.272  28.016  19.748
78103W        W78967  24.835  28.714  21.215
78104W        W78968  23.678  26.432  18.874
78105W        W78969  25.125  28.878  19.874
78106W        W78970  24.734  26.795  21.318
78107W        W78971  25.475  28.233  19.617
78108W        W78972  24.057  27.655  21.037
78109W        W78973  22.055  27.182  19.424
78110W        W78974  22.875  27.765  20.828
78111W        W78975  24.136  26.914  19.122
78112W        W78976  23.987  27.374  19.304
78113W        W78977  22.400  26.836  20.778
78114W        W78978  22.292  26.802  21.511
78115W        W78979  22.280  25.753  19.818
78116W        W78980  23.988  26.124  20.131
78117W        W78981  23.799  26.150  21.526
78118W        W78982  24.250  26.104  18.612
78119W        W78983  25.336  28.586  21.438
78120W        W78984  24.140  25.732  21.451
78121W        W78985  25.138  28.072  21.609
78122W        W78986  24.748  26.226  21.165
78123W        W78987  24.604  26.135  19.420
78124W        W78988  24.741  27.255  21.630
78125W        W78989  22.513  28.736  19.797
78126W        W78990  23.227  26.676  19.014
78127W        W78991  22.820  25.938  21.502
78128W        W78992  24.880  26.483  19.135
78129W        W78993  25.168  26.897  19.069
78130W        W78994  22.962  28.990  21.687
78131W        W78995  22.976  25.628  18.921
78132W        W78996  25.208  26.126  19.913
78133W        W78997  25.359  28.412  18.344
78134W        W78998  22.161  27.546  20.085
78135W        W78999  24.307  26.153  18.114
78136W        W79000  25.411  28.416  20.125
78137W        W79001  25.213  25.814  20.624
78138W        W79002  23.843  26.979  21.373
78139W        W79003  23.732  27.902  19.067
78140W        W79004  24.340  27.407  21.956
78141W        W79005  24.061  25.642  19.956
78142W        W79006  22.438  26.600  20.026
78143W        W79007  22.343  27.607  20.883
78144W        W79008  24.188  28.636  19.556
78145W        W79009  25.181  26.768  20.492
78146W        W79010  23.976  28.869  21.204
78147W        W79011  25.126  27.795  18.446
78148W        W79012  23.503  27.310  19.522
78149W        W79013  25.421  25.724  21.107
78150W        W79014  23.574  27.792  20.888
78151W        W79015  23.908  26.637  20.185
78152W        W79016  24.654  26.942  19.044
78153W        W79017  24.906  26.731  18.641
78154W        W79018  24.808  28.557  19.075
78155W        W79019  24.613  27.969  19.893
78156W        W79020  24.496  27.423  19.027
78157W        W79021  23.922  27.387  19.855
78158W        W79022  24.759  27.470  19.768
78159W        W79023  22.359  26.361  20.500
78160W        W79024  24.942  27.285  21.171
78161W        W79025  25.315  28.847  20.388
78162W        W79026  23.292  28.542  19.777
78163W        W79027  24.420  28.862  20.907
78164W        W79028  24.328  26.319  20.821
78165W        W79029  23.555   0.051  20.962
78166W        W79030  25.120  26.025  19.245
78167W        W79031  24.991  27.246  20.543
78168W        W79032  21.997  26.537  20.829
78169W        W79033  24.774  26.436  19.801
78170W        W79034  25.158  26.512  21.408
78171W        W79035  24.110  28.138  19.717
78172W        W79036  22.438  26.033  18.793
78173W        W79037  23.758  25.740  20.366
78174W        W79038  22.519  28.936  18.447
78175W        W79039  23.115  27.197  18.894
78176W        W79040  23.673  27.887  21.386
78177W        W79041  23.281  26.330  19.401
78178W        W79042  24.903  25.750  19.663
78179W        W79043  24.615  28.965  19.997
78180W        W79044  23.874  28.700  20.415
78181W        W79045  23.307  27.805  20.447
78182W        W79046  25.164  28.412  20.610
78183W        W79047  22.846  26.062  19.245
78184W        W79048  23.311  28.293  20.237
78185W        W79049  22.797  26.416  18.305
78186W        W79050  23.687  26.818  20.660
78187W        W79051  24.338  25.792  20.392
78188W        W79052  21.937  27.583  20.581
78189W        W79053  23.456  27.255  18.520
78190W        W79054  22.892  25.959  18.522
78191W        W79055  23.569  26.794  19.403
78192W        W79056  24.404  25.850  21.020
78193W        W79057  23.171  27.767  21.257
78194W        W79058  24.011  27.473  21.532
78195W        W79059  24.479  27.555  21.317
78196W        W79060  23.828  25.774  21.890
78197W        W79061  22.926  26.534  20.180
78198W        W79062  22.518  26.256  19.637
78199W        W79063  22.167  28.722  19.380
78200W        W79064  23.819  28.408  21.431
78201W        W79065  22.730  27.526  18.736
78202W        W79066  24.392  27.308  20.096
78203W        W79067  24.658  26.854  20.374
78204W        W79068  23.795  27.630  20.418
78205W        W79069  24.359  28.089  18.426
78206W        W79070  24.018  26.036  19.621
78207W        W79071  25.465  26.443  19.092
78208W        W79072  22.122  28.801  21.214
78209W        W79073  22.231  28.055  20.639
78210W        W79074  21.804  28.846  18.971
78211W        W79075  23.864  26.333  20.598
78212W        W79076  23.059  28.241  18.575
78213W        W79077  24.995  28.708  18.629
78214W        W79078  24.060  27.275  18.768
78215W        W79079  22.826  26.582  19.364
78216W        W79080  23.811  26.293  18.375
78217W        W79081  24.190  27.963  21.454
78218W        W79082  24.697  26.060  18.905
78219W        W79083  22.029  25.768  18.565
78220W        W79084  23.274  28.217  20.767
78221W        W79085  22.949  27.786  20.075
78222W        W79086  22.901  27.795  18.330
78223W        W79087  21.944  28.122  19.141
78224W        W79088  22.613  27.192  21.615
78225W        W79089  23.365  25.879  21.666
78226W        W79090  23.917  26.029  21.006
78227W        W79091  23.244  25.811  19.477
78228W        W79092  24.184  26.035  19.122
78229W        W79093  22.226  25.878  20.343
78230W        W79094  22.175  26.668  19.551
78231W        W79095  24.866  25.826  20.216
78232W        W79096  22.390  26.384  19.157
78233W        W79097  24.744  26.040  20.671
78234W        W79098  25.211  27.053  18.359
78235W        W79099  22.623  26.126  20.126
78236W        W79100  23.773  26.520  21.086
78237W        W79101  21.995  26.277  18.555
78238W        W79102  22.663  27.590  21.284
78239W        W79103  23.942  27.127  20.302
78240W        W79104  23.845  28.953  18.609
78241W        W79105  21.977  27.716  18.167
78242W        W79106  22.786  28.029  21.532
78243W        W79107  22.288  27.186  21.158
78244W        W79108  23.251  27.397  20.862
78245W        W79109  24.901  25.724  21.071
78246W        W79110  25.461  27.300  21.225
78247W        W79111  25.493  27.424  18.537
78248W        W79112  24.202  27.804  18.841
78249W        W79113  24.787   0.062  18.302
78250W        W79114  23.915  27.106  21.883
78251W        W79115  22.370  27.870  21.792
78252W        W79116  25.574  26.190  21.758
78253W        W79117  24.960  27.072  20.020
78254W        W79118  23.442  28.962  21.868
78255W        W79119  23.340  25.703  18.539
78256W        W79120  24.847  28.240  18.424
78257W        W79121  22.652  26.431  21.496
78258W        W79122  23.336  28.263  21.281
78259W        W79123  25.192  26.251  20.920
78260W        W79124  24.577   0.031  18.772
78261W        W79125  24.637  27.691  20.345
78262W        W79126  22.939  26.096  20.996
78263W        W79127  23.424  27.110  21.668
78264W        W79128  22.856  27.965  19.029
78265W        W79129  24.706  27.782  19.346
78266W        W79130  22.459  26.365  21.029
78267W        W79131  23.627  28.282  19.463
78268W        W79132  25.405  26.975  19.524
78269W        W79133  23.662  25.694  21.273
78270W        W79134  24.574  28.201  20.385
78271W        W79135  24.891  28.586  20.227
78272W        W79136  23.970  28.458  18.480
78273W        W79137  22.023  28.169  21.505
78274W        W79138  22.820  26.524  20.702
78275W        W79139  22.781  25.829  19.736
78276W        W79140  24.382  26.405  20.311
78277W        W79141  23.241  27.728  18.739
78278W        W79142  25.100  27.569  20.154
78279W        W79143  22.509  28.477  21.405
78280W        W79144  24.933   0.056  19.161
78281W        W79145  23.141  26.160  19.894
78282W        W79146  22.647  27.358  20.058
78283W        W79147  23.076   0.123  20.747
78284W        W79148  25.118   0.055  21.474
78285W        W79149  24.250  27.388  20.603
78286W        W79150  22.172  27.078  18.563
78287W        W79151  25.233  28.647  19.376
78288W        W79152  25.144  26.273  18.727
78289W        W79153  23.161  25.677  21.201
78290W        W79154  24.993  28.371  19.769
78291W        W79155  24.893  26.883  19.533
78292W        W79156  23.203  26.679  19.766
78293W        W79157  23.419  26.937  21.090
78294W        W79158  24.475  28.006  21.013
78295W        W79159  23.090  26.550  21.181
78296W        W79160  22.479  28.991  21.535
78297W        W79161  22.601  28.437  18.331
78298W        W79162  25.067  28.160  19.288
78299W        W79163  22.693  26.859  21.195
78300W        W79164  25.437  26.715  18.655
78301W        W79165  23.255  27.742  19.303
78302W        W79166  24.209  27.187  21.086
78303W        W79167  24.203  26.806  20.640
78304W        W79168  22.725  27.249  20.856
78305W        W79169  24.855  28.925  20.620
78306W        W79170  24.647  25.853  21.533
78307W        W79171  22.312  25.943  21.323
78308W        W79172  22.691  26.940  20.360
78309W        W79173  23.064  26.797  18.532
78310W        W79174  21.950  28.349  21.008
78311W        W79175  23.460  27.234  20.411
78312W        W79176  23.291  26.307  18.456
78313W        W79177  22.544  27.027  19.326
78314W        W79178  22.055  28.969  20.725
78315W        W79179  24.955  27.270  18.754
78316W        W79180  25.152  26.018  21.446
78317W        W79181  24.572  28.265  19.454
78318W        W79182  21.985  27.215  21.582
78319W        W79183  25.142  25.759  18.776
78320W        W79184  24.667  28.089  18.912
78321W        W79185  23.657  26.947  18.901
78322W        W79186  24.771  26.103  18.387
78323W        W79187  24.790  26.554  20.775
78324W        W79188  22.246  27.066  19.919
78325W        W79189  22.789  27.880  19.571
78326W        W79190  24.461  26.639  19.416
78327W        W79191  23.492  26.192  20.279
78328W        W79192  25.461  28.025  20.762
78329W        W79193  25.384  26.286  20.406
78330W        W79194  21.923  28.807  19.823
78331W        W79195  22.386  27.825  19.229
78332W        W79196  22.364  25.920  21.826
78333W        W79197  23.500  28.458  21.829
78334W        W79198  25.378  27.443  19.734
78335W        W79199  24.652  27.676  18.606
78336W        W79200  24.021   0.123  20.698
78337W        W79201  24.715  27.752  21.728
78338W        W79202  23.480  25.616  19.038
78339W        W79203  24.216  26.452  19.813
78340W        W79204  21.945  27.992  20.192
78341W        W79205  23.263  26.082  18.924
78342W        W79206  23.003  27.554  21.708
78343W        W79207  23.972  26.469  19.331
78344W        W79208  24.194  27.909  20.600
78345W        W79209  22.427  28.504  20.865
78346W        W79210  23.014  28.480  21.631
78347W        W79211  22.840  26.390  18.833
78348W        W79212  24.394  26.492  18.929
78349W        W79213  24.300  28.459  21.216
78350W        W79214  23.113  27.086  20.074
78351W        W79215  22.556  28.955  20.641
78352W        W79216  25.294  28.916  18.279
78353W        W79217  22.138  27.653  21.378
78354W        W79218  24.176  27.779  20.103
78355W        W79219  22.803  27.468  19.233
78356W        W79220  22.924  28.598  20.695
78357W        W79221  23.587  25.892  19.873
78358W        W79222  21.905  27.690  18.709
78359W        W79223  23.575  26.754  18.413
78360W        W79224  22.442  27.471  19.611
78361W        W79225  23.406  26.152  21.210
78362W        W79226  25.293  25.960  18.326
78363W        W79227  25.171  27.527  21.599
78364W        W79228  23.918  28.818  21.738
78365W        W79229  25.459  27.842  21.274
78366W        W79230  24.911  28.570  21.711
78367W        W79231  22.655   0.065  20.166
78368W        W79232  25.445  27.793  19.327
78369W        W79233  24.030  26.909  19.640
78370W        W79234  23.758  25.591  19.499
78371W        W79235  22.967  28.343  19.404
78372W        W79236  23.347  26.429  20.743
78373W        W79237  23.258  25.713  20.240
78374W        W79238  22.146  28.551  18.649
78375W        W79239  23.729  27.776  19.575
78376W        W79240  22.911  28.750  21.195
78377W        W79241  22.297  27.365  18.998
78378W        W79242  22.113  26.212  19.986
78379W        W79243  23.702  28.002  20.046
78380W        W79244  21.926  25.856  19.062
78381W        W79245  24.630  27.029  20.857
78382W        W79246  24.486  26.546  18.408
78383W        W79247  25.033  28.075  20.204
78384W        W79248  23.795  28.525  19.908
78385W        W79249  23.135  28.687  19.021
78386W        W79250  24.399  25.687  18.318
78387W        W79251  22.188  28.860  20.240
78388W        W79252  24.028  26.595  21.689
78389W        W79253  22.232  26.401  21.808
78390W        W79254  22.165  26.846  19.037
78391W        W79255  22.645  27.003  18.812
78392W        W79256  24.316  27.008  21.576
78393W        W79257  22.971  27.410  20.440
78394W        W79258  24.366  25.683  19.521
78395W        W79259  23.519  28.935  20.073
78396W        W79260  24.695  28.438  20.815
78397W        W79261  24.491  28.467  19.930
78398W        W79262  24.289  27.656  19.614
78399W        W79263  23.765  25.937  18.746
78400W        W79264  25.423  25.635  19.474
78401W        W79265  22.965  27.264  18.345
78402W        W79266  25.213  26.481  19.525
78403W        W79267  23.777  27.654  18.596
78404W        W79268  24.922  27.802  21.224
78405W        W79269  24.485  28.635  18.415
78406W        W79270  23.125  26.321  21.666
78407W        W79271  23.125  26.931  20.658
78408W        W79272  25.116  28.264  21.108
78409W        W79273  24.267  26.230  21.334
78410W        W79274  21.887  26.856  21.217
78411W        W79275  23.771  27.290  20.820
78412W        W79276  22.091  27.855  19.658
78413W        W79277  22.308  27.247  20.478
78414W        W79278  24.665  27.551  20.839
78415W        W79279  24.458  28.821  21.555
78416W        W79280  24.255  26.698  21.158
78417W        W79281  24.725  28.760  19.544
78418W        W79282  23.666  28.543  20.936
78419W        W79283  23.033  28.733  20.185
78420W        W79284  24.921  27.971  20.709
78421W        W79285  23.825  28.055  21.832
78422W        W79286  22.468  27.954  19.986
78423W        W79287  25.079  27.865  19.701
78424W        W79288  24.412  28.713  20.389
78425W        W79289  22.567  28.532  20.328
78426W        W79290  23.511  26.610  21.519
78427W        W79291  23.803  28.412  18.979
78428W        W79292  23.263  28.009  21.744
78429W        W79293  23.318  28.204  19.032
78430W        W79294  22.582  26.917  18.294
78431W        W79295  22.006   0.137  25.308
78432W        W79296  22.459  28.149  24.889
78433W        W79297  25.133  27.665  22.599
78434W        W79298  25.269  28.778  24.567
78435W        W79299  23.006  28.866  22.179
78436W        W79300  23.218  26.943  23.089
78437W        W79301  22.873  26.713  23.446
78438W        W79302  23.709  27.497  22.643
78439W        W79303  23.491  28.680  25.043
78440W        W79304  22.109  26.353  24.919
78441W        W79305  22.640  25.452  24.822
78442W        W79306  24.561  25.917  23.665
78443W        W79307  24.037  26.728  22.227
78444W        W79308  24.578  26.348  25.080
78445W        W79309  22.033  26.064  24.471
78446W        W79310  22.180  28.656  25.416
78447W        W79311  23.484  28.064  22.222
78448W        W79312  22.020  26.780  23.891
78449W        W79313  22.917  26.768  25.113
78450W        W79314  25.526  26.608  23.653
78451W        W79315  25.162  27.546  24.452
78452W        W79316  23.547  27.029  23.536
78453W        W79317  24.117  28.271  23.860
78454W        W79318  22.522  27.715  24.208
78455W        W79319  21.894  27.280  23.772
78456W        W79320  22.968  27.256  24.873
78457W        W79321  25.270  27.009  25.130
78458W        W79322  22.737  28.288  23.452
78459W        W79323  23.906  28.126  24.662
78460W        W79324  23.218  26.680  23.891
78461W        W79325  23.418  27.532  23.578
78462W        W79326  24.296  28.360  25.406
78463W        W79327  23.723  27.508  25.469
78464W        W79328  23.506  27.330  24.955
78465W        W79329  21.853  26.654  25.322
78466W        W79330  24.714  28.265  25.053
78467W        W79331  22.295  25.818  23.018
78468W        W79332  22.867  28.074  24.014
78469W        W79333  25.454  27.913  23.549
78470W        W79334  25.134  26.327  23.878
78471W        W79335  25.108  26.403  21.938
78472W        W79336  25.644  27.070  24.390
78473W        W79337  23.343  28.769  24.168
78474W        W79338  25.043  28.152  22.431
78475W        W79339  22.334  28.918  22.543
78476W        W79340  22.671  28.833  22.933
78477W        W79341  22.484  25.872  24.281
78478W        W79342  25.215  26.925  24.623
78479W        W79343  24.514  27.162  23.180
78480W        W79344  24.507  26.976  22.271
78481W        W79345  23.804  28.022  24.163
78482W        W79346  23.772  26.277  23.435
78483W        W79347  24.186  28.414  24.356
78484W        W79348  24.999  27.357  23.023
78485W        W79349  23.718  26.002  22.993
78486W        W79350  22.674  28.554  22.444
78487W        W79351  21.983  26.212  23.081
78488W        W79352  24.581  26.850  23.616
78489W        W79353  22.197  28.278  23.624
78490W        W79354  23.470  28.671  22.306
78491W        W79355  24.768  26.806  21.853
78492W        W79356  22.119  28.562  24.291
78493W        W79357  22.918  28.123  24.616
78494W        W79358  23.018  27.466  23.076
78495W        W79359  22.976  25.993  24.156
78496W        W79360  25.480  25.697  23.701
78497W        W79361  22.618  27.459  22.067
78498W        W79362  22.342  26.474  22.305
78499W        W79363  22.451  28.350  23.000
78500W        W79364  23.353  27.868  23.161
78501W        W79365  24.857  28.735  24.882
78502W        W79366  23.922  26.349  22.563
78503W        W79367  25.127   0.005  23.474
78504W        W79368  24.825  26.799  25.017
78505W        W79369  25.562  28.223  23.129
78506W        W79370  24.096  27.668  24.637
78507W        W79371  22.025  27.240  22.862
78508W        W79372  23.055  27.720  24.353
78509W        W79373  24.170  26.851  22.736
78510W        W79374  24.070  27.303  22.960
78511W        W79375  22.389  26.807  24.250
78512W        W79376  22.351  26.761  25.158
78513W        W79377  22.320  25.677  23.530
78514W        W79378  24.011  26.098  23.854
78515W        W79379  23.683  26.159  25.103
78516W        W79380  24.245  26.013  22.316
78517W        W79381  25.313  28.547  25.115
78518W        W79382  24.169  25.758  24.905
78519W        W79383  25.141  28.057  25.291
78520W        W79384  24.866  26.466  24.634
78521W        W79385  24.612  26.082  23.158
78522W        W79386  24.760  27.392  25.416
78523W        W79387  22.439  28.702  23.392
78524W        W79388  23.451  26.424  22.407
78525W        W79389  22.795  25.853  25.140
78526W        W79390  24.890  26.417  22.861
78527W        W79391  25.226  26.786  22.790
78528W        W79392  22.953  28.955  25.387
78529W        W79393  22.946  25.760  22.490
78530W        W79394  25.172  26.032  23.472
78531W        W79395  25.312  28.316  22.017
78532W        W79396  22.253  27.718  23.762
78533W        W79397  24.238  26.120  21.819
78534W        W79398  25.419  28.372  23.802
78535W        W79399  25.401  25.775  24.262
78536W        W79400  23.869  26.917  24.874
78537W        W79401  23.788  28.022  22.634
78538W        W79402  24.246  27.565  25.488
78539W        W79403  24.149  25.604  23.821
78540W        W79404  22.484  26.578  23.735
78541W        W79405  22.169  27.841  24.585
78542W        W79406  24.178  28.592  23.098
78543W        W79407  25.337  26.704  24.169
78544W        W79408  23.975  28.861  24.832
78545W        W79409  25.113  27.798  22.060
78546W        W79410  23.523  27.363  23.100
78547W        W79411  25.456  25.778  24.830
78548W        W79412  23.557  27.745  24.518
78549W        W79413  23.734  26.632  23.808
78550W        W79414  24.698  26.886  22.761
78551W        W79415  24.909  26.649  22.361
78552W        W79416  24.793  28.495  22.746
78553W        W79417  24.546  27.971  23.648
78554W        W79418  24.556  27.349  22.629
78555W        W79419  23.905  27.385  23.454
78556W        W79420  24.869  27.298  23.568
78557W        W79421  22.225  26.325  24.083
78558W        W79422  24.925  27.293  24.865
78559W        W79423  25.320  28.832  24.016
78560W        W79424  23.280  28.312  23.415
78561W        W79425  24.431  28.866  24.578
78562W        W79426  24.401  26.402  24.382
78563W        W79427  23.558   0.068  24.566
78564W        W79428  25.114  25.980  22.965
78565W        W79429  25.017  27.145  24.141
78566W        W79430  21.935  26.573  24.418
78567W        W79431  24.820  26.419  23.484
78568W        W79432  25.317  26.527  24.936
78569W        W79433  24.144  28.127  23.357
78570W        W79434  23.421  28.686  23.072
78571W        W79435  22.469  25.962  22.344
78572W        W79436  23.652  25.740  24.086
78573W        W79437  22.510  28.899  22.047
78574W        W79438  23.243  27.264  22.638
78575W        W79439  23.715  27.799  25.011
78576W        W79440  23.517  26.481  22.921
78577W        W79441  24.880  25.646  23.342
78578W        W79442  24.620  28.999  23.646
78579W        W79443  23.861  28.697  24.047
78580W        W79444  23.336  27.877  23.939
78581W        W79445  25.109  28.415  24.218
78582W        W79446  22.767  25.974  22.912
78583W        W79447  23.529  28.362  23.867
78584W        W79448  22.713  26.262  21.985
78585W        W79449  23.570  26.836  24.293
78586W        W79450  24.539  25.728  24.170
78587W        W79451  21.963  27.582  24.184
78588W        W79452  23.550  27.247  22.207
78589W        W79453  22.815  25.765  21.996
78590W        W79454  23.757  26.901  23.079
78591W        W79455  24.570  25.999  24.680
78592W        W79456  23.177  27.735  24.875
78593W        W79457  24.011  27.387  25.059
78594W        W79458  24.496  27.551  25.002
78595W        W79459  23.744  25.850  25.506
78596W        W79460  22.989  26.270  23.684
78597W        W79461  22.479  26.241  23.309
78598W        W79462  22.125  28.763  22.974
78599W        W79463  23.837  28.321  25.123
78600W        W79464  22.807  27.599  22.564
78601W        W79465  24.356  27.316  23.673
78602W        W79466  24.494  27.055  24.087
78603W        W79467  23.696  27.524  24.041
78604W        W79468  24.303  27.932  21.983
78605W        W79469  24.129  25.919  23.347
78606W        W79470  25.453  26.318  22.769
78607W        W79471  22.120  28.812  24.910
78608W        W79472  22.487  28.205  24.374
78609W        W79473  21.771  28.753  22.541
78610W        W79474  23.857  26.385  24.252
78611W        W79475  23.080  28.367  22.137
78612W        W79476  25.007  28.658  22.290
78613W        W79477  24.070  27.231  22.393
78614W        W79478  23.006  26.421  23.032
78615W        W79479  23.792  26.284  22.038
78616W        W79480  24.205  27.953  25.095
78617W        W79481  24.700  25.968  22.633
78618W        W79482  21.988  25.762  22.143
78619W        W79483  23.323  28.223  24.314
78620W        W79484  22.999  27.848  23.534
78621W        W79485  22.821  27.936  22.053
78622W        W79486  21.988  28.298  22.732
78623W        W79487  22.471  27.250  25.012
78624W        W79488  23.285  25.821  25.237
78625W        W79489  23.777  25.961  24.561
78626W        W79490  23.146  25.667  23.047
78627W        W79491  24.214  26.001  22.836
78628W        W79492  22.059  25.804  24.019
78629W        W79493  22.089  26.591  23.409
78630W        W79494  25.009  25.740  23.902
78631W        W79495  22.401  26.306  22.787
78632W        W79496  24.877  26.108  24.264
78633W        W79497  25.197  26.984  22.057
78634W        W79498  22.541  26.060  23.803
78635W        W79499  23.636  26.476  24.705
78636W        W79500  21.868  26.278  22.168
78637W        W79501  22.656  27.673  24.704
78638W        W79502  23.939  27.083  23.924
78639W        W79503  23.894  28.969  22.289
78640W        W79504  21.973  27.566  21.973
78641W        W79505  22.942  28.141  25.110
78642W        W79506  22.287  27.331  24.533
78643W        W79507  23.294  27.288  24.475
78644W        W79508  24.996  25.713  24.596
78645W        W79509  25.492  27.362  24.804
78646W        W79510  25.422  27.407  22.231
78647W        W79511  24.197  27.707  22.651
78648W        W79512  24.817   0.026  21.907
78649W        W79513  23.891  27.026  25.404
78650W        W79514  22.499  28.084  25.400
78651W        W79515  25.472  26.119  25.230
78652W        W79516  25.084  26.841  23.720
78653W        W79517  23.464  28.902  25.523
78654W        W79518  23.294  25.590  22.105
78655W        W79519  24.769  28.180  21.996
78656W        W79520  22.613  26.323  25.053
78657W        W79521  23.407  28.203  24.819
78658W        W79522  25.314  26.197  24.543
78659W        W79523  24.618   0.007  22.403
78660W        W79524  24.691  27.588  23.980
78661W        W79525  22.810  25.960  24.653
78662W        W79526  23.370  27.092  25.397
78663W        W79527  22.902  28.110  22.553
78664W        W79528  24.695  27.770  22.893
78665W        W79529  22.467  26.359  24.545
78666W        W79530  23.707  28.263  23.099
78667W        W79531  25.475  26.939  23.233
78668W        W79532  23.671  25.655  24.973
78669W        W79533  24.616  28.314  24.024
78670W        W79534  24.931  28.612  23.761
78671W        W79535  23.920  28.455  22.155
78672W        W79536  22.030  28.188  25.218
78673W        W79537  22.778  26.463  24.140
78674W        W79538  22.814  25.861  23.414
78675W        W79539  24.234  26.627  23.941
78676W        W79540  23.199  27.621  22.190
78677W        W79541  25.215  27.576  23.905
78678W        W79542  22.645  28.552  25.188
78679W        W79543  24.965   0.002  22.806
78680W        W79544  23.302  26.073  23.312
78681W        W79545  22.619  27.495  23.464
78682W        W79546  22.989  28.998  24.491
78683W        W79547  25.184   0.042  25.114
78684W        W79548  24.193  27.442  24.188
78685W        W79549  22.220  27.100  22.015
78686W        W79550  25.232  28.605  22.997
78687W        W79551  25.113  26.173  22.411
78688W        W79552  23.154  25.545  24.790
78689W        W79553  25.112  28.304  23.396
78690W        W79554  24.947  26.880  23.225
78691W        W79555  23.363  26.569  23.413
78692W        W79556  23.320  26.870  24.792
78693W        W79557  24.475  28.002  24.674
78694W        W79558  22.969  26.460  24.687
78695W        W79559  22.985  28.756  23.356
78696W        W79560  22.491   0.038  25.188
78697W        W79561  22.579  28.388  21.924
78698W        W79562  25.101  28.091  22.931
78699W        W79563  22.624  26.864  24.698
78700W        W79564  25.434  26.609  22.327
78701W        W79565  23.292  27.793  22.666
78702W        W79566  24.291  27.199  24.678
78703W        W79567  24.084  26.841  24.380
78704W        W79568  22.768  27.272  24.368
78705W        W79569  24.849  28.895  24.246
78706W        W79570  24.610  25.850  25.194
78707W        W79571  22.321  25.868  24.880
78708W        W79572  22.780  26.973  23.915
78709W        W79573  23.071  26.611  22.105
78710W        W79574  21.962  28.322  24.717
78711W        W79575  23.318  27.172  23.977
78712W        W79576  23.193  26.090  22.132
78713W        W79577  22.676  27.080  23.139
78714W        W79578  22.090   0.050  24.448
78715W        W79579  25.039  27.165  22.516
78716W        W79580  25.022  26.086  24.972
78717W        W79581  24.643  28.208  23.188
78718W        W79582  21.990  27.237  25.226
78719W        W79583  25.073  25.655  22.376
78720W        W79584  24.661  27.789  22.351
78721W        W79585  23.658  26.885  22.568
78722W        W79586  24.719  26.012  22.079
78723W        W79587  24.796  26.637  24.117
78724W        W79588  22.332  27.048  23.542
78725W        W79589  22.804  27.922  23.035
78726W        W79590  24.495  26.635  23.137
78727W        W79591  23.481  26.194  23.854
78728W        W79592  25.407  28.008  24.352
78729W        W79593  25.581  26.245  24.101
78730W        W79594  21.919  28.666  23.441
78731W        W79595  22.402  27.957  22.659
78732W        W79596  22.372  25.944  25.405
78733W        W79597  23.633  28.408  25.596
78734W        W79598  25.363  27.394  23.440
78735W        W79599  24.838  27.369  22.108
78736W        W79600  24.035   0.104  24.323
78737W        W79601  24.639  27.916  25.427
78738W        W79602  23.397  25.523  22.611
78739W        W79603  24.296  26.368  23.511
78740W        W79604  22.080  28.078  24.107
78741W        W79605  23.270  26.064  22.737
78742W        W79606  23.229  27.587  25.379
78743W        W79607  24.037  26.448  23.047
78744W        W79608  24.335  27.927  24.196
78745W        W79609  22.534  28.625  24.676
78746W        W79610  23.149  28.487  25.424
78747W        W79611  22.863  26.294  22.494
78748W        W79612  24.436  26.428  22.631
78749W        W79613  24.273  28.443  24.869
78750W        W79614  23.046  27.186  23.516
78751W        W79615  22.536  28.898  24.240
78752W        W79616  25.302  28.836  21.912
78753W        W79617  22.235  27.708  25.080
78754W        W79618  24.091  27.754  23.769
78755W        W79619  22.461  27.528  22.957
78756W        W79620  22.897  28.527  24.309
78757W        W79621  23.681  25.770  23.563
78758W        W79622  21.885  27.872  22.399
78759W        W79623  23.559  26.755  22.022
78760W        W79624  22.088  27.477  23.330
78761W        W79625  23.309  26.046  24.745
78762W        W79626  25.214  25.890  21.947
78763W        W79627  25.225  27.541  25.207
78764W        W79628  23.944  28.775  25.357
78765W        W79629  25.423  27.876  24.868
78766W        W79630  24.922  28.515  25.455
78767W        W79631  22.694  28.943  23.761
78768W        W79632  25.436  27.712  23.043
78769W        W79633  24.091  26.865  23.464
78770W        W79634  23.752  25.249  23.430
78771W        W79635  22.973  28.397  22.994
78772W        W79636  23.311  26.374  24.308
78773W        W79637  23.200  25.786  23.751
78774W        W79638  22.148  28.524  22.250
78775W        W79639  23.862  27.763  23.091
78776W        W79640  23.032  28.590  24.832
78777W        W79641  22.243  27.491  22.450
78778W        W79642  22.043  26.123  23.614
78779W        W79643  23.685  27.984  23.554
78780W        W79644  22.017  26.003  22.603
78781W        W79645  24.716  26.959  24.528
78782W        W79646  24.471  26.469  22.118
78783W        W79647  25.021  28.046  23.842
78784W        W79648  23.863  28.551  23.513
78785W        W79649  23.111  28.764  22.667
78786W        W79650  24.331  25.636  21.925
78787W        W79651  22.170  28.832  23.852
78788W        W79652  24.096  26.591  25.230
78789W        W79653  22.260  26.413  25.560
78790W        W79654  22.081  26.722  22.904
78791W        W79655  23.127  26.748  22.620
78792W        W79656  24.392  27.058  25.216
78793W        W79657  22.924  27.491  23.915
78794W        W79658  24.387  25.478  23.359
78795W        W79659  23.437  28.827  23.615
78796W        W79660  24.684  28.434  24.511
78797W        W79661  24.432  28.528  23.560
78798W        W79662  24.347  27.652  23.273
78799W        W79663  23.641  25.923  22.377
78800W        W79664  25.424  25.630  23.180
78801W        W79665  23.047  27.135  22.035
78802W        W79666  25.260  26.474  23.222
78803W        W79667  23.887  27.678  22.192
78804W        W79668  24.917  27.813  24.861
78805W        W79669  24.524  28.624  22.073
78806W        W79670  23.144  26.305  25.159
78807W        W79671  23.048  26.847  24.352
78808W        W79672  25.122  28.273  24.721
78809W        W79673  24.113  26.268  24.808
78810W        W79674  22.048  26.927  24.783
78811W        W79675  23.802  27.268  24.495
78812W        W79676  22.354  27.924  23.286
78813W        W79677  22.357  27.266  24.013
78814W        W79678  24.630  27.527  24.489
78815W        W79679  24.462  28.799  25.200
78816W        W79680  24.359  26.714  24.803
78817W        W79681  24.766  28.730  23.220
78818W        W79682  23.675  28.560  24.525
78819W        W79683  23.038  28.533  23.817
78820W        W79684  24.870  27.966  24.337
78821W        W79685  23.906  27.985  25.501
78822W        W79686  24.974  27.783  23.361
78823W        W79687  24.378  28.764  24.041
78824W        W79688  22.537  28.474  23.934
78825W        W79689  23.554  26.653  25.204
78826W        W79690  23.816  28.600  22.701
78827W        W79691  23.409  28.059  25.306
78828W        W79692  23.370  28.315  22.680
78829W        W79693  22.603  26.765  21.929
78830W        W79694  21.980   0.128  28.953
78831W        W79695  22.379  27.963  28.544
78832W        W79696  25.004  27.683  26.203
78833W        W79697  25.319  28.808  28.234
78834W        W79698  23.066  28.788  25.847
78835W        W79699  23.231  26.891  26.645
78836W        W79700  22.793  26.745  26.994
78837W        W79701  23.773  27.450  26.340
78838W        W79702  23.372  28.730  28.269
78839W        W79703  22.471  25.520  28.402
78840W        W79704  24.457  26.034  27.168
78841W        W79705  24.142  26.716  25.743
78842W        W79706  24.708  26.287  28.857
78843W        W79707  22.158  25.922  28.202
78844W        W79708  22.169  28.639   0.058
78845W        W79709  23.798  28.198  26.063
78846W        W79710  21.927  26.677  27.572
78847W        W79711  22.938  26.978   0.013
78848W        W79712  25.189  26.683  27.197
78849W        W79713  25.156  27.602  28.105
78850W        W79714  23.561  27.051  27.293
78851W        W79715  24.053  28.306  27.533
78852W        W79716  22.452  27.686  27.758
78853W        W79717  21.845  27.174  27.372
78854W        W79718  23.055  27.188  28.533
78855W        W79719  25.219  27.028  28.797
78856W        W79720  22.802  28.384  27.182
78857W        W79721  23.917  28.133  28.278
78858W        W79722  23.230  26.699  27.581
78859W        W79723  23.415  27.556  27.241
78860W        W79724  24.152  28.408   0.061
78861W        W79725  23.357  27.612  28.974
78862W        W79726  23.559  27.391  28.541
78863W        W79727  22.069  26.519  28.899
78864W        W79728  24.604  28.248  28.819
78865W        W79729  22.382  25.828  26.775
78866W        W79730  22.873  28.087  27.709
78867W        W79731  25.432  27.987  27.145
78868W        W79732  24.810  26.463  27.513
78869W        W79733  25.034  26.435  25.382
78870W        W79734  25.392  27.131  27.898
78871W        W79735  23.393  28.834  27.748
78872W        W79736  25.096  28.203  26.340
78873W        W79737  22.366   0.012  26.230
78874W        W79738  22.714  28.885  26.602
78875W        W79739  22.646  25.869  28.036
78876W        W79740  25.244  26.896  28.312
78877W        W79741  24.533  27.234  26.856
78878W        W79742  24.431  27.154  25.764
78879W        W79743  23.719  27.997  27.738
78880W        W79744  23.689  26.316  26.985
78881W        W79745  24.202  28.479  28.014
78882W        W79746  25.010  27.369  26.638
78883W        W79747  24.022  26.033  26.345
78884W        W79748  22.770  28.546  26.218
78885W        W79749  22.023  26.203  26.715
78886W        W79750  24.626  26.839  27.217
78887W        W79751  22.249  28.329  27.159
78888W        W79752  23.556  28.693  26.000
78889W        W79753  24.815  26.893  25.518
78890W        W79754  22.073  28.492  27.879
78891W        W79755  22.810  28.156  28.325
78892W        W79756  23.113  27.588  26.821
78893W        W79757  23.045  26.062  27.761
78894W        W79758  25.397  25.768  27.351
78895W        W79759  22.752  27.673  25.200
78896W        W79760  22.173  26.508  26.075
78897W        W79761  22.519  28.378  26.714
78898W        W79762  23.334  28.054  26.792
78899W        W79763  24.832  28.673  28.544
78900W        W79764  23.856  26.498  26.102
78901W        W79765  25.115  28.936  27.038
78902W        W79766  24.778  26.810  28.484
78903W        W79767  25.522  28.259  26.713
78904W        W79768  24.088  27.627  28.330
78905W        W79769  21.748  27.273  26.458
78906W        W79770  22.890  27.722  28.044
78907W        W79771  24.206  26.873  26.240
78908W        W79772  24.061  27.175  26.656
78909W        W79773  22.353  26.765  27.865
78910W        W79774  22.454  26.789   0.106
78911W        W79775  22.319  25.616  27.232
78912W        W79776  23.993  26.131  27.392
78913W        W79777  23.852  26.162  28.733
78914W        W79778  24.126  26.107  25.820
78915W        W79779  25.360  28.607  28.720
78916W        W79780  24.110  25.716  28.667
78917W        W79781  25.177  28.102  28.863
78918W        W79782  24.791  26.302  28.347
78919W        W79783  24.448  26.194  26.656
78920W        W79784  24.867  27.273   0.066
78921W        W79785  22.495  28.777  27.051
78922W        W79786  23.319  26.464  26.049
78923W        W79787  22.957  26.169  28.790
78924W        W79788  24.844  26.478  26.434
78925W        W79789  25.135  26.906  26.312
78926W        W79790  23.039   0.068  28.997
78927W        W79791  22.840  25.618  26.179
78928W        W79792  25.249  26.167  27.037
78929W        W79793  25.415  28.341  25.647
78930W        W79794  22.173  27.588  27.283
78931W        W79795  24.168  26.097  25.308
78932W        W79796  25.521  28.424  27.423
78933W        W79797  25.370  25.865  27.868
78934W        W79798  23.812  26.671  28.812
78935W        W79799  24.236  28.392  26.278
78936W        W79800  24.396  27.437   0.171
78937W        W79801  24.105  25.640  27.287
78938W        W79802  22.431  26.545  27.388
78939W        W79803  22.163  27.643  28.197
78940W        W79804  24.233  28.605  26.750
78941W        W79805  25.148  26.594  27.908
78942W        W79806  23.886  28.856  28.287
78943W        W79807  25.087  27.674  25.691
78944W        W79808  23.537  27.274  26.808
78945W        W79809  25.479  25.733  28.437
78946W        W79810  23.624  27.721  28.143
78947W        W79811  23.798  26.619  27.381
78948W        W79812  24.654  27.102  26.380
78949W        W79813  24.689  26.759  26.000
78950W        W79814  24.718  28.573  26.365
78951W        W79815  24.685  28.197  27.167
78952W        W79816  24.280  27.409  26.222
78953W        W79817  23.901  27.401  27.158
78954W        W79818  24.962  27.225  27.139
78955W        W79819  22.185  26.263  27.770
78956W        W79820  24.885  27.319  28.518
78957W        W79821  25.332  28.894  27.514
78958W        W79822  23.322  28.437  27.130
78959W        W79823  24.413  28.896  28.271
78960W        W79824  24.283  26.285  28.027
78961W        W79825  23.494   0.209  28.088
78962W        W79826  25.198  26.075  26.519
78963W        W79827  24.873  27.141  28.043
78964W        W79828  21.917  26.599  28.097
78965W        W79829  24.790  26.406  26.978
78966W        W79830  25.194  26.517  28.657
78967W        W79831  24.175  28.147  27.056
78968W        W79832  23.468  28.766  26.767
78969W        W79833  22.460  26.036  25.912
78970W        W79834  23.674  25.838  27.694
78971W        W79835  22.549  28.968  25.733
78972W        W79836  23.261  27.357  26.379
78973W        W79837  23.634  27.888  28.632
78974W        W79838  23.507  26.470  26.530
78975W        W79839  24.845  25.892  26.854
78976W        W79840  24.672   0.043  27.277
78977W        W79841  23.896  28.781  27.603
78978W        W79842  23.277  27.742  27.711
78979W        W79843  25.187  28.503  27.841
78980W        W79844  22.856  25.926  26.595
78981W        W79845  23.318  28.327  27.620
78982W        W79846  22.780  26.259  25.546
78983W        W79847  23.624  26.838  27.862
78984W        W79848  24.422  25.882  27.668
78985W        W79849  21.922  27.581  27.728
78986W        W79850  23.466  27.369  25.893
78987W        W79851  22.896  25.772  25.636
78988W        W79852  23.735  26.811  26.857
78989W        W79853  24.530  25.854  28.192
78990W        W79854  23.153  27.740  28.490
78991W        W79855  23.949  27.531  28.885
78992W        W79856  24.462  27.569  28.664
78993W        W79857  23.853  25.795   0.109
78994W        W79858  22.931  26.367  27.333
78995W        W79859  22.584  26.263  26.953
78996W        W79860  22.148  28.641  26.502
78997W        W79861  23.746  28.372  28.727
78998W        W79862  23.071  27.700  26.023
78999W        W79863  24.391  27.365  27.332
79000W        W79864  24.495  27.031  27.701
79001W        W79865  23.712  27.474  27.662
79002W        W79866  24.276  28.083  25.839
79003W        W79867  24.035  25.974  26.869
79004W        W79868  25.346  26.449  26.205
79005W        W79869  22.148  28.822  28.573
79006W        W79870  22.380  28.104  28.034
79007W        W79871  21.813  28.921  26.245
79008W        W79872  23.810  26.342  27.819
79009W        W79873  23.215  28.301  25.943
79010W        W79874  25.096  28.615  25.995
79011W        W79875  23.941  27.180  25.907
79012W        W79876  22.981  26.419  26.492
79013W        W79877  23.754  26.374  25.587
79014W        W79878  24.162  27.995  28.712
79015W        W79879  24.738  25.979  26.281
79016W        W79880  22.004  25.810  25.750
79017W        W79881  23.281  28.102  28.082
79018W        W79882  23.118  27.971  27.268
79019W        W79883  22.981  27.998  25.598
79020W        W79884  21.793  28.393  26.216
79021W        W79885  22.547  27.090  28.687
79022W        W79886  23.411  26.027  28.972
79023W        W79887  23.886  25.974  28.223
79024W        W79888  23.243  25.667  26.847
79025W        W79889  24.325  25.700  26.086
79026W        W79890  22.231  25.746  27.726
79027W        W79891  22.006  26.591  27.066
79028W        W79892  24.919  25.967  27.380
79029W        W79893  22.474  26.208  26.409
79030W        W79894  24.897  26.110  27.883
79031W        W79895  25.260  27.200  25.590
79032W        W79896  22.583  26.046  27.513
79033W        W79897  23.837  26.486  28.311
79034W        W79898  21.793  26.294  25.792
79035W        W79899  22.644  27.529  28.433
79036W        W79900  23.997  27.061  27.579
79037W        W79901  23.911   0.053  26.046
79038W        W79902  21.892  27.761  25.492
79039W        W79903  22.863  28.029  28.820
79040W        W79904  22.344  27.177  28.183
79041W        W79905  23.271  27.373  28.109
79042W        W79906  25.017  25.719  28.223
79043W        W79907  25.468  27.351  28.431
79044W        W79908  25.557  27.467  25.914
79045W        W79909  24.133  27.884  26.387
79046W        W79910  24.830   0.012  25.511
79047W        W79911  24.015  27.060   0.123
79048W        W79912  22.458  27.817   0.080
79049W        W79913  25.575  26.054  28.894
79050W        W79914  24.997  26.958  27.582
79051W        W79915  23.403  28.753  28.803
79052W        W79916  23.295  25.692  25.961
79053W        W79917  24.947  28.143  25.814
79054W        W79918  22.589  26.522  28.692
79055W        W79919  23.256  28.297  28.551
79056W        W79920  25.305  26.224  28.235
79057W        W79921  24.718   0.002  26.024
79058W        W79922  24.620  27.772  27.594
79059W        W79923  22.917  26.257  28.280
79060W        W79924  23.454  27.050  28.915
79061W        W79925  22.992  28.069  26.379
79062W        W79926  24.609  27.667  26.538
79063W        W79927  22.410  26.374  28.217
79064W        W79928  23.856  28.237  26.657
79065W        W79929  25.399  27.029  26.850
79066W        W79930  23.585  25.728  28.573
79067W        W79931  24.551  28.289  27.656
79068W        W79932  24.880  28.612  27.427
79069W        W79933  24.057  28.593  25.835
79070W        W79934  22.059  28.151  28.907
79071W        W79935  22.797  26.511  27.831
79072W        W79936  22.805  25.808  27.106
79073W        W79937  24.287  26.564  27.563
79074W        W79938  23.483  27.884  25.779
79075W        W79939  25.113  27.632  27.415
79076W        W79940  22.516  28.408  28.751
79077W        W79941  24.891   0.054  26.534
79078W        W79942  23.185  26.170  26.924
79079W        W79943  22.618  27.511  27.027
79080W        W79944  22.991   0.043  27.994
79081W        W79945  25.123   0.062  28.739
79082W        W79946  24.217  27.451  27.836
79083W        W79947  22.151  26.929  25.635
79084W        W79948  25.213  28.652  26.578
79085W        W79949  24.930  26.312  25.920
79086W        W79950  22.969  25.737  28.468
79087W        W79951  25.161  28.418  27.048
79088W        W79952  24.914  26.873  26.779
79089W        W79953  23.304  26.646  27.086
79090W        W79954  23.522  26.888  28.404
79091W        W79955  24.492  28.128  28.313
79092W        W79956  23.070  26.676  28.583
79093W        W79957  23.015  28.845  27.035
79094W        W79958  22.587  28.912  28.817
79095W        W79959  22.696  28.463  25.698
79096W        W79960  25.007  27.990  26.802
79097W        W79961  22.685  26.809  28.268
79098W        W79962  25.209  26.741  25.811
79099W        W79963  23.480  27.865  26.316
79100W        W79964  23.988  27.103  28.587
79101W        W79965  24.124  26.798  28.003
79102W        W79966  22.778  27.237  27.921
79103W        W79967  24.905  28.973  27.793
79104W        W79968  24.636  25.780  28.777
79105W        W79969  22.509  26.004  28.578
79106W        W79970  22.769  26.936  27.494
79107W        W79971  23.164  26.631  25.566
79108W        W79972  22.025  28.343  28.387
79109W        W79973  23.228  27.212  27.635
79110W        W79974  23.287  26.129  25.639
79111W        W79975  22.807  27.187  26.676
79112W        W79976  22.072  28.954  28.095
79113W        W79977  24.911  27.233  25.951
79114W        W79978  25.095  26.013  28.656
79115W        W79979  24.521  28.175  26.679
79116W        W79980  22.049  27.053  28.921
79117W        W79981  25.199  25.877  26.033
79118W        W79982  24.626  28.059  26.200
79119W        W79983  23.682  26.938  26.340
79120W        W79984  24.621  25.944  25.744
79121W        W79985  24.641  26.654  28.001
79122W        W79986  22.339  27.032  27.140
79123W        W79987  22.807  27.991  26.863
79124W        W79988  24.437  26.742  26.697
79125W        W79989  23.434  26.235  27.440
79126W        W79990  25.442  28.059  27.949
79127W        W79991  25.317  26.271  27.542
79128W        W79992  21.980  28.729  26.975
79129W        W79993  22.205  28.104  26.383
79130W        W79994  22.564  25.666   0.142
79131W        W79995  23.670  28.460   0.239
79132W        W79996  25.369  27.523  26.962
79133W        W79997  24.590  27.651  25.877
79134W        W79998  24.080   0.168  27.895
79135W        W79999  24.778  27.784   0.003
79136W        W80000  23.503  25.515  26.405
79137W        W80001  24.204  26.458  27.057
79138W        W80002  22.106  28.053  27.573
79139W        W80003  23.331  26.003  26.417
79140W        W80004  22.860  27.504  28.902
79141W        W80005  24.018  26.487  26.581
79142W        W80006  24.227  27.959  27.905
79143W        W80007  22.471  28.560  28.258
79144W        W80008  22.980  28.525  28.990
79145W        W80009  22.966  26.088  26.057
79146W        W80010  24.388  26.379  26.168
79147W        W80011  24.205  28.498  28.537
79148W        W80012  23.083  27.160  27.125
79149W        W80013  22.521  28.858  27.863
79150W        W80014  25.333  28.847  25.582
79151W        W80015  22.207  27.509  28.727
79152W        W80016  24.101  27.790  27.430
79153W        W80017  22.612  27.668  26.522
79154W        W80018  22.959  28.522  27.995
79155W        W80019  23.629  25.834  27.157
79156W        W80020  21.807  27.918  26.013
79157W        W80021  23.596  26.827  25.791
79158W        W80022  22.137  27.401  26.793
79159W        W80023  23.351  25.933  28.153
79160W        W80024  25.073  25.926  25.505
79161W        W80025  25.216  27.575  28.808
79162W        W80026  23.917  28.835  28.901
79163W        W80027  25.461  27.894  28.473
79164W        W80028  24.962  28.547   0.020
79165W        W80029  22.592   0.102  27.439
79166W        W80030  25.382  27.796  26.527
79167W        W80031  24.148  26.956  27.111
79168W        W80032  23.846  25.473  26.820
79169W        W80033  23.024  28.468  26.698
79170W        W80034  23.341  26.424  28.015
79171W        W80035  23.215  25.708  27.433
79172W        W80036  22.145  28.650  25.931
79173W        W80037  23.740  27.743  26.778
79174W        W80038  22.910  28.678  28.494
79175W        W80039  22.153  27.573  26.274
79176W        W80040  22.137  26.107  27.242
79177W        W80041  23.667  28.039  27.217
79178W        W80042  22.019  26.037  26.218
79179W        W80043  24.402  27.164  28.273
79180W        W80044  24.533  26.430  25.590
79181W        W80045  25.078  28.134  27.501
79182W        W80046  23.844  28.541  27.098
79183W        W80047  23.201  28.819  26.344
79184W        W80048  24.237  25.650  25.554
79185W        W80049  22.182  28.773  27.456
79186W        W80050  24.302  26.605  28.984
79187W        W80051  22.482  26.177   0.069
79188W        W80052  21.953  26.768  26.512
79189W        W80053  22.693  26.507  26.015
79190W        W80054  24.461  27.068  28.806
79191W        W80055  22.864  27.538  27.478
79192W        W80056  24.399  25.618  26.818
79193W        W80057  23.520  28.901  27.253
79194W        W80058  24.729  28.545  28.061
79195W        W80059  24.359  28.614  27.248
79196W        W80060  24.234  27.664  26.880
79197W        W80061  23.641  26.054  25.998
79198W        W80062  25.455  25.728  26.828
79199W        W80063  22.860  27.202  25.383
79200W        W80064  25.303  26.553  26.700
79201W        W80065  23.946  27.694  25.924
79202W        W80066  24.901  27.855  28.496
79203W        W80067  24.575  28.521  25.856
79204W        W80068  23.402  26.291  28.522
79205W        W80069  23.135  26.886  28.057
79206W        W80070  25.131  28.302  28.347
79207W        W80071  24.318  26.174  28.534
79208W        W80072  22.194  26.782  28.478
79209W        W80073  23.826  27.232  28.111
79210W        W80074  22.273  27.903  26.867
79211W        W80075  22.330  27.215  27.622
79212W        W80076  24.606  27.625  28.137
79213W        W80077  24.450  28.802  28.860
79214W        W80078  24.287  26.682  28.474
79215W        W80079  24.727  28.652  26.879
79216W        W80080  23.687  28.463  27.962
79217W        W80081  22.939  28.734  27.532
79218W        W80082  24.890  28.040  27.975
79219W        W80083  23.831  27.988   0.099
79220W        W80084  22.561  27.945  27.319
79221W        W80085  24.714  27.678  27.072
79222W        W80086  24.426  28.818  27.707
79223W        W80087  22.506  28.410  27.609
79224W        W80088  23.345  26.544  29.000
79225W        W80089  23.847  28.707  26.422
79226W        W80090  23.339  28.129   0.015
79227W        W80091  23.438  28.375  26.400
79228W        W80092  22.654  26.760  25.567
79229W        W80093  25.553   3.685   3.418
79230W        W80094  25.933   2.484   2.902
79231W        W80095  28.658   2.310   0.732
79232W        W80096  28.991   3.359   2.658
79233W        W80097  26.719   3.227   0.220
79234W        W80098  26.717   1.430   1.225
79235W        W80099  26.535   1.169   1.626
79236W        W80100  27.230   2.141   0.876
79237W        W80101  27.001   3.317   2.766
79238W        W80102  25.576   0.763   3.040
79239W        W80103  26.252   0.046   2.808
79240W        W80104  28.041   0.473   1.778
79241W        W80105  27.674   1.266   0.539
79242W        W80106  28.317   0.873   3.428
79243W        W80107  25.739   0.515   2.591
79244W        W80108  25.741   3.192   3.501
79245W        W80109  27.301   2.580   0.617
79246W        W80110  25.757   1.223   2.114
79247W        W80111  26.715   1.324   3.320
79248W        W80112  28.893   0.974   1.768
79249W        W80113  28.767   2.214   2.706
79250W        W80114  27.197   1.523   1.638
79251W        W80115  27.894   3.004   1.982
79252W        W80116  26.061   2.199   2.119
79253W        W80117  25.449   1.595   1.926
79254W        W80118  26.706   1.740   3.006
79255W        W80119  28.750   1.571   3.310
79256W        W80120  26.439   2.929   1.678
79257W        W80121  27.651   2.704   2.783
79258W        W80122  26.913   1.238   1.984
79259W        W80123  27.049   2.032   1.746
79260W        W80124  27.455   2.989   3.556
79261W        W80125  26.968   2.104   3.462
79262W        W80126  27.192   2.010   2.997
79263W        W80127  25.630   1.141   3.652
79264W        W80128  28.313   2.903   3.094
79265W        W80129  25.897   0.248   1.077
79266W        W80130  26.479   2.596   2.163
79267W        W80131   0.028   2.528   1.634
79268W        W80132  28.457   0.739   1.936
79269W        W80133  28.725   0.960   0.034
79270W        W80134   0.044   1.606   2.520
79271W        W80135  27.149   3.298   2.264
79272W        W80136  28.760   2.811   0.800
79273W        W80137  26.108   3.621   0.576
79274W        W80138  26.426   3.506   0.978
79275W        W80139  26.244   0.363   2.390
79276W        W80140  28.691   1.234   2.711
79277W        W80141  28.069   1.750   1.331
79278W        W80142  28.073   1.491   0.305
79279W        W80143  27.496   2.652   2.217
79280W        W80144  27.406   1.089   1.816
79281W        W80145  27.650   3.112   2.445
79282W        W80146  28.684   1.912   1.053
79283W        W80147  27.625   0.549   1.033
79284W        W80148  26.298   3.132   0.621
79285W        W80149  25.573   0.592   1.278
79286W        W80150  28.413   1.236   1.744
79287W        W80151  25.920   2.842   1.743
79288W        W80152  27.277   3.080   0.755
79289W        W80153  28.404   1.361  28.950
79290W        W80154  25.654   2.946   2.258
79291W        W80155  26.391   2.719   2.825
79292W        W80156  26.622   2.088   1.450
79293W        W80157  26.806   0.465   2.381
79294W        W80158   0.063   0.104   1.755
79295W        W80159  26.054   1.979   0.179
79296W        W80160  25.939   1.050   0.440
79297W        W80161  26.115   2.784   1.276
79298W        W80162  27.068   2.368   1.329
79299W        W80163  28.550   3.334   2.925
79300W        W80164  27.392   0.949   0.840
79301W        W80165  28.568   3.405   1.532
79302W        W80166  28.354   1.299   3.123
79303W        W80167   0.113   2.815   1.203
79304W        W80168  27.728   2.049   2.811
79305W        W80169  25.554   1.771   0.968
79306W        W80170  26.370   2.261   2.554
79307W        W80171  27.719   1.449   1.052
79308W        W80172  27.686   1.978   1.058
79309W        W80173  26.052   1.311   2.516
79310W        W80174  26.008   1.163   3.253
79311W        W80175  25.856   0.173   1.592
79312W        W80176  27.574   0.633   2.007
79313W        W80177  27.401   0.662   3.255
79314W        W80178  27.793   0.570   0.556
79315W        W80179   0.030   3.308   3.168
79316W        W80180  27.769   0.209   3.205
79317W        W80181  28.759   2.525   3.531
79318W        W80182  28.354   0.834   2.877
79319W        W80183  27.997   0.700   1.328
79320W        W80184  28.425   1.877   3.606
79321W        W80185  26.161   3.299   1.409
79322W        W80186  26.860   1.022   0.914
79323W        W80187  26.401   0.347   3.220
79324W        W80188  28.461   1.037   0.934
79325W        W80189  28.801   1.442   0.832
79326W        W80190  26.544   3.463   3.326
79327W        W80191  26.505   0.087   0.586
79328W        W80192  28.780   0.486   1.581
79329W        W80193  28.967   3.013   0.319
79330W        W80194  25.721   1.990   1.760
79331W        W80195  27.808   0.623   0.054
79332W        W80196  28.887   2.923   1.934
79333W        W80197  28.868   0.242   2.483
79334W        W80198  27.580   1.666   3.137
79335W        W80199  27.894   2.902   1.100
79336W        W80200  27.931   1.938   3.815
79337W        W80201  27.661   0.146   1.843
79338W        W80202  26.096   0.996   1.795
79339W        W80203  25.883   2.039   2.629
79340W        W80204  27.708   3.250   1.521
79341W        W80205  28.819   0.946   2.291
79342W        W80206  27.550   3.500   2.778
79343W        W80207  28.695   2.191   0.240
79344W        W80208  27.051   1.848   1.265
79345W        W80209   0.028   0.263   2.963
79346W        W80210  27.335   2.336   2.606
79347W        W80211  27.703   1.110   2.233
79348W        W80212  28.177   1.453   0.832
79349W        W80213  28.519   1.264   0.448
79350W        W80214  28.374   3.079   1.038
79351W        W80215  28.402   2.568   1.755
79352W        W80216  27.898   1.860   0.602
79353W        W80217  27.514   1.947   1.555
79354W        W80218  28.455   1.755   1.848
79355W        W80219  26.019   0.812   2.274
79356W        W80220  28.597   1.729   2.849
79357W        W80221  28.894   3.396   2.138
79358W        W80222  26.937   2.927   1.539
79359W        W80223  28.079   3.555   2.795
79360W        W80224  27.879   0.926   2.675
79361W        W80225  27.167   3.761   2.559
79362W        W80226  28.656   0.551   1.019
79363W        W80227  28.629   1.890   2.345
79364W        W80228  25.632   1.028   2.587
79365W        W80229  28.475   0.852   1.417
79366W        W80230  28.800   1.049   3.252
79367W        W80231  27.754   2.732   1.551
79368W        W80232  27.018   3.294   1.175
79369W        W80233  26.026   0.509   0.540
79370W        W80234  27.205   0.237   2.066
79371W        W80235  26.190   3.321   0.141
79372W        W80236  26.447   1.826   1.031
79373W        W80237  27.108   2.558   3.019
79374W        W80238  27.118   0.631   1.150
79375W        W80239  28.339   0.315   1.386
79376W        W80240  28.075   3.511   1.767
79377W        W80241  27.576   3.407   2.002
79378W        W80242  27.050   2.300   2.182
79379W        W80243  28.681   3.013   2.433
79380W        W80244  26.348   0.450   0.978
79381W        W80245  26.979   2.813   2.106
79382W        W80246  26.384   0.986   0.152
79383W        W80247  27.265   1.332   2.386
79384W        W80248  28.132   0.197   2.223
79385W        W80249  25.555   2.017   2.249
79386W        W80250  27.082   1.722   0.304
79387W        W80251  26.484   0.500   0.271
79388W        W80252  27.214   1.371   1.102
79389W        W80253  28.057   0.427   2.698
79390W        W80254  26.692   2.261   3.001
79391W        W80255  27.466   1.985   3.530
79392W        W80256  27.944   2.051   3.307
79393W        W80257  27.369   0.271   3.585
79394W        W80258  26.554   0.837   2.039
79395W        W80259  26.090   0.622   1.403
79396W        W80260  25.899   3.155   0.971
79397W        W80261  27.344   3.025   3.048
79398W        W80262  26.261   2.188   0.655
79399W        W80263  27.950   1.914   1.833
79400W        W80264  28.052   1.445   2.046
79401W        W80265  27.522   2.120   2.108
79402W        W80266  27.970   2.614   0.269
79403W        W80267  27.512   0.559   1.522
79404W        W80268  28.975   0.947   0.797
79405W        W80269  25.730   3.366   2.981
79406W        W80270  26.002   2.608   2.410
79407W        W80271  25.512   3.487   0.830
79408W        W80272  27.299   0.605   2.419
79409W        W80273  26.817   2.747   0.496
79410W        W80274  28.604   3.287   0.611
79411W        W80275  27.417   1.685   0.709
79412W        W80276  26.417   0.951   1.166
79413W        W80277  27.421   0.856   0.328
79414W        W80278  27.554   2.363   3.173
79415W        W80279  28.149   0.405   0.901
79416W        W80280  25.638   0.212   0.363
79417W        W80281  26.815   2.531   2.573
79418W        W80282  26.789   2.475   1.769
79419W        W80283  26.498   2.312   0.195
79420W        W80284  25.457   2.952   0.758
79421W        W80285  26.289   1.614   3.307
79422W        W80286  26.897   0.362   3.361
79423W        W80287  27.571   0.484   2.815
79424W        W80288  26.765   0.214   1.188
79425W        W80289  27.684   0.110   0.787
79426W        W80290  25.789   0.304   2.115
79427W        W80291  25.783   1.052   1.377
79428W        W80292  28.580   0.182   1.978
79429W        W80293  25.951   0.811   0.943
79430W        W80294  28.478   0.555   2.417
79431W        W80295  28.773   1.657   0.185
79432W        W80296  26.207   0.495   1.883
79433W        W80297  27.370   0.993   2.790
79434W        W80298  25.552   0.709   0.334
79435W        W80299  26.234   2.040   3.006
79436W        W80300  27.538   1.605   2.049
79437W        W80301  27.595   3.383   0.450
79438W        W80302  25.551   2.254   0.121
79439W        W80303  26.192   2.513   3.341
79440W        W80304  25.953   1.610   2.920
79441W        W80305  26.850   1.995   2.569
79442W        W80306  28.505   0.230   2.846
79443W        W80307   0.067   1.883   2.973
79444W        W80308  28.975   1.881   0.619
79445W        W80309  27.782   2.363   0.689
79446W        W80310  28.351   3.620   0.274
79447W        W80311  27.532   1.496   3.663
79448W        W80312  25.895   2.355   3.762
79449W        W80313   0.084   0.668   3.529
79450W        W80314  28.656   1.407   2.174
79451W        W80315  27.040   3.362   3.278
79452W        W80316  26.937   0.267   0.336
79453W        W80317  28.522   2.697   0.325
79454W        W80318  26.442   0.874   3.238
79455W        W80319  26.784   2.956   3.079
79456W        W80320  28.838   0.722   2.758
79457W        W80321  28.135   3.502   0.734
79458W        W80322  28.281   2.197   2.143
79459W        W80323  26.522   0.591   2.792
79460W        W80324  27.113   1.632   3.373
79461W        W80325  26.410   2.664   0.834
79462W        W80326  28.200   2.136   0.974
79463W        W80327  26.066   0.858   2.831
79464W        W80328  27.384   2.954   1.258
79465W        W80329  28.863   1.476   1.632
79466W        W80330  27.270   0.160   3.081
79467W        W80331  28.255   2.722   2.222
79468W        W80332  28.413   3.190   2.011
79469W        W80333  27.726   2.894   0.614
79470W        W80334  25.677   2.665   3.368
79471W        W80335  26.450   1.004   2.506
79472W        W80336  26.361   0.184   1.495
79473W        W80337  28.010   0.687   2.241
79474W        W80338  26.938   2.216   0.447
79475W        W80339  28.739   2.195   1.899
79476W        W80340  26.037   2.971   3.130
79477W        W80341  28.534   3.646   1.050
79478W        W80342  26.616   0.646   1.547
79479W        W80343  26.233   1.889   1.733
79480W        W80344  26.705   3.577   2.414
79481W        W80345  28.681   3.652   3.319
79482W        W80346  27.895   1.864   2.352
79483W        W80347  25.719   1.552   0.363
79484W        W80348  28.852   3.249   1.085
79485W        W80349  28.601   0.753   0.510
79486W        W80350  26.766   0.136   2.895
79487W        W80351  28.672   2.895   1.446
79488W        W80352  28.508   1.483   1.264
79489W        W80353  27.013   1.033   1.470
79490W        W80354  27.159   1.481   2.876
79491W        W80355  28.053   2.434   2.977
79492W        W80356  26.841   1.050   2.907
79493W        W80357  26.657   3.413   1.510
79494W        W80358  26.056   3.563   3.328
79495W        W80359  26.401   2.822   0.198
79496W        W80360  28.758   2.425   1.217
79497W        W80361  26.391   1.312   2.908
79498W        W80362   0.038   1.269   0.387
79499W        W80363  26.726   2.251   0.933
79500W        W80364  28.074   1.695   2.956
79501W        W80365  27.716   1.455   2.641
79502W        W80366  26.341   1.743   2.570
79503W        W80367  28.491   3.513   2.444
79504W        W80368  28.231   0.342   3.394
79505W        W80369  25.916   0.368   3.059
79506W        W80370  26.391   1.362   2.105
79507W        W80371  26.733   1.354   0.244
79508W        W80372  25.593   2.870   2.801
79509W        W80373  27.015   1.727   2.149
79510W        W80374  26.892   0.843   0.329
79511W        W80375  26.170   1.402   1.205
79512W        W80376  25.695   3.443   2.462
79513W        W80377  28.461   1.794   0.577
79514W        W80378  28.674   0.557   3.212
79515W        W80379  28.274   2.592   1.252
79516W        W80380  25.727   1.590   3.396
79517W        W80381  28.609   0.234   0.595
79518W        W80382  28.214   2.675   0.740
79519W        W80383  26.904   1.708   0.797
79520W        W80384  28.235   0.464   0.303
79521W        W80385  28.316   1.060   2.367
79522W        W80386  25.914   1.477   1.680
79523W        W80387  26.596   2.582   1.317
79524W        W80388  28.091   1.205   1.318
79525W        W80389  27.049   0.725   1.949
79526W        W80390   0.133   2.581   2.622
79527W        W80391  28.946   0.522   2.072
79528W        W80392  25.653   3.272   1.434
79529W        W80393  25.836   2.550   0.906
79530W        W80394  26.057   0.300   3.628
79531W        W80395  26.940   2.972   3.611
79532W        W80396  28.956   1.991   1.485
79533W        W80397  28.237   2.234   0.459
79534W        W80398  27.640   3.822   2.292
79535W        W80399  28.242   2.370   3.586
79536W        W80400  27.002   0.027   0.783
79537W        W80401  27.934   0.983   1.775
79538W        W80402  25.615   2.470   1.961
79539W        W80403  26.794   0.526   0.749
79540W        W80404  26.464   2.084   3.463
79541W        W80405  27.577   1.026   1.320
79542W        W80406  27.890   2.389   2.450
79543W        W80407  26.034   3.073   2.627
79544W        W80408  26.424   2.983   3.472
79545W        W80409  26.408   0.865   0.651
79546W        W80410  27.925   0.967   0.886
79547W        W80411  27.852   3.137   2.990
79548W        W80412  26.696   1.650   1.729
79549W        W80413  26.204   3.490   2.379
79550W        W80414  28.872   3.517   0.231
79551W        W80415  25.799   2.127   3.265
79552W        W80416  27.891   2.444   1.933
79553W        W80417  26.220   2.277   1.166
79554W        W80418  26.660   3.024   2.462
79555W        W80419  27.049   0.360   1.586
79556W        W80420  25.416   2.472   0.582
79557W        W80421  27.129   1.281   0.567
79558W        W80422  25.936   1.861   1.299
79559W        W80423  27.042   0.577   2.872
79560W        W80424  28.730   0.404   0.133
79561W        W80425  28.925   2.036   3.450
79562W        W80426  27.553   3.432   3.314
79563W        W80427   0.033   2.397   3.095
79564W        W80428  28.697   3.047   3.441
79565W        W80429  26.277   3.519   1.866
79566W        W80430   0.160   2.171   1.009
79567W        W80431  27.731   1.454   1.598
79568W        W80432  27.315   0.151   1.184
79569W        W80433  26.550   3.053   1.155
79570W        W80434  26.939   0.953   2.415
79571W        W80435  26.684   0.259   1.928
79572W        W80436  25.768   3.221   0.441
79573W        W80437  27.543   2.481   1.134
79574W        W80438  26.454   3.296   2.846
79575W        W80439  26.055   1.702   0.728
79576W        W80440  25.711   0.658   1.756
79577W        W80441  27.354   2.456   1.748
79578W        W80442  25.487   0.404   0.800
79579W        W80443  28.267   1.545   2.508
79580W        W80444  28.091   0.968   0.384
79581W        W80445  28.752   2.530   2.270
79582W        W80446  27.380   2.970   1.819
79583W        W80447  26.795   3.227   0.723
79584W        W80448  27.846   0.117   0.253
79585W        W80449  25.799   3.325   1.932
79586W        W80450  27.843   1.082   3.594
79587W        W80451  26.091   0.831   3.666
79588W        W80452  25.755   1.300   0.884
79589W        W80453  26.490   1.379   0.735
79590W        W80454  28.007   1.560   3.456
79591W        W80455  26.591   2.072   2.075
79592W        W80456  27.825   0.187   1.344
79593W        W80457  27.138   3.410   1.701
79594W        W80458  28.189   3.080   2.595
79595W        W80459  28.187   3.027   1.549
79596W        W80460  27.923   2.255   1.434
79597W        W80461  27.297   0.449   0.651
79598W        W80462  28.959   0.168   1.211
79599W        W80463  26.565   1.833   0.431
79600W        W80464  28.884   1.134   1.258
79601W        W80465  27.438   2.094   0.395
79602W        W80466  28.491   2.159   3.153
79603W        W80467  28.142   3.107   0.383
79604W        W80468  26.940   0.863   3.404
79605W        W80469  26.762   1.440   2.526
79606W        W80470  28.826   2.884   2.924
79607W        W80471  27.918   0.707   3.143
79608W        W80472  25.568   1.280   3.018
79609W        W80473  27.363   1.826   2.520
79610W        W80474  25.792   2.386   1.442
79611W        W80475  25.969   1.697   2.163
79612W        W80476  28.260   2.083   2.661
79613W        W80477  28.180   3.437   3.290
79614W        W80478  27.837   1.220   3.093
79615W        W80479  28.102   3.450   1.254
79616W        W80480  27.192   2.871   2.580
79617W        W80481  26.707   3.252   1.995
79618W        W80482  28.440   2.606   2.685
79619W        W80483  27.223   2.533   3.534
79620W        W80484  26.262   2.424   1.688
79621W        W80485  28.426   2.115   1.472
79622W        W80486  28.013   3.464   2.277
79623W        W80487  26.207   3.040   2.134
79624W        W80488  27.351   1.180   3.286
79625W        W80489  27.681   3.336   0.960
79626W        W80490  26.714   2.553   3.423
79627W        W80491  26.959   2.759   0.999
79628W        W80492  26.226   1.482   0.269
79629W        W80493  25.460   3.545   7.108
79630W        W80494  25.976   2.553   6.590
79631W        W80495  28.725   2.191   4.433
79632W        W80496  28.906   3.497   6.365
79633W        W80497  26.722   3.392   3.803
79634W        W80498  26.724   1.434   4.685
79635W        W80499  26.318   1.100   4.871
79636W        W80500  27.047   1.961   4.375
79637W        W80501  27.016   3.282   6.621
79638W        W80502  25.573   0.788   6.542
79639W        W80503  26.199   0.154   6.437
79640W        W80504  28.132   0.512   5.432
79641W        W80505  27.563   1.215   4.094
79642W        W80506  28.208   0.945   7.037
79643W        W80507  25.846   0.495   6.206
79644W        W80508  25.847   3.232   7.197
79645W        W80509  26.875   2.576   3.958
79646W        W80510  25.836   1.176   5.623
79647W        W80511  26.711   1.292   6.912
79648W        W80512  28.919   1.038   5.490
79649W        W80513  28.830   2.110   6.254
79650W        W80514  27.121   1.499   5.308
79651W        W80515  27.751   2.902   5.695
79652W        W80516  26.014   2.178   5.811
79653W        W80517  25.473   1.564   5.532
79654W        W80518  26.612   1.736   6.496
79655W        W80519  28.789   1.586   7.003
79656W        W80520  26.199   2.892   5.180
79657W        W80521  27.595   2.659   6.356
79658W        W80522  26.942   1.164   5.671
79659W        W80523  26.938   2.008   5.251
79660W        W80524  27.986   2.871   7.162
79661W        W80525  27.166   2.137   7.180
79662W        W80526  27.045   1.880   6.748
79663W        W80527  25.663   1.150   7.255
79664W        W80528  28.333   2.825   6.791
79665W        W80529  25.943   0.220   4.717
79666W        W80530  26.365   2.581   5.753
79667W        W80531  28.985   2.538   5.256
79668W        W80532  28.487   0.789   5.681
79669W        W80533  28.716   0.952   3.768
79670W        W80534   0.063   1.599   6.196
79671W        W80535  26.936   3.295   5.718
79672W        W80536  28.907   2.677   4.541
79673W        W80537  26.109   3.610   4.275
79674W        W80538  26.548   3.559   4.779
79675W        W80539  26.386   0.402   5.998
79676W        W80540  28.664   1.357   6.438
79677W        W80541  27.967   1.740   4.948
79678W        W80542  28.018   1.441   3.984
79679W        W80543  27.290   2.696   5.779
79680W        W80544  27.283   0.987   5.261
79681W        W80545  27.725   3.124   6.183
79682W        W80546  28.707   1.882   4.898
79683W        W80547  27.551   0.499   4.553
79684W        W80548  26.131   3.087   4.290
79685W        W80549  25.598   0.564   4.928
79686W        W80550  28.044   1.426   5.367
79687W        W80551  25.711   2.722   5.138
79688W        W80552  26.998   3.076   4.129
79689W        W80553  28.425   1.353   3.671
79690W        W80554  25.636   3.001   5.983
79691W        W80555  26.414   2.690   6.311
79692W        W80556  26.664   1.948   4.789
79693W        W80557  26.900   0.532   6.024
79694W        W80558   0.062   0.189   5.395
79695W        W80559  26.054   1.871   3.672
79696W        W80560  25.893   1.058   4.108
79697W        W80561  25.937   2.824   4.690
79698W        W80562  26.818   2.440   4.839
79699W        W80563  28.487   3.302   6.621
79700W        W80564  27.219   0.927   4.352
79701W        W80565  28.781   3.383   5.151
79702W        W80566  28.307   1.419   6.832
79703W        W80567   0.201   2.856   4.914
79704W        W80568  27.725   2.178   6.402
79705W        W80569  25.408   1.583   4.569
79706W        W80570  26.480   2.225   6.094
79707W        W80571  27.688   1.455   4.563
79708W        W80572  27.573   1.948   4.624
79709W        W80573  26.170   1.270   6.044
79710W        W80574  25.925   1.041   6.815
79711W        W80575  25.899   0.159   5.224
79712W        W80576  27.647   0.381   5.582
79713W        W80577  27.385   0.638   6.989
79714W        W80578  27.757   0.727   4.112
79715W        W80579  28.944   3.293   6.839
79716W        W80580  27.618   0.159   7.009
79717W        W80581  28.756   2.642   7.034
79718W        W80582  28.276   0.996   6.516
79719W        W80583  28.042   0.649   4.924
79720W        W80584  28.339   1.845   7.123
79721W        W80585  26.240   3.407   5.179
79722W        W80586  26.780   1.244   4.167
79723W        W80587  26.464   0.353   6.935
79724W        W80588  28.418   1.015   4.668
79725W        W80589  28.782   1.415   4.617
79726W        W80590  26.749   3.495   7.003
79727W        W80591  26.741   0.020   4.363
79728W        W80592  28.754   0.596   5.260
79729W        W80593   0.103   2.888   3.810
79730W        W80594  25.711   2.014   5.359
79731W        W80595  27.803   0.559   3.621
79732W        W80596   0.057   3.031   5.396
79733W        W80597  28.890   0.224   6.085
79734W        W80598  27.373   1.500   6.896
79735W        W80599  27.128   2.474   4.414
79736W        W80600  27.881   2.092   7.245
79737W        W80601  27.865   0.161   5.153
79738W        W80602  26.266   0.949   5.362
79739W        W80603  25.828   2.145   6.297
79740W        W80604  27.680   3.262   5.306
79741W        W80605  28.808   1.121   5.996
79742W        W80606  27.515   3.380   6.590
79743W        W80607  28.794   2.119   3.929
79744W        W80608  27.142   1.732   4.838
79745W        W80609  28.970   0.361   6.588
79746W        W80610  27.315   2.277   6.088
79747W        W80611  27.540   1.095   5.775
79748W        W80612  28.275   1.510   4.567
79749W        W80613  28.523   1.213   4.196
79750W        W80614  28.679   2.909   4.985
79751W        W80615  28.000   2.500   5.451
79752W        W80616  27.991   1.843   4.325
79753W        W80617  27.470   1.888   5.211
79754W        W80618  28.465   1.777   5.470
79755W        W80619  26.082   0.774   5.826
79756W        W80620  28.529   1.837   6.611
79757W        W80621  28.963   3.467   5.831
79758W        W80622  26.724   2.876   5.117
79759W        W80623  28.016   3.456   6.466
79760W        W80624  27.695   0.947   6.262
79761W        W80625  27.184   3.457   6.154
79762W        W80626  28.612   0.558   4.739
79763W        W80627  28.579   1.693   6.022
79764W        W80628  25.750   1.022   6.142
79765W        W80629  28.355   0.953   5.210
79766W        W80630  28.689   1.092   6.888
79767W        W80631  27.589   2.716   5.224
79768W        W80632  26.886   3.167   4.695
79769W        W80633  25.968   0.537   4.087
79770W        W80634  27.196   0.188   5.756
79771W        W80635  26.199   3.353   3.800
79772W        W80636  26.558   1.738   4.298
79773W        W80637  27.267   2.369   6.646
79774W        W80638  27.132   0.696   4.810
79775W        W80639  28.395   0.258   5.083
79776W        W80640  28.150   3.530   5.411
79777W        W80641  27.580   3.416   5.792
79778W        W80642  26.855   2.259   5.712
79779W        W80643  28.735   3.070   6.093
79780W        W80644  26.420   0.417   4.570
79781W        W80645  26.809   2.796   5.633
79782W        W80646  26.531   0.552   3.675
79783W        W80647  27.211   1.493   5.969
79784W        W80648  28.075   0.245   5.897
79785W        W80649  25.543   1.985   5.880
79786W        W80650  27.078   1.717   3.896
79787W        W80651  26.388   0.224   4.052
79788W        W80652  27.156   1.212   4.821
79789W        W80653  28.053   0.544   6.320
79790W        W80654  26.778   2.266   6.515
79791W        W80655  27.558   1.986   6.852
79792W        W80656  28.084   2.098   6.755
79793W        W80657  27.432   0.388   7.439
79794W        W80658  26.727   0.714   5.531
79795W        W80659  26.136   0.597   4.995
79796W        W80660  25.984   3.348   4.731
79797W        W80661  27.355   2.883   6.754
79798W        W80662  26.211   2.082   4.101
79799W        W80663  27.926   1.945   5.455
79800W        W80664  28.104   1.630   5.835
79801W        W80665  27.248   1.926   5.692
79802W        W80666  27.709   2.403   3.690
79803W        W80667  27.557   0.568   5.089
79804W        W80668  28.895   0.918   4.497
79805W        W80669  25.766   3.297   6.699
79806W        W80670  25.937   2.604   6.078
79807W        W80671  25.624   3.519   4.415
79808W        W80672  27.490   0.517   6.066
79809W        W80673  26.511   2.949   3.975
79810W        W80674  28.866   3.121   4.194
79811W        W80675  27.534   1.757   4.118
79812W        W80676  26.716   0.928   4.587
79813W        W80677  27.394   0.863   3.732
79814W        W80678  27.756   2.497   6.852
79815W        W80679  28.145   0.566   4.430
79816W        W80680  25.608   0.209   3.904
79817W        W80681  26.883   2.578   6.106
79818W        W80682  26.576   2.407   5.297
79819W        W80683  26.391   2.475   3.821
79820W        W80684  25.692   2.768   4.217
79821W        W80685  26.306   1.664   6.901
79822W        W80686  26.919   0.391   7.223
79823W        W80687  27.613   0.337   6.528
79824W        W80688  26.901   0.224   4.827
79825W        W80689  27.726   0.198   4.183
79826W        W80690  25.937   0.260   5.763
79827W        W80691  25.830   1.013   5.045
79828W        W80692  28.593   0.271   5.643
79829W        W80693  26.025   0.792   4.539
79830W        W80694  28.547   0.653   6.168
79831W        W80695  28.878   1.612   3.802
79832W        W80696  26.300   0.442   5.458
79833W        W80697  27.356   1.041   6.661
79834W        W80698  25.470   0.727   4.006
79835W        W80699  26.276   2.122   6.586
79836W        W80700  27.599   1.564   5.599
79837W        W80701  27.245   3.444   3.742
79838W        W80702  25.548   1.977   3.683
79839W        W80703  26.471   2.564   6.811
79840W        W80704  25.988   1.681   6.477
79841W        W80705  26.915   1.922   6.123
79842W        W80706  28.467   0.214   6.429
79843W        W80707   0.053   1.854   6.651
79844W        W80708  28.987   1.779   4.290
79845W        W80709  27.692   2.252   4.193
79846W        W80710  28.394   3.691   3.739
79847W        W80711  27.492   1.741   7.350
79848W        W80712  26.048   2.476   7.093
79849W        W80713   0.011   0.698   7.012
79850W        W80714  28.500   1.300   5.597
79851W        W80715  27.246   3.598   7.007
79852W        W80716  26.907   0.238   3.887
79853W        W80717  28.711   2.610   4.058
79854W        W80718  26.395   0.852   6.820
79855W        W80719  26.864   2.794   6.573
79856W        W80720  28.892   0.876   6.468
79857W        W80721  28.044   3.959   4.055
79858W        W80722  28.271   2.193   5.760
79859W        W80723  26.624   0.500   6.465
79860W        W80724  26.971   1.645   7.228
79861W        W80725  26.201   2.573   4.304
79862W        W80726  28.265   2.097   4.681
79863W        W80727  26.213   0.820   6.341
79864W        W80728  27.194   2.792   4.877
79865W        W80729  28.935   1.513   5.217
79866W        W80730  27.132   0.212   6.790
79867W        W80731  28.263   2.766   5.814
79868W        W80732  28.575   3.166   5.597
79869W        W80733  27.376   2.703   3.999
79870W        W80734  25.665   2.803   6.949
79871W        W80735  26.560   0.925   5.962
79872W        W80736  26.414   0.149   5.035
79873W        W80737  27.934   0.751   5.841
79874W        W80738  26.718   2.080   3.919
79875W        W80739  28.739   2.203   5.555
79876W        W80740  26.138   2.953   6.872
79877W        W80741  28.641   3.685   4.697
79878W        W80742  26.642   0.634   5.023
79879W        W80743  26.212   1.976   5.109
79880W        W80744  26.722   3.644   6.021
79881W        W80745  28.631   3.671   6.961
79882W        W80746  27.710   1.951   5.939
79883W        W80747  25.736   1.568   3.941
79884W        W80748  28.956   3.260   4.686
79885W        W80749  28.584   0.673   4.184
79886W        W80750  26.688  28.995   6.581
79887W        W80751  28.495   2.625   5.377
79888W        W80752  28.455   1.442   5.049
79889W        W80753  26.763   1.118   5.167
79890W        W80754  27.046   1.425   6.480
79891W        W80755  28.092   2.537   6.428
79892W        W80756  26.747   1.000   6.443
79893W        W80757  26.764   3.384   5.234
79894W        W80758  26.245   3.448   6.974
79895W        W80759  26.022   2.850   3.789
79896W        W80760  28.643   2.401   4.904
79897W        W80761  26.327   1.291   6.539
79898W        W80762   0.039   1.275   4.160
79899W        W80763  26.628   2.273   4.377
79900W        W80764  27.705   1.461   6.143
79901W        W80765  26.310   1.757   6.058
79902W        W80766  28.432   3.512   6.140
79903W        W80767  28.097   0.314   6.798
79904W        W80768  25.978   0.512   6.737
79905W        W80769  26.425   1.360   5.615
79906W        W80770  26.554   1.067   3.730
79907W        W80771  25.563   2.862   6.457
79908W        W80772  26.809   1.684   5.673
79909W        W80773  26.922   0.778   3.935
79910W        W80774  26.247   1.605   4.744
79911W        W80775  25.759   3.458   6.184
79912W        W80776  28.469   1.724   4.115
79913W        W80777  28.531   0.619   6.759
79914W        W80778  28.174   2.625   4.971
79915W        W80779  25.809   1.544   6.959
79916W        W80780  28.626   0.165   4.132
79917W        W80781  28.390   2.582   4.488
79918W        W80782  27.191   1.466   4.375
79919W        W80783  28.179   0.403   3.941
79920W        W80784  28.262   1.122   6.019
79921W        W80785  26.072   1.444   5.209
79922W        W80786  26.319   2.523   4.847
79923W        W80787  28.015   1.205   4.903
79924W        W80788  27.228   0.708   5.679
79925W        W80789   0.106   2.601   6.195
79926W        W80790  28.969   0.641   5.806
79927W        W80791  25.749   3.237   5.191
79928W        W80792  25.768   2.273   4.351
79929W        W80793  26.119   0.180   7.296
79930W        W80794  27.093   3.111   7.137
79931W        W80795   0.115   2.016   5.246
79932W        W80796  28.298   2.215   4.103
79933W        W80797  27.616   3.737   6.217
79934W        W80798  28.296   2.395   7.117
79935W        W80799  27.239   0.087   4.397
79936W        W80800  27.821   0.946   5.332
79937W        W80801  25.585   2.453   5.612
79938W        W80802  26.901   0.502   4.371
79939W        W80803  26.631   2.085   6.994
79940W        W80804  27.598   0.966   4.748
79941W        W80805  27.850   2.451   5.956
79942W        W80806  26.039   3.037   6.358
79943W        W80807  26.581   3.013   7.120
79944W        W80808  26.437   0.769   4.159
79945W        W80809  28.002   1.090   4.383
79946W        W80810  27.865   2.992   6.667
79947W        W80811  26.590   1.611   5.182
79948W        W80812  26.281   3.360   6.049
79949W        W80813  28.944   3.438   3.734
79950W        W80814  25.825   2.062   6.847
79951W        W80815  27.541   2.304   5.541
79952W        W80816  26.201   2.096   4.604
79953W        W80817  26.722   3.089   6.136
79954W        W80818  27.087   0.459   5.261
79955W        W80819  25.422   2.391   3.952
79956W        W80820  27.055   1.246   3.727
79957W        W80821  25.771   1.769   4.899
79958W        W80822  27.160   0.610   6.468
79959W        W80823  28.661   0.425   3.704
79960W        W80824  28.764   2.113   7.013
79961W        W80825  27.607   3.222   7.077
79962W        W80826   0.053   2.390   6.670
79963W        W80827  28.554   3.141   7.153
79964W        W80828  26.350   3.648   5.636
79965W        W80829   0.110   2.234   4.783
79966W        W80830  27.578   1.393   5.087
79967W        W80831  27.429   0.102   4.870
79968W        W80832  26.397   3.058   4.743
79969W        W80833  27.162   0.998   6.128
79970W        W80834  26.735   0.176   5.521
79971W        W80835  25.740   3.227   4.003
79972W        W80836  27.286   2.260   4.905
79973W        W80837  26.500   3.181   6.595
79974W        W80838  25.883   1.759   4.389
79975W        W80839  25.823   0.646   5.399
79976W        W80840  27.098   2.509   5.315
79977W        W80841  25.577   0.390   4.399
79978W        W80842  28.192   1.521   6.334
79979W        W80843  28.200   0.923   3.928
79980W        W80844  28.846   2.691   5.747
79981W        W80845  27.188   3.032   5.348
79982W        W80846  26.579   3.354   4.305
79983W        W80847  27.844   0.044   3.713
79984W        W80848  25.909   3.351   5.674
79985W        W80849  27.681   1.104   7.098
79986W        W80850  26.037   0.692   7.224
79987W        W80851  25.839   1.289   4.612
79988W        W80852  26.307   1.246   4.368
79989W        W80853  27.873   1.607   7.031
79990W        W80854  26.422   1.992   5.578
79991W        W80855  27.949   0.132   4.656
79992W        W80856  27.249   3.549   5.407
79993W        W80857  28.245   3.005   6.280
79994W        W80858  28.138   3.004   5.352
79995W        W80859  27.806   2.243   5.032
79996W        W80860  27.319   0.476   4.066
79997W        W80861  28.925   0.156   4.890
79998W        W80862  26.589   1.604   3.750
79999W        W80863  28.818   1.052   4.989
80000W        W80864  27.239   2.202   3.944
80001W        W80865  28.530   2.360   6.636
80002W        W80866  27.863   2.749   3.333
80003W        W80867  26.892   0.767   6.881
80004W        W80868  26.695   1.403   6.096
80005W        W80869  28.785   2.846   6.553
80006W        W80870  27.825   0.765   6.730
80007W        W80871  25.592   1.320   6.543
80008W        W80872  27.370   1.816   6.351
80009W        W80873  25.830   2.289   4.895
80010W        W80874  25.984   1.679   5.664
80011W        W80875  28.219   2.049   6.248
80012W        W80876  28.116   3.379   6.990
80013W        W80877  27.839   1.279   6.632
80014W        W80878  28.312   3.341   4.963
80015W        W80879  27.217   2.963   6.234
80016W        W80880  26.417   3.128   5.596
80017W        W80881  28.563   2.556   6.166
80018W        W80882  27.436   2.681   7.245
80019W        W80883  26.063   2.407   5.349
80020W        W80884  28.306   2.165   5.196
80021W        W80885  28.100   3.255   5.839
80022W        W80886  25.945   2.841   5.611
80023W        W80887  27.161   1.105   7.170
80024W        W80888  27.279   3.375   4.937
80025W        W80889  26.956   2.596   7.034
80026W        W80890  26.682   2.773   4.431
80027W        W80891  26.129   1.347   3.722
80028W        W80892  25.617   3.728  10.667
80029W        W80893  26.019   2.569  10.284
80030W        W80894  28.655   2.093   7.965
80031W        W80895  28.645   3.299   9.927
80032W        W80896  26.816   3.392   7.502
80033W        W80897  26.739   1.370   8.369
80034W        W80898  26.214   1.231   8.501
80035W        W80899  27.270   2.096   8.135
80036W        W80900  27.057   3.245  10.503
80037W        W80901  25.606   0.798  10.319
80038W        W80902  26.254   0.139  10.085
80039W        W80903  28.071   0.485   9.032
80040W        W80904  27.712   1.327   7.753
80041W        W80905  28.288   0.911  10.663
80042W        W80906  25.911   0.505   9.876
80043W        W80907  25.782   3.257  10.829
80044W        W80908  27.011   2.471   7.547
80045W        W80909  25.776   1.204   9.316
80046W        W80910  26.775   1.418  10.468
80047W        W80911  28.954   0.933   9.058
80048W        W80912  28.793   2.039   9.847
80049W        W80913  27.258   1.609   9.070
80050W        W80914  27.845   2.870   9.395
80051W        W80915  26.138   2.192   9.538
80052W        W80916  25.495   1.626   9.221
80053W        W80917  26.594   1.787  10.138
80054W        W80918  28.836   1.533  10.574
80055W        W80919  26.470   2.969   8.983
80056W        W80920  27.639   2.682  10.067
80057W        W80921  27.051   1.183   9.254
80058W        W80922  27.010   2.065   9.026
80059W        W80923  27.861   2.969  10.855
80060W        W80924  27.294   2.046  10.862
80061W        W80925  27.176   1.830  10.390
80062W        W80926  25.540   1.120  10.732
80063W        W80927  28.295   2.777  10.660
80064W        W80928  25.945   0.258   8.346
80065W        W80929  26.521   2.607   9.564
80066W        W80930   0.034   2.479   8.853
80067W        W80931  28.515   0.663   9.246
80068W        W80932  28.630   0.907   7.362
80069W        W80933   0.215   1.559   9.795
80070W        W80934  27.140   3.274   9.603
80071W        W80935  28.802   2.600   7.946
80072W        W80936  25.999   3.638   7.866
80073W        W80937  26.348   3.497   8.265
80074W        W80938  26.378   0.442   9.614
80075W        W80939  28.771   1.235  10.000
80076W        W80940  28.135   1.723   8.605
80077W        W80941  28.033   1.659   7.521
80078W        W80942  27.385   2.796   9.622
80079W        W80943  27.154   0.863   8.858
80080W        W80944  27.739   3.148   9.836
80081W        W80945  28.566   1.744   8.336
80082W        W80946  27.305   0.459   8.466
80083W        W80947  26.173   3.133   7.942
80084W        W80948  25.605   0.585   8.592
80085W        W80949  28.081   1.374   9.001
80086W        W80950  25.953   2.910   8.973
80087W        W80951  27.128   2.973   7.637
80088W        W80952  28.446   1.381   7.346
80089W        W80953  25.726   3.029   9.611
80090W        W80954  26.485   2.712  10.097
80091W        W80955  26.801   1.894   8.311
80092W        W80956  26.883   0.541   9.698
80093W        W80957   0.104   0.083   9.025
80094W        W80958  26.167   2.006   7.263
80095W        W80959  25.983   0.992   7.644
80096W        W80960  26.115   2.936   8.452
80097W        W80961  26.995   2.330   8.544
80098W        W80962  28.424   3.180  10.369
80099W        W80963  27.357   1.068   8.017
80100W        W80964  28.657   2.939   8.713
80101W        W80965  28.406   1.373  10.369
80102W        W80966   0.089   2.784   8.442
80103W        W80967  27.785   2.194  10.099
80104W        W80968  25.691   1.648   8.423
80105W        W80969  26.726   2.167   9.701
80106W        W80970  27.657   1.404   8.278
80107W        W80971  27.711   1.910   8.357
80108W        W80972  26.139   1.314   9.696
80109W        W80973  26.036   1.220  10.645
80110W        W80974  25.872   0.222   8.861
80111W        W80975  27.740   0.552   9.418
80112W        W80976  27.450   0.671  10.587
80113W        W80977  27.829   0.542   7.743
80114W        W80978  28.942   3.308  10.363
80115W        W80979  27.743   0.218  10.626
80116W        W80980  28.995   2.512  10.826
80117W        W80981  28.380   0.871  10.166
80118W        W80982  27.960   0.618   8.507
80119W        W80983  28.468   1.841  10.821
80120W        W80984  26.193   3.348   8.752
80121W        W80985  26.848   1.118   7.942
80122W        W80986  26.391   0.372  10.578
80123W        W80987  28.359   0.908   8.289
80124W        W80988  28.699   1.265   8.175
80125W        W80989  26.641   3.483  10.732
80126W        W80990  26.726   0.005   8.021
80127W        W80991  28.810   0.477   8.845
80128W        W80992   0.028   2.950   7.344
80129W        W80993  25.875   2.115   9.041
80130W        W80994  27.866   0.572   7.214
80131W        W80995  28.939   2.902   9.153
80132W        W80996  28.830   0.244   9.752
80133W        W80997  27.578   1.461  10.417
80134W        W80998  27.325   2.584   7.962
80135W        W80999  27.865   2.038  10.978
80136W        W81000  27.665   0.110   9.163
80137W        W81001  26.189   1.068   9.009
80138W        W81002  25.821   2.200   9.951
80139W        W81003  27.514   3.401   8.776
80140W        W81004  28.816   0.950   9.567
80141W        W81005  27.673   3.460  10.255
80142W        W81006  28.787   2.339   7.482
80143W        W81007  27.244   1.860   8.597
80144W        W81008   0.024   0.263  10.229
80145W        W81009  27.322   2.281   9.880
80146W        W81010  27.556   1.037   9.497
80147W        W81011  28.179   1.395   8.189
80148W        W81012  28.371   1.100   7.802
80149W        W81013  28.462   2.858   8.234
80150W        W81014  28.102   2.388   9.193
80151W        W81015  28.092   1.864   7.989
80152W        W81016  27.526   2.056   8.995
80153W        W81017  28.510   1.674   9.033
80154W        W81018  26.080   0.833   9.483
80155W        W81019  28.586   1.890  10.306
80156W        W81020  28.985   3.381   9.544
80157W        W81021  26.954   2.953   8.839
80158W        W81022  28.141   3.461  10.016
80159W        W81023  27.908   0.846   9.838
80160W        W81024  27.236   3.600  10.002
80161W        W81025  28.697   0.520   8.334
80162W        W81026  28.764   1.561   9.500
80163W        W81027  25.739   1.016   9.854
80164W        W81028  28.376   0.831   8.792
80165W        W81029  28.798   1.028  10.493
80166W        W81030  27.754   2.655   8.921
80167W        W81031  27.084   3.311   8.483
80168W        W81032  26.056   0.481   7.725
80169W        W81033  27.202   0.178   9.471
80170W        W81034  26.288   3.358   7.490
80171W        W81035  26.739   1.629   7.849
80172W        W81036  27.358   2.358  10.403
80173W        W81037  27.027   0.912   8.379
80174W        W81038  28.350   0.299   8.649
80175W        W81039  27.964   3.751   9.202
80176W        W81040  27.604   3.406   9.382
80177W        W81041  27.093   2.388   9.426
80178W        W81042  28.794   2.911   9.647
80179W        W81043  26.386   0.380   8.138
80180W        W81044  26.927   2.875   9.360
80181W        W81045  26.542   0.726   7.298
80182W        W81046  27.289   1.460   9.625
80183W        W81047  28.142   0.225   9.487
80184W        W81048  25.644   2.037   9.508
80185W        W81049  27.126   1.912   7.675
80186W        W81050  26.530   0.270   7.602
80187W        W81051  27.220   1.335   8.620
80188W        W81052  28.033   0.367   9.966
80189W        W81053  26.872   2.244  10.200
80190W        W81054  27.662   1.946  10.520
80191W        W81055  28.148   2.089  10.480
80192W        W81056  27.374   0.340  10.979
80193W        W81057  26.709   0.795   9.270
80194W        W81058  26.122   0.701   8.626
80195W        W81059  25.861   3.391   8.351
80196W        W81060  27.466   2.894  10.517
80197W        W81061  26.254   1.863   7.762
80198W        W81062  28.025   1.883   9.104
80199W        W81063  28.212   1.556   9.457
80200W        W81064  27.360   1.942   9.476
80201W        W81065  27.949   2.520   7.532
80202W        W81066  27.586   0.583   8.902
80203W        W81067   0.085   0.926   8.081
80204W        W81068  25.813   3.432  10.255
80205W        W81069  26.046   2.648   9.783
80206W        W81070  25.466   3.500   8.038
80207W        W81071  27.396   0.588   9.780
80208W        W81072  26.603   2.937   7.641
80209W        W81073  28.702   3.112   7.743
80210W        W81074  27.597   1.809   7.858
80211W        W81075  26.532   0.863   8.324
80212W        W81076  27.482   0.896   7.537
80213W        W81077  27.833   2.480  10.618
80214W        W81078  28.237   0.458   8.075
80215W        W81079  25.692   0.134   7.585
80216W        W81080  26.947   2.651   9.851
80217W        W81081  26.747   2.506   9.056
80218W        W81082  26.523   2.519   7.323
80219W        W81083  25.707   2.971   8.113
80220W        W81084  26.284   1.661  10.538
80221W        W81085  26.852   0.312  10.817
80222W        W81086  27.571   0.353  10.176
80223W        W81087  26.853   0.189   8.496
80224W        W81088  27.733   0.264   8.175
80225W        W81089  25.922   0.332   9.384
80226W        W81090  25.745   1.077   8.658
80227W        W81091  28.618   0.157   9.270
80228W        W81092  26.063   0.809   8.127
80229W        W81093  28.436   0.591   9.740
80230W        W81094  28.755   1.822   7.463
80231W        W81095  26.295   0.550   9.092
80232W        W81096  27.480   0.954  10.147
80233W        W81097  25.589   0.651   7.560
80234W        W81098  26.327   2.215  10.019
80235W        W81099  27.700   1.539   9.316
80236W        W81100  27.336   3.445   7.490
80237W        W81101  25.655   1.879   7.317
80238W        W81102  26.448   2.337  10.500
80239W        W81103  26.060   1.728  10.044
80240W        W81104  27.040   1.830   9.890
80241W        W81105  28.490   0.207  10.138
80242W        W81106   0.107   1.819  10.227
80243W        W81107   0.141   2.069   7.786
80244W        W81108  27.788   2.294   8.015
80245W        W81109  28.406   3.613   7.412
80246W        W81110  27.576   1.597  10.938
80247W        W81111  26.113   2.620  10.792
80248W        W81112   0.116   0.647  10.775
80249W        W81113  28.520   1.185   9.199
80250W        W81114  27.101   3.491  10.955
80251W        W81115  27.035   0.224   7.692
80252W        W81116  28.458   2.730   7.474
80253W        W81117  26.481   0.991  10.571
80254W        W81118  26.989   2.745  10.350
80255W        W81119  28.852   0.714  10.036
80256W        W81120  28.141   3.749   7.832
80257W        W81121  28.413   2.044   9.455
80258W        W81122  26.551   0.559  10.112
80259W        W81123  27.041   1.601  10.862
80260W        W81124  26.474   2.743   8.108
80261W        W81125  28.257   2.184   8.332
80262W        W81126  26.115   0.847  10.225
80263W        W81127  27.403   2.893   8.600
80264W        W81128  28.991   1.474   8.556
80265W        W81129  27.237   0.172  10.518
80266W        W81130  28.355   2.765   9.450
80267W        W81131  28.569   3.241   9.269
80268W        W81132  27.662   3.036   7.563
80269W        W81133  25.661   2.795  10.608
80270W        W81134  26.519   0.939   9.749
80271W        W81135  26.360   0.243   8.664
80272W        W81136  28.051   0.953   9.303
80273W        W81137  26.673   2.062   7.513
80274W        W81138  28.812   2.083   9.119
80275W        W81139  26.103   3.050  10.465
80276W        W81140  28.516   3.641   8.264
80277W        W81141  26.708   0.613   8.761
80278W        W81142  26.559   2.121   8.731
80279W        W81143  26.772   3.639   9.750
80280W        W81144  28.626   3.502  10.709
80281W        W81145  27.880   1.956   9.615
80282W        W81146  25.963   1.502   7.509
80283W        W81147  28.827   3.217   8.294
80284W        W81148  28.683   0.699   7.850
80285W        W81149  26.752   0.107  10.307
80286W        W81150  28.563   2.554   9.034
80287W        W81151  28.474   1.322   8.645
80288W        W81152  26.697   1.126   8.834
80289W        W81153  27.170   1.376  10.125
80290W        W81154  28.146   2.550  10.217
80291W        W81155  26.816   0.998  10.175
80292W        W81156  26.719   3.465   8.824
80293W        W81157  26.150   3.554  10.626
80294W        W81158  26.134   2.872   7.419
80295W        W81159  28.675   2.450   8.481
80296W        W81160  26.364   1.302  10.161
80297W        W81161  28.867   1.241   7.692
80298W        W81162  26.833   2.356   8.030
80299W        W81163  28.004   1.694  10.169
80300W        W81164  27.839   1.373   9.790
80301W        W81165  26.418   1.756   9.658
80302W        W81166  28.485   3.656   9.598
80303W        W81167  28.243   0.323  10.654
80304W        W81168  25.907   0.379  10.394
80305W        W81169  26.535   1.300   9.343
80306W        W81170  26.732   1.180   7.447
80307W        W81171  25.692   2.937  10.116
80308W        W81172  26.878   1.710   9.403
80309W        W81173  26.989   0.744   7.603
80310W        W81174  26.322   1.658   8.222
80311W        W81175  25.785   3.547   9.748
80312W        W81176  28.499   1.601   7.831
80313W        W81177  28.676   0.540  10.504
80314W        W81178  28.218   2.609   8.650
80315W        W81179  25.752   1.675  10.654
80316W        W81180  28.591   0.192   7.782
80317W        W81181  28.297   2.479   7.915
80318W        W81182  27.184   1.567   8.129
80319W        W81183  28.293   0.555   7.534
80320W        W81184  28.340   1.124   9.711
80321W        W81185  25.890   1.519   8.885
80322W        W81186  26.575   2.623   8.592
80323W        W81187  27.983   1.131   8.580
80324W        W81188  27.223   0.678   9.317
80325W        W81189   0.144   2.588   9.830
80326W        W81190   0.005   0.512   9.355
80327W        W81191  25.660   3.325   8.831
80328W        W81192  25.971   2.527   8.155
80329W        W81193  25.947   0.213  10.885
80330W        W81194  26.849   3.026  10.955
80331W        W81195  28.908   1.993   8.634
80332W        W81196  28.312   2.105   7.565
80333W        W81197  27.825   3.781   9.713
80334W        W81198  28.302   2.328  10.910
80335W        W81199  27.235   0.053   8.142
80336W        W81200  27.595   1.124   8.982
80337W        W81201  25.780   2.545   9.352
80338W        W81202  26.869   0.524   8.082
80339W        W81203  26.725   1.924  10.614
80340W        W81204  27.530   0.924   8.488
80341W        W81205  28.006   2.483   9.717
80342W        W81206  26.146   3.134   9.952
80343W        W81207  26.552   2.821  10.602
80344W        W81208  26.482   0.779   7.802
80345W        W81209  27.883   0.945   8.075
80346W        W81210  27.936   3.021  10.333
80347W        W81211  26.801   1.645   8.813
80348W        W81212  26.286   3.500   9.620
80349W        W81213  28.907   3.455   7.384
80350W        W81214  25.985   2.081  10.435
80351W        W81215  27.613   2.393   9.380
80352W        W81216  26.376   2.214   8.255
80353W        W81217  26.652   3.092   9.776
80354W        W81218  27.128   0.328   8.941
80355W        W81219  25.592   2.203   7.737
80356W        W81220  27.195   1.382   7.628
80357W        W81221  26.091   1.929   8.605
80358W        W81222  27.079   0.546  10.190
80359W        W81223  28.768   0.414   7.355
80360W        W81224  28.928   2.031  10.661
80361W        W81225  27.591   3.417  10.775
80362W        W81226   0.031   2.331  10.247
80363W        W81227  28.780   2.982  10.728
80364W        W81228  26.341   3.644   9.136
80365W        W81229   0.092   2.287   8.243
80366W        W81230  27.671   1.595   8.771
80367W        W81231  27.332  28.933   8.649
80368W        W81232  26.597   3.115   8.481
80369W        W81233  27.090   1.001   9.742
80370W        W81234  26.728   0.254   9.265
80371W        W81235  25.718   3.240   7.676
80372W        W81236  27.502   2.380   8.501
80373W        W81237  26.567   3.219  10.275
80374W        W81238  25.905   1.999   8.112
80375W        W81239  25.801   0.718   9.048
80376W        W81240  27.259   2.522   8.956
80377W        W81241  25.572   0.410   8.021
80378W        W81242  28.442   1.613   9.901
80379W        W81243  27.992   0.985   7.499
80380W        W81244  28.799   2.430   9.472
80381W        W81245  27.392   2.995   9.135
80382W        W81246  26.783   3.257   8.019
80383W        W81247  27.862   0.086   7.473
80384W        W81248  25.910   3.384   9.263
80385W        W81249  27.798   1.134  10.775
80386W        W81250  26.054   0.726  10.774
80387W        W81251  25.895   1.322   8.066
80388W        W81252  26.357   1.296   7.819
80389W        W81253  28.033   1.590  10.667
80390W        W81254  26.525   2.059   9.235
80391W        W81255  27.833   0.134   8.671
80392W        W81256  27.136   3.455   9.119
80393W        W81257  28.245   2.958   9.910
80394W        W81258  28.198   2.975   9.013
80395W        W81259  27.922   2.200   8.722
80396W        W81260  27.360   0.555   7.946
80397W        W81261  28.997   0.122   8.493
80398W        W81262  26.475   1.606   7.380
80399W        W81263  28.837   0.954   8.559
80400W        W81264  27.499   2.252   7.574
80401W        W81265  28.582   2.395  10.470
80402W        W81266  28.188   3.165   7.540
80403W        W81267  26.941   0.773  10.637
80404W        W81268  26.757   1.396   9.814
80405W        W81269  28.743   2.840  10.178
80406W        W81270  27.929   0.669  10.368
80407W        W81271  25.735   1.337  10.251
80408W        W81272  27.531   1.763   9.982
80409W        W81273  26.100   2.461   8.665
80410W        W81274  26.008   1.697   9.356
80411W        W81275  28.262   2.088   9.957
80412W        W81276  28.090   3.426  10.660
80413W        W81277  27.958   1.167  10.259
80414W        W81278  28.558   3.462   8.760
80415W        W81279  27.273   3.071  10.060
80416W        W81280  26.682   3.323   9.323
80417W        W81281  28.528   2.505   9.881
80418W        W81282  27.409   2.539  10.905
80419W        W81283  26.246   2.512   9.145
80420W        W81284  28.414   2.121   8.810
80421W        W81285  28.112   3.305   9.508
80422W        W81286  26.225   3.008   9.436
80423W        W81287  27.268   1.164  10.698
80424W        W81288  27.321   3.268   8.017
80425W        W81289  26.933   2.394  10.721
80426W        W81290  26.977   2.815   8.291
80427W        W81291  26.245   1.179   7.205
80428W        W81292  25.566   3.695  14.346
80429W        W81293  25.984   2.539  13.910
80430W        W81294  28.678   2.275  11.623
80431W        W81295  28.675   3.257  13.553
80432W        W81296  26.649   3.425  11.248
80433W        W81297  26.659   1.469  12.093
80434W        W81298  26.284   1.106  12.118
80435W        W81299  27.375   1.935  11.774
80436W        W81300  27.019   3.287  14.069
80437W        W81301  25.582   0.880  13.839
80438W        W81302  26.094   0.201  13.614
80439W        W81303  28.113   0.594  12.689
80440W        W81304  27.757   1.271  11.330
80441W        W81305  28.229   0.932  14.321
80442W        W81306  25.712   0.548  13.436
80443W        W81307  25.731   3.229  14.462
80444W        W81308  27.012   2.490  11.283
80445W        W81309  25.821   1.233  12.870
80446W        W81310  26.606   1.396  14.218
80447W        W81311  28.993   1.140  12.687
80448W        W81312  28.741   2.106  13.584
80449W        W81313  27.211   1.541  12.694
80450W        W81314  27.807   2.877  13.046
80451W        W81315  26.057   2.130  13.161
80452W        W81316  25.485   1.636  12.850
80453W        W81317  26.583   1.770  13.840
80454W        W81318  28.824   1.521  14.227
80455W        W81319  26.417   2.902  12.605
80456W        W81320  27.605   2.697  13.683
80457W        W81321  26.973   1.190  12.973
80458W        W81322  27.036   2.055  12.622
80459W        W81323  27.790   2.918  14.470
80460W        W81324  27.195   2.100  14.466
80461W        W81325  27.082   1.916  13.999
80462W        W81326  25.399   1.168  14.552
80463W        W81327  28.273   2.843  14.238
80464W        W81328  25.975   0.254  11.936
80465W        W81329  26.509   2.473  13.190
80466W        W81330  28.993   2.523  12.485
80467W        W81331  28.563   0.859  12.949
80468W        W81332  28.686   0.852  10.997
80469W        W81333   0.223   1.605  13.446
80470W        W81334  27.174   3.248  13.175
80471W        W81335  28.821   2.791  11.636
80472W        W81336  25.957   3.603  11.658
80473W        W81337  26.318   3.445  12.033
80474W        W81338  26.356   0.436  13.221
80475W        W81339  28.776   1.431  13.677
80476W        W81340  28.223   1.863  12.289
80477W        W81341  28.136   1.622  11.166
80478W        W81342  27.362   2.736  13.233
80479W        W81343  27.323   1.011  12.587
80480W        W81344  27.685   3.175  13.452
80481W        W81345  28.661   1.903  11.984
80482W        W81346  27.666   0.575  11.893
80483W        W81347  26.267   3.215  11.543
80484W        W81348  25.631   0.648  12.083
80485W        W81349  28.102   1.476  12.600
80486W        W81350  25.914   2.904  12.705
80487W        W81351  27.083   3.194  11.402
80488W        W81352  28.496   1.331  10.906
80489W        W81353  25.715   2.972  13.255
80490W        W81354  26.449   2.704  13.677
80491W        W81355  26.710   2.018  12.139
80492W        W81356  26.849   0.499  13.333
80493W        W81357  28.981   0.215  12.623
80494W        W81358  26.292   2.045  10.903
80495W        W81359  26.258   1.101  11.145
80496W        W81360  26.074   2.944  12.179
80497W        W81361  26.937   2.498  12.217
80498W        W81362  28.413   3.306  14.019
80499W        W81363  27.426   0.961  11.627
80500W        W81364  28.680   3.532  12.354
80501W        W81365  28.393   1.326  14.021
80502W        W81366   0.107   2.826  12.091
80503W        W81367  27.745   2.213  13.754
80504W        W81368  25.633   1.426  11.963
80505W        W81369  26.331   2.203  13.590
80506W        W81370  27.565   1.443  11.821
80507W        W81371  27.745   1.855  12.110
80508W        W81372  26.139   1.306  13.305
80509W        W81373  25.869   1.086  14.317
80510W        W81374  25.860   0.234  12.456
80511W        W81375  27.624   0.572  12.922
80512W        W81376  27.399   0.672  14.251
80513W        W81377  27.856   0.635  11.391
80514W        W81378  28.931   3.287  13.994
80515W        W81379  27.714   0.218  14.205
80516W        W81380  28.803   2.584  14.373
80517W        W81381  28.324   0.843  13.805
80518W        W81382  28.068   0.738  12.187
80519W        W81383  28.387   1.880  14.510
80520W        W81384  26.141   3.339  12.507
80521W        W81385  26.924   1.069  11.524
80522W        W81386  26.365   0.382  14.225
80523W        W81387  28.407   1.064  11.972
80524W        W81388  28.758   1.426  11.818
80525W        W81389  26.599   3.536  14.247
80526W        W81390  26.459   0.213  11.588
80527W        W81391  28.798   0.684  12.529
80528W        W81392   0.078   2.920  11.166
80529W        W81393  25.797   2.083  12.703
80530W        W81394  27.889   0.638  10.878
80531W        W81395   0.024   3.019  12.759
80532W        W81396  28.857   0.358  13.333
80533W        W81397  27.489   1.474  14.066
80534W        W81398  27.225   2.420  11.764
80535W        W81399  27.841   2.007  14.612
80536W        W81400  27.593   0.078  12.663
80537W        W81401  26.224   0.997  12.635
80538W        W81402  25.778   2.170  13.610
80539W        W81403  27.617   3.271  12.417
80540W        W81404  28.900   1.266  13.193
80541W        W81405  27.512   3.387  13.890
80542W        W81406  28.744   2.160  11.128
80543W        W81407  27.187   1.771  12.219
80544W        W81408   0.007   0.403  13.888
80545W        W81409  27.348   2.273  13.451
80546W        W81410  27.500   1.050  13.096
80547W        W81411  28.305   1.324  11.545
80548W        W81412  28.794   1.236  11.335
80549W        W81413  28.430   3.030  11.919
80550W        W81414  28.127   2.492  12.827
80551W        W81415  28.155   1.778  11.770
80552W        W81416  27.543   1.939  12.595
80553W        W81417  28.509   1.839  12.726
80554W        W81418  26.059   0.827  13.098
80555W        W81419  28.509   1.835  13.984
80556W        W81420  28.997   3.350  13.155
80557W        W81421  26.920   2.925  12.529
80558W        W81422  27.998   3.531  13.794
80559W        W81423  27.803   0.853  13.510
80560W        W81424  27.221   3.644  13.552
80561W        W81425  28.663   0.618  11.964
80562W        W81426  28.680   1.730  13.225
80563W        W81427  25.669   1.066  13.357
80564W        W81428  28.377   1.014  12.490
80565W        W81429  28.851   1.044  14.051
80566W        W81430  27.736   2.714  12.562
80567W        W81431  27.060   3.257  12.162
80568W        W81432  26.102   0.530  11.280
80569W        W81433  27.225   0.196  13.047
80570W        W81434  26.114   3.545  11.162
80571W        W81435  26.496   1.750  11.704
80572W        W81436  27.264   2.407  13.993
80573W        W81437  27.199   0.701  12.145
80574W        W81438  28.438   0.366  12.360
80575W        W81439  28.014   3.626  12.663
80576W        W81440  27.640   3.376  12.940
80577W        W81441  26.974   2.261  13.090
80578W        W81442  28.817   2.876  13.209
80579W        W81443  26.477   0.568  11.947
80580W        W81444  26.908   2.780  13.024
80581W        W81445  26.528   0.683  10.973
80582W        W81446  27.251   1.456  13.315
80583W        W81447  28.026   0.325  13.124
80584W        W81448  25.538   2.069  13.158
80585W        W81449  27.229   1.786  11.307
80586W        W81450  26.425   0.191  11.077
80587W        W81451  27.158   1.263  12.171
80588W        W81452  28.015   0.395  13.645
80589W        W81453  26.741   2.290  13.896
80590W        W81454  27.580   1.968  14.168
80591W        W81455  28.086   2.101  14.149
80592W        W81456  27.417   0.318  14.632
80593W        W81457  26.616   0.808  12.916
80594W        W81458  26.096   0.658  12.264
80595W        W81459  25.800   3.489  12.140
80596W        W81460  27.388   2.906  14.114
80597W        W81461  26.404   2.154  11.408
80598W        W81462  28.010   1.975  12.787
80599W        W81463  28.177   1.595  13.094
80600W        W81464  27.358   1.906  13.083
80601W        W81465  27.894   2.527  11.160
80602W        W81466  27.632   0.583  12.420
80603W        W81467   0.115   1.037  11.744
80604W        W81468  25.748   3.382  13.946
80605W        W81469  26.018   2.586  13.400
80606W        W81470  25.448   3.591  11.760
80607W        W81471  27.367   0.591  13.364
80608W        W81472  26.661   2.887  11.422
80609W        W81473  28.637   3.270  11.490
80610W        W81474  27.738   1.787  11.438
80611W        W81475  26.773   0.971  12.003
80612W        W81476  27.482   0.852  11.097
80613W        W81477  27.755   2.495  14.187
80614W        W81478  28.174   0.466  11.760
80615W        W81479  25.543   0.218  11.189
80616W        W81480  26.937   2.585  13.512
80617W        W81481  26.709   2.462  12.683
80618W        W81482  26.552   2.515  11.040
80619W        W81483  25.660   3.106  11.833
80620W        W81484  26.114   1.582  14.148
80621W        W81485  27.515   0.412  13.797
80622W        W81486  26.884   0.224  12.113
80623W        W81487  27.741   0.103  11.726
80624W        W81488  25.904   0.323  13.009
80625W        W81489  25.789   1.105  12.339
80626W        W81490  28.534   0.331  12.899
80627W        W81491  26.060   0.820  11.739
80628W        W81492  28.391   0.605  13.349
80629W        W81493  28.922   1.666  11.057
80630W        W81494  26.270   0.499  12.709
80631W        W81495  27.410   0.990  13.831
80632W        W81496  25.761   0.904  11.201
80633W        W81497  26.241   2.093  14.072
80634W        W81498  27.684   1.528  12.919
80635W        W81499  27.497   3.494  11.298
80636W        W81500  25.806   1.920  11.125
80637W        W81501  26.415   2.578  14.183
80638W        W81502  26.069   1.757  13.668
80639W        W81503  26.943   1.924  13.499
80640W        W81504  28.512   0.324  13.767
80641W        W81505   0.060   1.847  13.886
80642W        W81506   0.048   1.924  11.483
80643W        W81507  27.808   2.219  11.735
80644W        W81508  28.442   3.638  11.150
80645W        W81509  27.545   1.586  14.576
80646W        W81510  25.966   2.372  14.415
80647W        W81511   0.136   0.677  14.331
80648W        W81512  28.551   1.355  12.838
80649W        W81513  27.013   3.545  14.536
80650W        W81514  26.915   0.199  11.332
80651W        W81515  28.616   2.675  11.152
80652W        W81516  26.290   0.892  14.084
80653W        W81517  26.876   2.796  13.987
80654W        W81518  28.821   0.829  13.575
80655W        W81519  28.150   3.692  11.560
80656W        W81520  28.348   2.131  13.149
80657W        W81521  26.482   0.544  13.727
80658W        W81522  27.041   1.606  14.408
80659W        W81523  26.660   2.479  11.779
80660W        W81524  28.269   2.258  11.960
80661W        W81525  26.068   0.873  13.624
80662W        W81526  27.343   2.824  12.241
80663W        W81527   0.061   1.534  12.327
80664W        W81528  27.195   0.203  14.153
80665W        W81529  28.308   2.889  13.126
80666W        W81530  28.570   3.277  12.833
80667W        W81531  27.361   3.034  11.010
80668W        W81532  25.660   2.759  14.276
80669W        W81533  26.519   0.938  13.393
80670W        W81534  26.368   0.202  12.278
80671W        W81535  28.050   0.950  13.067
80672W        W81536  26.810   2.034  11.101
80673W        W81537  28.785   2.247  12.885
80674W        W81538  26.098   3.014  14.132
80675W        W81539  28.580   3.671  11.862
80676W        W81540  26.697   0.622  12.422
80677W        W81541  26.221   1.989  12.414
80678W        W81542  26.794   3.606  13.248
80679W        W81543  28.739   3.694  14.206
80680W        W81544  27.841   1.945  13.306
80681W        W81545  25.810   1.405  11.085
80682W        W81546  28.894   3.269  11.950
80683W        W81547  28.502   0.828  11.512
80684W        W81548  26.734   0.141  13.933
80685W        W81549  28.697   3.019  12.362
80686W        W81550  28.546   1.474  12.310
80687W        W81551  26.728   1.144  12.505
80688W        W81552  27.040   1.435  13.826
80689W        W81553  28.106   2.587  13.825
80690W        W81554  26.753   1.008  13.869
80691W        W81555  26.646   3.367  12.438
80692W        W81556  26.102   3.528  14.281
80693W        W81557  26.316   3.118  10.955
80694W        W81558  28.651   2.577  12.079
80695W        W81559  26.347   1.309  13.766
80696W        W81560   0.287   1.412  11.371
80697W        W81561  26.897   2.047  11.612
80698W        W81562  27.903   1.729  13.840
80699W        W81563  27.783   1.412  13.422
80700W        W81564  26.422   1.774  13.300
80701W        W81565  28.559   3.636  13.227
80702W        W81566  28.203   0.346  14.219
80703W        W81567  25.915   0.512  13.981
80704W        W81568  26.492   1.357  12.942
80705W        W81569  26.795   1.137  10.982
80706W        W81570  25.629   2.902  13.776
80707W        W81571  26.874   1.721  13.037
80708W        W81572  27.002   0.687  11.177
80709W        W81573  26.125   1.599  12.026
80710W        W81574  25.796   3.501  13.451
80711W        W81575  28.568   1.758  11.437
80712W        W81576  28.624   0.624  14.179
80713W        W81577  28.234   2.736  12.353
80714W        W81578  25.737   1.566  14.519
80715W        W81579  28.605   0.299  11.520
80716W        W81580  28.304   2.624  11.577
80717W        W81581  27.037   1.539  11.741
80718W        W81582  28.301   0.503  11.153
80719W        W81583  28.427   1.145  13.373
80720W        W81584  26.277   1.470  12.487
80721W        W81585  26.409   2.488  12.272
80722W        W81586  28.026   1.384  12.094
80723W        W81587  27.113   0.700  12.939
80724W        W81588   0.063   2.517  13.468
80725W        W81589   0.049   0.784  13.091
80726W        W81590  25.628   3.347  12.594
80727W        W81591  25.680   2.574  11.907
80728W        W81592  26.100   0.049  14.564
80729W        W81593  27.075   3.010  14.514
80730W        W81594  28.908   2.014  12.428
80731W        W81595  28.204   2.130  11.384
80732W        W81596  27.707   3.695  13.336
80733W        W81597  28.310   2.409  14.512
80734W        W81598  27.211   0.059  11.726
80735W        W81599  27.842   1.030  12.603
80736W        W81600  25.718   2.520  12.981
80737W        W81601  26.947   0.560  11.709
80738W        W81602  26.681   2.020  14.342
80739W        W81603  27.619   1.022  12.131
80740W        W81604  27.974   2.472  13.339
80741W        W81605  26.081   3.073  13.616
80742W        W81606  26.587   3.027  14.370
80743W        W81607  26.525   0.751  11.474
80744W        W81608  27.952   0.996  11.735
80745W        W81609  27.869   3.034  13.972
80746W        W81610  26.729   1.668  12.551
80747W        W81611  26.335   3.402  13.331
80748W        W81612  28.933   3.411  11.092
80749W        W81613  25.744   1.969  14.164
80750W        W81614  27.636   2.339  12.962
80751W        W81615  26.243   2.152  11.920
80752W        W81616  26.729   3.069  13.417
80753W        W81617  27.152   0.373  12.555
80754W        W81618  25.542   2.124  11.653
80755W        W81619  27.252   1.289  11.216
80756W        W81620  25.795   1.623  12.443
80757W        W81621  27.032   0.581  13.816
80758W        W81622  28.754   0.339  10.982
80759W        W81623  28.856   2.051  14.312
80760W        W81624  27.479   3.343  14.404
80761W        W81625   0.043   2.385  13.958
80762W        W81626  28.685   3.095  14.415
80763W        W81627  26.374   3.617  12.871
80764W        W81628   0.064   2.287  11.979
80765W        W81629  27.608   1.455  12.396
80766W        W81630  27.423   0.195  12.161
80767W        W81631  26.601   2.951  12.113
80768W        W81632  27.050   0.982  13.441
80769W        W81633  26.725   0.256  12.865
80770W        W81634  25.698   3.286  11.340
80771W        W81635  27.409   2.267  12.225
80772W        W81636  26.525   3.188  13.873
80773W        W81637  25.969   1.842  11.614
80774W        W81638  25.766   0.710  12.673
80775W        W81639  27.237   2.513  12.674
80776W        W81640  25.684   0.497  11.587
80777W        W81641  28.305   1.600  13.576
80778W        W81642  28.162   1.008  11.156
80779W        W81643  28.595   2.712  12.753
80780W        W81644  27.361   2.987  12.776
80781W        W81645  26.735   3.306  11.757
80782W        W81646  27.894   0.173  11.117
80783W        W81647  25.954   3.339  12.987
80784W        W81648  27.698   1.103  14.361
80785W        W81649  25.948   0.550  14.502
80786W        W81650  25.953   1.312  11.569
80787W        W81651  26.455   1.242  11.642
80788W        W81652  27.999   1.562  14.319
80789W        W81653  26.493   2.029  12.859
80790W        W81654  27.953   0.218  12.201
80791W        W81655  27.119   3.424  12.655
80792W        W81656  28.207   3.048  13.599
80793W        W81657  28.088   3.112  12.685
80794W        W81658  27.926   2.277  12.371
80795W        W81659  27.388   0.458  11.469
80796W        W81660  28.912   0.181  12.073
80797W        W81661  26.764   1.542  11.302
80798W        W81662  28.858   1.074  12.197
80799W        W81663  27.480   2.232  11.324
80800W        W81664  28.523   2.352  14.010
80801W        W81665  28.382   3.143  11.018
80802W        W81666  26.735   1.399  13.421
80803W        W81667  28.683   2.838  13.891
80804W        W81668  27.861   0.718  14.014
80805W        W81669  25.818   1.327  13.788
80806W        W81670  27.439   1.797  13.642
80807W        W81671  25.897   2.465  12.362
80808W        W81672  26.069   1.684  12.909
80809W        W81673  28.228   2.110  13.643
80810W        W81674  28.020   3.353  14.346
80811W        W81675  27.913   1.211  13.890
80812W        W81676  28.197   3.419  12.221
80813W        W81677  27.202   3.036  13.644
80814W        W81678  26.692   3.223  12.922
80815W        W81679  28.496   2.551  13.481
80816W        W81680  27.381   2.581  14.521
80817W        W81681  26.195   2.457  12.778
80818W        W81682  28.462   2.286  12.469
80819W        W81683  28.108   3.363  13.169
80820W        W81684  26.274   2.934  13.111
80821W        W81685  27.127   1.120  14.269
80822W        W81686  27.427   3.247  11.798
80823W        W81687  26.875   2.517  14.424
80824W        W81688  27.018   2.877  11.817
80825W        W81689  26.258   1.633  11.251
80826W        W81690  25.646   3.688  18.008
80827W        W81691  25.958   2.576  17.543
80828W        W81692  28.594   2.225  15.298
80829W        W81693  28.841   3.316  17.205
80830W        W81694  26.559   3.353  14.777
80831W        W81695  26.715   1.510  15.696
80832W        W81696  26.209   1.377  15.860
80833W        W81697  27.216   2.014  15.354
80834W        W81698  26.961   3.309  17.524
80835W        W81699  25.820   0.850  17.564
80836W        W81700  26.225   0.172  17.284
80837W        W81701  28.052   0.569  16.265
80838W        W81702  27.653   1.312  15.014
80839W        W81703  28.207   0.934  17.957
80840W        W81704  25.781   0.500  17.177
80841W        W81705  25.855   3.223  18.088
80842W        W81706  27.049   2.652  14.922
80843W        W81707  25.714   1.171  16.604
80844W        W81708  26.579   1.337  17.852
80845W        W81709  28.980   0.982  16.334
80846W        W81710  28.746   1.914  17.152
80847W        W81711  27.204   1.547  16.341
80848W        W81712  27.834   2.839  16.604
80849W        W81713  26.083   2.122  16.845
80850W        W81714  25.411   1.589  16.499
80851W        W81715  26.625   1.718  17.469
80852W        W81716  28.780   1.527  17.886
80853W        W81717  26.376   2.920  16.269
80854W        W81718  27.440   2.727  17.332
80855W        W81719  26.849   1.230  16.553
80856W        W81720  26.983   2.049  16.229
80857W        W81721  27.735   2.955  18.119
80858W        W81722  27.171   2.087  18.107
80859W        W81723  27.097   1.819  17.678
80860W        W81724  25.534   1.167  18.053
80861W        W81725  28.353   2.942  17.722
80862W        W81726  25.994   0.339  15.500
80863W        W81727  26.505   2.558  16.788
80864W        W81728   0.009   2.498  16.167
80865W        W81729  28.512   0.692  16.494
80866W        W81730  28.703   0.928  14.589
80867W        W81731   0.182   1.622  17.054
80868W        W81732  27.049   3.390  16.662
80869W        W81733  28.807   2.697  15.318
80870W        W81734  25.874   3.589  15.268
80871W        W81735  26.252   3.459  15.628
80872W        W81736  26.371   0.406  16.846
80873W        W81737  28.763   1.385  17.321
80874W        W81738  28.065   1.737  15.880
80875W        W81739  28.075   1.597  14.874
80876W        W81740  27.385   2.708  16.809
80877W        W81741  27.181   1.055  16.154
80878W        W81742  27.843   2.972  17.104
80879W        W81743  28.529   1.851  15.652
80880W        W81744  27.718   0.305  15.445
80881W        W81745  26.218   3.183  15.176
80882W        W81746  25.669   0.650  15.760
80883W        W81747  28.084   1.388  16.262
80884W        W81748  25.857   2.897  16.310
80885W        W81749  26.996   3.186  14.995
80886W        W81750  28.433   1.366  14.552
80887W        W81751  25.662   2.940  16.810
80888W        W81752  26.403   2.566  17.286
80889W        W81753  26.823   2.015  15.689
80890W        W81754  26.898   0.524  16.858
80891W        W81755   0.103   0.116  16.273
80892W        W81756  26.180   1.914  14.557
80893W        W81757  25.982   1.068  14.952
80894W        W81758  26.015   2.953  15.788
80895W        W81759  26.781   2.529  15.799
80896W        W81760  28.464   3.425  17.578
80897W        W81761  27.342   0.975  15.260
80898W        W81762  28.712   3.462  16.245
80899W        W81763  28.357   1.379  17.655
80900W        W81764   0.094   2.770  15.733
80901W        W81765  27.774   2.265  17.457
80902W        W81766  25.648   1.679  15.675
80903W        W81767  26.579   2.127  17.046
80904W        W81768  27.730   1.467  15.508
80905W        W81769  27.638   1.953  15.658
80906W        W81770  26.143   1.231  16.931
80907W        W81771  25.979   1.269  17.808
80908W        W81772  26.039   0.296  16.007
80909W        W81773  27.754   0.620  16.676
80910W        W81774  27.335   0.680  17.926
80911W        W81775  27.859   0.554  15.014
80912W        W81776  28.889   3.169  17.730
80913W        W81777  27.594   0.199  17.910
80914W        W81778  28.714   2.745  18.037
80915W        W81779  28.285   0.803  17.473
80916W        W81780  27.972   0.669  15.747
80917W        W81781  28.399   1.847  18.230
80918W        W81782  26.106   3.334  16.114
80919W        W81783  26.860   1.184  15.189
80920W        W81784  26.488   0.393  17.776
80921W        W81785  28.417   0.967  15.530
80922W        W81786  28.751   1.346  15.434
80923W        W81787  26.603   3.515  17.927
80924W        W81788  26.455   0.305  15.236
80925W        W81789  28.834   0.529  16.109
80926W        W81790   0.095   2.962  14.691
80927W        W81791  25.872   2.035  16.375
80928W        W81792  27.858   0.616  14.506
80929W        W81793  28.958   3.049  16.463
80930W        W81794  28.814   0.306  17.037
80931W        W81795  27.494   1.464  17.691
80932W        W81796  27.290   2.526  15.370
80933W        W81797  27.876   1.961  18.309
80934W        W81798  27.715   0.185  16.407
80935W        W81799  26.198   1.120  16.409
80936W        W81800  25.775   2.140  17.276
80937W        W81801  27.803   3.223  16.260
80938W        W81802  28.786   1.008  16.834
80939W        W81803  27.479   3.263  17.368
80940W        W81804  28.710   2.207  14.782
80941W        W81805  27.200   1.690  15.821
80942W        W81806  28.984   0.348  17.547
80943W        W81807  27.378   2.270  17.081
80944W        W81808  27.535   1.078  16.787
80945W        W81809  28.242   1.438  15.452
80946W        W81810  28.416   1.195  15.042
80947W        W81811  28.403   2.842  15.600
80948W        W81812  28.157   2.386  16.508
80949W        W81813  28.076   1.895  15.373
80950W        W81814  27.503   1.938  16.190
80951W        W81815  28.506   1.709  16.345
80952W        W81816  25.994   0.761  16.769
80953W        W81817  28.525   1.879  17.615
80954W        W81818  28.989   3.519  16.694
80955W        W81819  26.878   2.935  16.155
80956W        W81820  27.972   3.436  17.406
80957W        W81821  27.896   0.901  17.109
80958W        W81822  27.194   3.605  17.121
80959W        W81823  28.726   0.560  15.589
80960W        W81824  28.679   1.521  16.824
80961W        W81825  25.702   1.021  17.097
80962W        W81826  28.395   0.881  16.035
80963W        W81827  28.733   1.031  17.761
80964W        W81828  27.669   2.704  16.136
80965W        W81829  27.019   3.281  15.785
80966W        W81830  26.029   0.552  15.019
80967W        W81831  27.267   0.222  16.664
80968W        W81832  26.059   3.528  14.787
80969W        W81833  26.779   1.740  15.236
80970W        W81834  27.281   2.304  17.607
80971W        W81835  27.296   0.563  15.631
80972W        W81836  28.376   0.367  15.914
80973W        W81837  28.213   3.525  16.358
80974W        W81838  27.518   3.251  16.818
80975W        W81839  26.970   2.272  16.702
80976W        W81840  28.800   2.873  16.921
80977W        W81841  26.429   0.565  15.658
80978W        W81842  26.913   2.830  16.653
80979W        W81843  26.305   0.888  14.594
80980W        W81844  27.253   1.478  16.958
80981W        W81845  28.151   0.306  16.719
80982W        W81846  25.562   2.004  16.814
80983W        W81847  27.168   1.769  14.886
80984W        W81848  26.450   0.419  14.736
80985W        W81849  27.059   1.140  15.661
80986W        W81850  28.009   0.426  17.228
80987W        W81851  26.784   2.256  17.495
80988W        W81852  27.600   1.952  17.849
80989W        W81853  28.109   2.065  17.851
80990W        W81854  27.409   0.395  18.349
80991W        W81855  26.773   0.729  16.395
80992W        W81856  26.137   0.862  15.954
80993W        W81857  25.729   3.373  15.710
80994W        W81858  27.269   2.944  17.782
80995W        W81859  26.378   2.026  15.055
80996W        W81860  28.001   1.895  16.404
80997W        W81861  28.168   1.509  16.736
80998W        W81862  27.367   1.919  16.703
80999W        W81863  27.853   2.500  14.772
81000W        W81864  27.557   0.570  16.084
81001W        W81865   0.104   0.956  15.372
81002W        W81866  25.783   3.290  17.577
81003W        W81867  25.943   2.570  17.020
81004W        W81868  25.368   3.378  15.327
81005W        W81869  27.401   0.605  17.032
81006W        W81870  26.579   2.854  14.939
81007W        W81871  28.677   3.210  15.014
81008W        W81872  27.643   1.822  15.097
81009W        W81873  26.520   1.057  15.562
81010W        W81874  27.492   0.849  14.770
81011W        W81875  27.991   2.560  17.856
81012W        W81876  28.271   0.521  15.336
81013W        W81877  25.676   0.234  14.810
81014W        W81878  26.939   2.570  17.110
81015W        W81879  26.672   2.484  16.305
81016W        W81880  26.425   2.391  14.668
81017W        W81881  25.625   2.928  15.419
81018W        W81882  26.206   1.728  17.823
81019W        W81883  26.902   0.430  18.136
81020W        W81884  27.546   0.294  17.416
81021W        W81885  26.881   0.231  15.690
81022W        W81886  25.859   0.256  16.719
81023W        W81887  25.725   1.161  15.813
81024W        W81888  28.644   0.199  16.539
81025W        W81889  26.050   0.859  15.440
81026W        W81890  28.414   0.648  16.993
81027W        W81891  28.838   1.690  14.705
81028W        W81892  26.275   0.610  16.384
81029W        W81893  27.449   1.073  17.318
81030W        W81894  25.571   0.757  14.825
81031W        W81895  26.259   2.100  17.467
81032W        W81896  27.674   1.522  16.564
81033W        W81897  27.394   3.497  14.891
81034W        W81898  25.653   2.039  14.717
81035W        W81899  26.422   2.489  17.798
81036W        W81900  25.899   1.643  17.406
81037W        W81901  27.012   1.898  17.163
81038W        W81902  28.468   0.292  17.411
81039W        W81903   0.055   1.787  17.540
81040W        W81904   0.002   1.957  15.127
81041W        W81905  27.784   2.306  15.265
81042W        W81906  28.439   3.523  14.600
81043W        W81907  27.497   1.576  18.218
81044W        W81908  25.994   2.601  18.083
81045W        W81909   0.075   0.670  17.987
81046W        W81910  28.534   1.210  16.425
81047W        W81911  27.084   3.398  18.024
81048W        W81912  26.897   0.257  14.994
81049W        W81913  28.640   2.723  14.828
81050W        W81914  26.311   0.879  17.743
81051W        W81915  26.795   2.815  17.529
81052W        W81916  28.801   0.781  17.311
81053W        W81917  28.217   3.502  15.058
81054W        W81918  28.369   1.986  16.789
81055W        W81919  26.659   0.460  17.297
81056W        W81920  26.924   1.614  18.149
81057W        W81921  26.372   2.721  15.420
81058W        W81922  28.195   2.325  15.621
81059W        W81923  26.224   0.765  17.237
81060W        W81924  27.238   2.792  15.823
81061W        W81925  28.995   1.461  16.043
81062W        W81926  27.112   0.218  17.707
81063W        W81927  28.280   2.761  16.848
81064W        W81928  28.541   3.276  16.734
81065W        W81929  27.461   2.972  14.862
81066W        W81930  25.620   2.854  17.822
81067W        W81931  26.533   0.908  16.830
81068W        W81932  26.572   0.345  16.085
81069W        W81933  28.107   0.996  16.637
81070W        W81934  26.851   2.163  14.838
81071W        W81935  28.739   2.160  16.476
81072W        W81936  26.201   2.989  17.774
81073W        W81937  28.542   3.592  15.471
81074W        W81938  26.867   0.723  15.879
81075W        W81939  26.466   2.073  16.042
81076W        W81940  26.705   3.516  17.033
81077W        W81941  28.706   3.698  17.924
81078W        W81942  27.858   1.927  16.933
81079W        W81943  25.980   1.678  14.975
81080W        W81944  28.822   3.178  15.571
81081W        W81945  28.696   0.764  15.103
81082W        W81946  26.703  28.989  17.507
81083W        W81947  28.698   2.917  16.035
81084W        W81948  28.491   1.389  15.912
81085W        W81949  26.620   1.125  16.078
81086W        W81950  27.029   1.363  17.439
81087W        W81951  28.155   2.644  17.351
81088W        W81952  26.687   0.973  17.363
81089W        W81953  26.643   3.396  16.155
81090W        W81954  26.119   3.590  17.813
81091W        W81955  26.156   3.023  14.665
81092W        W81956  28.674   2.437  15.783
81093W        W81957  26.300   1.304  17.412
81094W        W81958  28.925   1.223  14.955
81095W        W81959  26.792   2.363  15.298
81096W        W81960  27.940   1.726  17.512
81097W        W81961  27.788   1.430  17.089
81098W        W81962  26.282   1.713  17.080
81099W        W81963  28.364   3.616  17.091
81100W        W81964  28.090   0.351  17.759
81101W        W81965  25.962   0.373  17.673
81102W        W81966  26.415   1.540  16.611
81103W        W81967  26.703   1.187  14.691
81104W        W81968  25.582   2.891  17.308
81105W        W81969  26.877   1.751  16.689
81106W        W81970  26.976   0.775  14.868
81107W        W81971  26.300   1.718  15.481
81108W        W81972  25.704   3.438  17.091
81109W        W81973  28.526   1.727  15.119
81110W        W81974  28.565   0.555  17.850
81111W        W81975  28.250   2.628  16.055
81112W        W81976  25.672   1.662  17.877
81113W        W81977  28.659   0.254  15.069
81114W        W81978  28.250   2.595  15.148
81115W        W81979  27.251   1.497  15.320
81116W        W81980  28.323   0.584  14.757
81117W        W81981  28.351   1.152  17.088
81118W        W81982  25.820   1.540  16.178
81119W        W81983  26.282   2.544  15.937
81120W        W81984  28.021   1.170  15.819
81121W        W81985  27.270   0.721  16.531
81122W        W81986   0.153   2.551  17.142
81123W        W81987  28.995   0.574  16.644
81124W        W81988  25.584   3.327  16.192
81125W        W81989  25.913   2.500  15.559
81126W        W81990  26.131   0.217  18.148
81127W        W81991  27.102   2.953  18.284
81128W        W81992  28.898   1.994  16.015
81129W        W81993  28.214   2.123  14.942
81130W        W81994  27.692   3.691  17.042
81131W        W81995  28.397   2.359  18.175
81132W        W81996  27.239   0.043  15.357
81133W        W81997  27.712   1.016  16.288
81134W        W81998  25.622   2.476  16.560
81135W        W81999  26.867   0.664  15.362
81136W        W82000  26.649   1.998  17.909
81137W        W82001  27.548   1.001  15.756
81138W        W82002  27.860   2.456  16.969
81139W        W82003  26.085   3.009  17.255
81140W        W82004  26.684   2.998  17.990
81141W        W82005  26.464   0.837  15.087
81142W        W82006  27.931   0.991  15.322
81143W        W82007  27.832   2.980  17.616
81144W        W82008  26.704   1.625  16.196
81145W        W82009  26.209   3.436  16.980
81146W        W82010  28.942   3.482  14.651
81147W        W82011  25.844   2.144  17.806
81148W        W82012  27.636   2.328  16.518
81149W        W82013  26.365   2.221  15.549
81150W        W82014  26.584   3.001  17.084
81151W        W82015  27.091   0.370  16.178
81152W        W82016  25.586   2.370  15.147
81153W        W82017  27.194   1.264  14.795
81154W        W82018  25.988   2.010  15.861
81155W        W82019  27.114   0.675  17.448
81156W        W82020  28.808   0.421  14.619
81157W        W82021  28.841   2.052  17.983
81158W        W82022  27.576   3.369  17.868
81159W        W82023  28.924   2.273  17.497
81160W        W82024  28.573   3.241  18.135
81161W        W82025  26.300   3.618  16.498
81162W        W82026   0.095   2.252  15.557
81163W        W82027  27.623   1.460  16.023
81164W        W82028  27.393   0.103  15.859
81165W        W82029  26.535   3.041  15.784
81166W        W82030  27.048   0.998  16.986
81167W        W82031  26.773   0.156  16.522
81168W        W82032  25.696   3.201  14.970
81169W        W82033  27.259   2.264  15.838
81170W        W82034  26.436   3.347  17.459
81171W        W82035  25.918   2.026  15.348
81172W        W82036  25.772   0.661  16.286
81173W        W82037  27.196   2.530  16.301
81174W        W82038  25.562   0.451  15.257
81175W        W82039  28.318   1.642  17.197
81176W        W82040  28.010   1.027  14.783
81177W        W82041  28.621   2.651  16.479
81178W        W82042  27.332   3.032  16.386
81179W        W82043  26.698   3.355  15.377
81180W        W82044  27.903   0.139  14.672
81181W        W82045  25.872   3.354  16.596
81182W        W82046  27.699   1.099  18.003
81183W        W82047  25.939   0.714  18.083
81184W        W82048  25.929   1.361  15.382
81185W        W82049  26.390   1.369  15.107
81186W        W82050  27.979   1.546  17.997
81187W        W82051  26.494   2.062  16.545
81188W        W82052  27.894   0.184  15.918
81189W        W82053  27.212   3.564  16.213
81190W        W82054  28.354   3.104  17.206
81191W        W82055  28.276   3.019  16.382
81192W        W82056  27.883   2.242  16.034
81193W        W82057  27.345   0.484  15.116
81194W        W82058   0.017   0.157  15.744
81195W        W82059  26.635   1.692  14.739
81196W        W82060  28.854   1.003  15.828
81197W        W82061  27.394   2.249  14.920
81198W        W82062  28.471   2.409  17.677
81199W        W82063  28.244   3.048  14.725
81200W        W82064  26.813   0.851  17.859
81201W        W82065  26.692   1.393  17.037
81202W        W82066  28.746   2.776  17.421
81203W        W82067  27.756   0.721  17.611
81204W        W82068  25.540   1.282  17.521
81205W        W82069  27.489   1.820  17.309
81206W        W82070  25.786   2.440  16.058
81207W        W82071  25.916   1.638  16.700
81208W        W82072  28.235   2.141  17.271
81209W        W82073  28.089   3.343  17.934
81210W        W82074  27.912   1.199  17.536
81211W        W82075  28.340   3.270  15.910
81212W        W82076  27.096   3.071  17.080
81213W        W82077  26.577   3.219  16.628
81214W        W82078  28.631   2.402  17.036
81215W        W82079  27.469   2.510  18.058
81216W        W82080  26.143   2.474  16.443
81217W        W82081  28.383   2.127  16.085
81218W        W82082  28.028   3.339  16.795
81219W        W82083  26.167   2.945  16.743
81220W        W82084  27.181   1.180  18.019
81221W        W82085  27.346   3.055  15.368
81222W        W82086  26.940   2.529  17.941
81223W        W82087  26.873   2.867  15.407
81224W        W82088  26.223   1.392  14.610
81225W        W82089  25.601   3.705  21.610
81226W        W82090  25.997   2.598  21.209
81227W        W82091  28.744   2.312  18.962
81228W        W82092  28.722   3.402  20.960
81229W        W82093  26.710   3.309  18.418
81230W        W82094  26.754   1.388  19.294
81231W        W82095  26.277   1.351  19.535
81232W        W82096  27.239   2.056  18.996
81233W        W82097  27.053   3.357  21.328
81234W        W82098  25.614   0.830  21.162
81235W        W82099  26.241   0.141  21.005
81236W        W82100  28.113   0.485  19.977
81237W        W82101  27.644   1.304  18.660
81238W        W82102  28.249   0.913  21.554
81239W        W82103  25.785   0.512  20.775
81240W        W82104  25.807   3.219  21.752
81241W        W82105  27.053   2.472  18.451
81242W        W82106  25.785   1.212  20.226
81243W        W82107  26.727   1.382  21.438
81244W        W82108  28.960   0.980  19.974
81245W        W82109  28.726   2.085  20.813
81246W        W82110  27.249   1.573  19.930
81247W        W82111  27.807   2.841  20.286
81248W        W82112  26.133   2.161  20.476
81249W        W82113  25.465   1.612  20.131
81250W        W82114  26.671   1.764  21.068
81251W        W82115  28.810   1.522  21.473
81252W        W82116  26.462   2.907  19.925
81253W        W82117  27.571   2.684  20.961
81254W        W82118  27.048   1.168  20.160
81255W        W82119  26.997   2.032  19.912
81256W        W82120  27.704   2.961  21.780
81257W        W82121  27.125   2.109  21.748
81258W        W82122  27.158   1.933  21.244
81259W        W82123  25.536   1.150  21.573
81260W        W82124  28.274   2.819  21.482
81261W        W82125  25.913   0.216  19.234
81262W        W82126  26.514   2.575  20.417
81263W        W82127   0.042   2.491  19.860
81264W        W82128  28.533   0.756  20.181
81265W        W82129  28.678   0.901  18.267
81266W        W82130   0.220   1.606  20.667
81267W        W82131  27.168   3.257  20.409
81268W        W82132   0.044   2.758  18.878
81269W        W82133  26.145   3.589  18.842
81270W        W82134  26.456   3.525  19.265
81271W        W82135  26.375   0.429  20.533
81272W        W82136  28.770   1.418  20.926
81273W        W82137  28.128   1.775  19.488
81274W        W82138  28.070   1.549  18.539
81275W        W82139  27.347   2.755  20.495
81276W        W82140  27.164   0.840  19.766
81277W        W82141  27.684   3.123  20.717
81278W        W82142  28.609   1.870  19.269
81279W        W82143  27.260   0.467  19.379
81280W        W82144  26.236   3.115  18.976
81281W        W82145  25.636   0.598  19.434
81282W        W82146  28.090   1.412  19.869
81283W        W82147  25.950   2.854  19.938
81284W        W82148  27.195   3.076  18.807
81285W        W82149  28.419   1.338  18.198
81286W        W82150  25.711   2.991  20.503
81287W        W82151  26.465   2.661  20.950
81288W        W82152  26.773   1.883  19.146
81289W        W82153  26.887   0.500  20.610
81290W        W82154   0.081   0.151  19.948
81291W        W82155  26.226   2.119  18.186
81292W        W82156  25.898   0.995  18.612
81293W        W82157  26.036   2.898  19.432
81294W        W82158  26.884   2.312  19.442
81295W        W82159  28.463   3.305  21.388
81296W        W82160  27.314   1.034  18.948
81297W        W82161  28.599   3.504  19.705
81298W        W82162  28.353   1.364  21.263
81299W        W82163   0.122   2.733  19.406
81300W        W82164  27.729   2.200  21.082
81301W        W82165  25.631   1.598  19.253
81302W        W82166  26.606   2.191  20.740
81303W        W82167  27.647   1.389  19.164
81304W        W82168  27.651   1.897  19.275
81305W        W82169  26.126   1.286  20.615
81306W        W82170  26.011   1.215  21.334
81307W        W82171  25.860   0.190  19.753
81308W        W82172  27.762   0.577  20.341
81309W        W82173  27.376   0.657  21.511
81310W        W82174  27.819   0.542  18.647
81311W        W82175  28.980   3.288  21.430
81312W        W82176  27.685   0.227  21.596
81313W        W82177  28.827   2.550  21.684
81314W        W82178  28.308   0.876  21.049
81315W        W82179  28.005   0.608  19.451
81316W        W82180  28.436   1.869  21.759
81317W        W82181  26.199   3.317  19.731
81318W        W82182  26.812   1.113  18.861
81319W        W82183  26.400   0.412  21.482
81320W        W82184  28.379   0.962  19.179
81321W        W82185  28.746   1.370  19.082
81322W        W82186  26.586   3.431  21.563
81323W        W82187  26.706   0.011  18.945
81324W        W82188  28.792   0.539  19.772
81325W        W82189   0.022   2.993  18.410
81326W        W82190  25.854   2.054  19.984
81327W        W82191  27.833   0.610  18.131
81328W        W82192  28.900   2.993  20.066
81329W        W82193  28.795   0.248  20.639
81330W        W82194  27.543   1.577  21.372
81331W        W82195  27.278   2.557  18.933
81332W        W82196  27.977   2.001  21.962
81333W        W82197  27.675   0.122  20.104
81334W        W82198  26.181   1.038  19.937
81335W        W82199  25.835   2.190  20.907
81336W        W82200  27.692   3.247  19.703
81337W        W82201  28.823   1.151  20.473
81338W        W82202  27.547   3.397  21.133
81339W        W82203  28.771   2.144  18.480
81340W        W82204  27.173   1.818  19.467
81341W        W82205  28.974   0.289  21.122
81342W        W82206  27.399   2.263  20.698
81343W        W82207  27.547   1.048  20.378
81344W        W82208  28.166   1.413  19.074
81345W        W82209  28.418   1.187  18.691
81346W        W82210  28.680   2.980  19.598
81347W        W82211  28.075   2.433  20.063
81348W        W82212  28.078   1.892  18.981
81349W        W82213  27.506   2.029  19.817
81350W        W82214  28.523   1.727  19.911
81351W        W82215  26.058   0.810  20.403
81352W        W82216  28.512   1.859  21.236
81353W        W82217  28.938   3.480  20.479
81354W        W82218  26.921   2.887  19.701
81355W        W82219  28.064   3.461  21.076
81356W        W82220  27.868   0.896  20.753
81357W        W82221  27.287   3.623  20.769
81358W        W82222  28.642   0.535  19.270
81359W        W82223  28.705   1.692  20.452
81360W        W82224  25.690   1.024  20.700
81361W        W82225  28.371   0.876  19.709
81362W        W82226  28.774   1.041  21.317
81363W        W82227  27.738   2.697  19.782
81364W        W82228  27.055   3.257  19.360
81365W        W82229  26.040   0.490  18.581
81366W        W82230  27.195   0.151  20.379
81367W        W82231  26.228   3.501  18.322
81368W        W82232  26.738   1.600  18.703
81369W        W82233  27.281   2.425  21.290
81370W        W82234  26.952   0.902  19.313
81371W        W82235  28.390   0.254  19.618
81372W        W82236  28.106   3.512  19.954
81373W        W82237  27.659   3.334  20.235
81374W        W82238  27.010   2.322  20.355
81375W        W82239  28.688   3.035  20.594
81376W        W82240  26.370   0.371  19.069
81377W        W82241  26.921   2.825  20.218
81378W        W82242  26.447   0.662  18.216
81379W        W82243  27.288   1.456  20.541
81380W        W82244  28.106   0.204  20.432
81381W        W82245  25.629   2.024  20.458
81382W        W82246  27.176   1.817  18.551
81383W        W82247  26.500   0.236  18.518
81384W        W82248  27.237   1.296  19.490
81385W        W82249  27.985   0.417  20.885
81386W        W82250  26.783   2.301  21.214
81387W        W82251  27.599   2.063  21.574
81388W        W82252  28.094   2.108  21.444
81389W        W82253  27.321   0.343  21.926
81390W        W82254  26.719   0.770  20.187
81391W        W82255  26.149   0.693  19.538
81392W        W82256  25.944   3.411  19.292
81393W        W82257  27.357   2.933  21.400
81394W        W82258  26.371   1.979  18.714
81395W        W82259  27.989   1.921  19.986
81396W        W82260  28.205   1.587  20.321
81397W        W82261  27.352   1.916  20.309
81398W        W82262  27.915   2.473  18.363
81399W        W82263  27.611   0.568  19.816
81400W        W82264   0.104   0.929  19.036
81401W        W82265  25.842   3.449  21.159
81402W        W82266  26.021   2.617  20.684
81403W        W82267  25.606   3.481  18.910
81404W        W82268  27.408   0.559  20.701
81405W        W82269  26.742   2.832  18.665
81406W        W82270  28.718   3.219  18.761
81407W        W82271  27.634   1.794  18.765
81408W        W82272  26.441   0.968  19.202
81409W        W82273  27.471   0.891  18.423
81410W        W82274  27.804   2.546  21.466
81411W        W82275  28.206   0.505  18.982
81412W        W82276  25.669   0.133  18.538
81413W        W82277  26.984   2.573  20.820
81414W        W82278  26.724   2.459  19.931
81415W        W82279  26.549   2.527  18.294
81416W        W82280  25.729   2.974  19.038
81417W        W82281  26.273   1.663  21.422
81418W        W82282  26.850   0.419  21.734
81419W        W82283  27.554   0.322  21.119
81420W        W82284  26.840   0.173  19.420
81421W        W82285  27.705   0.292  19.135
81422W        W82286  25.914   0.316  20.309
81423W        W82287  25.782   1.081  19.564
81424W        W82288  28.577   0.239  20.160
81425W        W82289  25.999   0.717  19.046
81426W        W82290  28.396   0.587  20.632
81427W        W82291  28.861   1.636  18.372
81428W        W82292  26.293   0.532  20.014
81429W        W82293  27.417   0.965  21.037
81430W        W82294  25.552   0.649  18.424
81431W        W82295  26.288   2.138  21.165
81432W        W82296  27.693   1.527  20.190
81433W        W82297  27.445   3.339  18.398
81434W        W82298  25.713   1.974  18.289
81435W        W82299  26.439   2.598  21.464
81436W        W82300  26.000   1.677  20.977
81437W        W82301  27.025   1.889  20.720
81438W        W82302  28.437   0.205  21.007
81439W        W82303   0.052   1.835  21.131
81440W        W82304  28.980   1.851  18.852
81441W        W82305  27.750   2.299  18.966
81442W        W82306  28.396   3.710  18.351
81443W        W82307  27.575   1.645  21.896
81444W        W82308  26.046   2.735  21.782
81445W        W82309   0.092   0.638  21.532
81446W        W82310  28.528   1.248  20.063
81447W        W82311  27.031   3.433  21.851
81448W        W82312  27.006   0.229  18.601
81449W        W82313  28.643   2.647  18.555
81450W        W82314  26.432   0.918  21.393
81451W        W82315  26.857   2.854  21.250
81452W        W82316  28.827   0.753  20.883
81453W        W82317  28.191   3.734  18.999
81454W        W82318  28.321   2.104  20.398
81455W        W82319  26.550   0.576  21.008
81456W        W82320  27.123   1.617  21.654
81457W        W82321  26.410   2.648  19.037
81458W        W82322  28.285   2.292  19.210
81459W        W82323  26.118   0.865  20.959
81460W        W82324  27.366   2.850  19.451
81461W        W82325  28.924   1.431  19.725
81462W        W82326  27.201   0.163  21.447
81463W        W82327  28.302   2.733  20.421
81464W        W82328  28.542   3.340  20.187
81465W        W82329  27.507   2.755  18.528
81466W        W82330  25.602   2.789  21.494
81467W        W82331  26.536   0.938  20.645
81468W        W82332  26.343   0.221  19.576
81469W        W82333  28.044   0.988  20.162
81470W        W82334  26.750   2.054  18.402
81471W        W82335  28.746   2.143  20.122
81472W        W82336  26.198   3.079  21.413
81473W        W82337  28.664   3.557  19.188
81474W        W82338  26.707   0.583  19.691
81475W        W82339  26.473   2.055  19.696
81476W        W82340  26.826   3.640  20.557
81477W        W82341  28.743   3.715  21.576
81478W        W82342  27.843   1.928  20.520
81479W        W82343  25.857   1.469  18.345
81480W        W82344  28.990   3.169  19.202
81481W        W82345  28.665   0.756  18.786
81482W        W82346  26.754   0.147  21.197
81483W        W82347  28.548   2.614  19.951
81484W        W82348  28.457   1.369  19.515
81485W        W82349  26.693   1.093  19.750
81486W        W82350  27.134   1.450  21.067
81487W        W82351  28.091   2.590  21.053
81488W        W82352  26.852   1.013  21.093
81489W        W82353  26.713   3.378  19.727
81490W        W82354  26.116   3.592  21.562
81491W        W82355  26.286   2.983  18.328
81492W        W82356  28.715   2.439  19.466
81493W        W82357  26.414   1.311  21.033
81494W        W82358  28.932   1.193  18.629
81495W        W82359  26.791   2.328  18.881
81496W        W82360  27.961   1.732  21.120
81497W        W82361  27.844   1.417  20.681
81498W        W82362  26.416   1.723  20.613
81499W        W82363  28.435   3.673  20.608
81500W        W82364  28.152   0.349  21.429
81501W        W82365  25.926   0.444  21.294
81502W        W82366  26.524   1.286  20.245
81503W        W82367  26.715   1.146  18.329
81504W        W82368  25.615   2.867  20.988
81505W        W82369  26.881   1.668  20.275
81506W        W82370  26.985   0.751  18.534
81507W        W82371  26.323   1.634  19.103
81508W        W82372  25.880   3.523  20.645
81509W        W82373  28.504   1.719  18.748
81510W        W82374  28.606   0.566  21.363
81511W        W82375  28.230   2.676  19.557
81512W        W82376  25.748   1.634  21.478
81513W        W82377  28.569   0.262  18.712
81514W        W82378  28.589   2.800  19.115
81515W        W82379  27.174   1.537  19.004
81516W        W82380  28.291   0.595  18.418
81517W        W82381  28.316   1.140  20.587
81518W        W82382  25.863   1.536  19.807
81519W        W82383  26.414   2.555  19.541
81520W        W82384  27.979   1.134  19.469
81521W        W82385  27.237   0.654  20.230
81522W        W82386   0.100   2.592  20.794
81523W        W82387   0.007   0.664  20.385
81524W        W82388  25.688   3.214  19.688
81525W        W82389  25.899   2.475  19.093
81526W        W82390  26.005   0.390  21.822
81527W        W82391  27.154   2.944  21.929
81528W        W82392  28.940   1.999  19.676
81529W        W82393  28.290   2.217  18.657
81530W        W82394  27.811   3.631  20.641
81531W        W82395  28.341   2.397  21.796
81532W        W82396  27.209   0.066  19.052
81533W        W82397  27.606   1.106  19.864
81534W        W82398  25.769   2.495  20.256
81535W        W82399  26.856   0.515  19.002
81536W        W82400  26.701   1.918  21.552
81537W        W82401  27.544   0.885  19.383
81538W        W82402  27.901   2.436  20.604
81539W        W82403  26.096   3.076  20.896
81540W        W82404  26.642   2.974  21.764
81541W        W82405  26.464   0.757  18.720
81542W        W82406  27.887   0.950  18.973
81543W        W82407  27.857   3.010  21.237
81544W        W82408  26.747   1.605  19.765
81545W        W82409  26.379   3.414  20.626
81546W        W82410  28.921   3.539  18.381
81547W        W82411  25.799   2.148  21.427
81548W        W82412  27.578   2.371  20.208
81549W        W82413  26.339   2.167  19.200
81550W        W82414  26.727   3.009  20.659
81551W        W82415  27.146   0.302  19.858
81552W        W82416  25.580   2.272  18.694
81553W        W82417  27.154   1.304  18.525
81554W        W82418  25.978   1.919  19.474
81555W        W82419  27.075   0.545  21.100
81556W        W82420  28.778   0.390  18.280
81557W        W82421  28.889   2.025  21.587
81558W        W82422  27.494   3.426  21.633
81559W        W82423   0.009   2.358  21.223
81560W        W82424  28.684   3.035  21.775
81561W        W82425  26.293   3.617  20.148
81562W        W82426   0.163   2.229  19.261
81563W        W82427  27.669   1.567  19.649
81564W        W82428  27.345  28.910  19.536
81565W        W82429  26.525   3.039  19.400
81566W        W82430  27.086   0.969  20.633
81567W        W82431  26.720   0.231  20.166
81568W        W82432  25.890   3.203  18.596
81569W        W82433  27.408   2.334  19.399
81570W        W82434  26.569   3.251  21.082
81571W        W82435  25.919   1.932  18.945
81572W        W82436  25.797   0.674  19.930
81573W        W82437  27.229   2.495  19.855
81574W        W82438  25.560   0.451  18.924
81575W        W82439  28.330   1.634  20.801
81576W        W82440  28.000   1.022  18.430
81577W        W82441  28.811   2.576  20.381
81578W        W82442  27.365   2.969  20.005
81579W        W82443  26.740   3.260  18.946
81580W        W82444  27.855   0.115  18.344
81581W        W82445  25.866   3.338  20.153
81582W        W82446  27.716   1.163  21.683
81583W        W82447  25.974   0.890  21.722
81584W        W82448  25.985   1.235  19.101
81585W        W82449  26.336   1.272  18.710
81586W        W82450  28.012   1.596  21.616
81587W        W82451  26.565   2.064  20.222
81588W        W82452  27.858   0.117  19.607
81589W        W82453  27.195   3.447  19.903
81590W        W82454  28.317   3.035  20.950
81591W        W82455  28.188   2.995  19.975
81592W        W82456  27.901   2.251  19.567
81593W        W82457  27.349   0.535  18.851
81594W        W82458  28.933   0.124  19.406
81595W        W82459  26.415   1.621  18.292
81596W        W82460  28.818   0.986  19.466
81597W        W82461  27.485   2.227  18.524
81598W        W82462  28.506   2.373  21.303
81599W        W82463  28.238   2.857  18.223
81600W        W82464  26.848   0.952  21.724
81601W        W82465  26.793   1.387  20.694
81602W        W82466  28.727   2.863  21.234
81603W        W82467  27.835   0.730  21.272
81604W        W82468  25.588   1.341  21.089
81605W        W82469  27.505   1.775  20.881
81606W        W82470  25.909   2.419  19.606
81607W        W82471  26.009   1.678  20.294
81608W        W82472  28.216   2.128  20.903
81609W        W82473  28.003   3.345  21.595
81610W        W82474  27.868   1.225  21.174
81611W        W82475  28.205   3.228  19.507
81612W        W82476  27.194   3.070  20.905
81613W        W82477  26.675   3.278  20.220
81614W        W82478  28.565   2.574  20.835
81615W        W82479  27.408   2.533  21.775
81616W        W82480  26.224   2.420  20.018
81617W        W82481  28.381   2.172  19.728
81618W        W82482  28.134   3.235  20.479
81619W        W82483  26.219   3.001  20.373
81620W        W82484  27.240   1.156  21.482
81621W        W82485  27.548   3.254  19.163
81622W        W82486  26.910   2.552  21.662
81623W        W82487  26.899   2.782  19.178
81624W        W82488  26.225   1.125  18.222
81625W        W82489  25.629   3.664  25.369
81626W        W82490  26.054   2.575  24.879
81627W        W82491  28.699   2.281  22.565
81628W        W82492  28.930   3.461  24.601
81629W        W82493  26.606   3.351  22.106
81630W        W82494  26.819   1.390  22.942
81631W        W82495  26.208   1.182  23.109
81632W        W82496  27.206   1.953  22.662
81633W        W82497  27.049   3.353  24.965
81634W        W82498  25.635   0.843  24.826
81635W        W82499  26.116   0.193  24.587
81636W        W82500  28.160   0.512  23.560
81637W        W82501  27.640   1.244  22.229
81638W        W82502  28.216   0.955  25.196
81639W        W82503  25.731   0.535  24.393
81640W        W82504  25.786   3.174  25.414
81641W        W82505  27.040   2.423  22.153
81642W        W82506  25.771   1.182  23.912
81643W        W82507  26.683   1.413  25.089
81644W        W82508  28.870   1.139  23.599
81645W        W82509  28.751   2.145  24.511
81646W        W82510  27.279   1.476  23.608
81647W        W82511  27.821   2.903  23.928
81648W        W82512  26.106   2.133  24.169
81649W        W82513  25.398   1.525  23.755
81650W        W82514  26.735   1.802  24.748
81651W        W82515  28.798   1.517  25.102
81652W        W82516  26.417   2.920  23.609
81653W        W82517  27.598   2.706  24.649
81654W        W82518  26.881   1.240  23.841
81655W        W82519  27.028   2.059  23.491
81656W        W82520  27.781   2.999  25.449
81657W        W82521  26.971   2.229  25.307
81658W        W82522  27.237   2.045  24.807
81659W        W82523  25.559   1.169  25.253
81660W        W82524  28.271   2.905  25.171
81661W        W82525  25.927   0.229  22.949
81662W        W82526  26.517   2.579  24.088
81663W        W82527   0.040   2.532  23.459
81664W        W82528  28.493   0.839  23.807
81665W        W82529  28.703   0.909  21.831
81666W        W82530   0.031   1.570  24.275
81667W        W82531  27.142   3.290  24.116
81668W        W82532  28.895   2.759  22.605
81669W        W82533  25.996   3.550  22.601
81670W        W82534  26.381   3.495  22.988
81671W        W82535  26.397   0.413  24.192
81672W        W82536  28.804   1.252  24.625
81673W        W82537  28.186   1.770  23.125
81674W        W82538  28.057   1.536  22.172
81675W        W82539  27.389   2.800  24.177
81676W        W82540  27.411   0.951  23.430
81677W        W82541  27.709   3.159  24.397
81678W        W82542  28.669   1.880  22.896
81679W        W82543  27.376   0.520  22.917
81680W        W82544  26.131   3.065  22.727
81681W        W82545  25.588   0.565  23.185
81682W        W82546  28.164   1.426  23.517
81683W        W82547  25.902   2.903  23.708
81684W        W82548  27.065   3.286  22.371
81685W        W82549  28.438   1.354  21.784
81686W        W82550  25.734   2.981  24.231
81687W        W82551  26.491   2.664  24.614
81688W        W82552  26.813   1.963  22.997
81689W        W82553  26.907   0.491  24.232
81690W        W82554   0.087   0.194  23.632
81691W        W82555  26.263   2.163  21.695
81692W        W82556  26.067   0.951  22.238
81693W        W82557  26.031   2.916  23.208
81694W        W82558  26.880   2.488  23.103
81695W        W82559  28.484   3.311  24.842
81696W        W82560  27.395   0.942  22.562
81697W        W82561  28.643   3.512  23.284
81698W        W82562  28.356   1.333  24.880
81699W        W82563   0.117   2.829  23.053
81700W        W82564  27.734   2.203  24.745
81701W        W82565  25.686   1.589  22.952
81702W        W82566  26.641   2.182  24.372
81703W        W82567  27.706   1.386  22.742
81704W        W82568  27.691   1.854  22.952
81705W        W82569  25.983   1.276  24.401
81706W        W82570  26.013   1.188  24.966
81707W        W82571  25.872   0.210  23.465
81708W        W82572  27.724   0.619  23.822
81709W        W82573  27.397   0.726  25.083
81710W        W82574  27.816   0.716  22.316
81711W        W82575  28.941   3.323  25.090
81712W        W82576  27.828   0.246  25.029
81713W        W82577  28.852   2.558  25.352
81714W        W82578  28.374   0.779  24.740
81715W        W82579  28.153   0.638  23.046
81716W        W82580  28.369   1.895  25.479
81717W        W82581  26.129   3.346  23.487
81718W        W82582  26.889   1.005  22.611
81719W        W82583  26.448   0.406  25.225
81720W        W82584  28.514   1.016  22.764
81721W        W82585  28.875   1.380  22.658
81722W        W82586  26.599   3.756  25.464
81723W        W82587  26.734  28.893  22.685
81724W        W82588  28.863   0.628  23.429
81725W        W82589   0.046   2.894  22.122
81726W        W82590  25.861   2.040  23.686
81727W        W82591  27.845   0.666  21.786
81728W        W82592  28.938   3.000  23.716
81729W        W82593  28.850   0.284  24.242
81730W        W82594  27.600   1.720  24.953
81731W        W82595  27.187   2.477  22.667
81732W        W82596  27.877   2.008  25.619
81733W        W82597  27.734   0.112  23.647
81734W        W82598  26.181   1.026  23.620
81735W        W82599  25.756   2.266  24.537
81736W        W82600  27.635   3.312  23.387
81737W        W82601  28.822   1.076  24.147
81738W        W82602  27.553   3.458  24.815
81739W        W82603  28.740   2.187  22.056
81740W        W82604  27.230   1.701  23.135
81741W        W82605   0.056   0.245  24.707
81742W        W82606  27.415   2.304  24.353
81743W        W82607  27.513   1.075  23.933
81744W        W82608  28.358   1.511  22.683
81745W        W82609  28.516   1.238  22.277
81746W        W82610  28.652   2.994  23.259
81747W        W82611  28.081   2.470  23.714
81748W        W82612  28.044   1.888  22.567
81749W        W82613  27.578   1.900  23.473
81750W        W82614  28.592   1.736  23.528
81751W        W82615  26.090   0.816  24.098
81752W        W82616  28.435   1.857  24.962
81753W        W82617  28.929   3.446  24.078
81754W        W82618  26.901   2.937  23.446
81755W        W82619  28.049   3.500  24.630
81756W        W82620  27.888   0.811  24.333
81757W        W82621  27.160   3.631  24.534
81758W        W82622  28.720   0.585  22.916
81759W        W82623  28.633   1.840  24.053
81760W        W82624  25.547   1.014  24.344
81761W        W82625  28.463   0.944  23.307
81762W        W82626  28.738   1.009  25.059
81763W        W82627  27.728   2.724  23.441
81764W        W82628  27.002   3.323  23.128
81765W        W82629  26.052   0.407  22.334
81766W        W82630  27.277   0.268  23.892
81767W        W82631  26.105   3.515  22.086
81768W        W82632  26.740   1.700  22.517
81769W        W82633  27.253   2.523  24.987
81770W        W82634  27.005   0.820  23.095
81771W        W82635  28.504   0.280  23.268
81772W        W82636  28.057   3.531  23.623
81773W        W82637  27.615   3.386  23.929
81774W        W82638  27.020   2.307  23.992
81775W        W82639  28.710   3.057  24.364
81776W        W82640  26.397   0.289  22.731
81777W        W82641  26.928   2.837  23.949
81778W        W82642  26.423   0.728  21.903
81779W        W82643  27.290   1.476  24.149
81780W        W82644  28.084   0.288  24.023
81781W        W82645  25.582   2.012  24.130
81782W        W82646  27.127   1.794  22.162
81783W        W82647  26.484   0.255  22.079
81784W        W82648  27.299   1.215  23.001
81785W        W82649  28.052   0.374  24.553
81786W        W82650  26.806   2.324  24.828
81787W        W82651  27.492   2.127  25.276
81788W        W82652  28.047   2.150  25.143
81789W        W82653  27.417   0.365  25.488
81790W        W82654  26.600   0.809  23.887
81791W        W82655  26.088   0.675  23.242
81792W        W82656  25.840   3.374  23.068
81793W        W82657  27.390   2.998  25.100
81794W        W82658  26.236   2.315  22.392
81795W        W82659  28.107   1.926  23.684
81796W        W82660  28.149   1.636  24.151
81797W        W82661  27.404   1.946  23.952
81798W        W82662  27.882   2.512  21.987
81799W        W82663  27.693   0.524  23.318
81800W        W82664   0.113   0.856  22.610
81801W        W82665  25.805   3.341  24.924
81802W        W82666  26.066   2.609  24.352
81803W        W82667  25.497   3.448  22.670
81804W        W82668  27.406   0.639  24.216
81805W        W82669  26.781   2.853  22.290
81806W        W82670  28.682   3.195  22.344
81807W        W82671  27.595   1.742  22.396
81808W        W82672  26.515   0.771  22.944
81809W        W82673  27.411   0.843  22.002
81810W        W82674  27.746   2.581  25.146
81811W        W82675  28.278   0.546  22.552
81812W        W82676  25.642   0.134  22.130
81813W        W82677  26.982   2.607  24.434
81814W        W82678  26.715   2.480  23.608
81815W        W82679  26.498   2.538  21.995
81816W        W82680  25.642   2.963  22.838
81817W        W82681  26.227   1.671  24.933
81818W        W82682  26.957   0.495  25.279
81819W        W82683  27.548   0.446  24.646
81820W        W82684  26.856   0.196  23.102
81821W        W82685  27.711   0.147  22.710
81822W        W82686  25.939   0.271  24.009
81823W        W82687  25.715   1.065  23.155
81824W        W82688  28.602   0.319  23.793
81825W        W82689  26.039   0.731  22.734
81826W        W82690  28.430   0.599  24.256
81827W        W82691  28.862   1.628  21.970
81828W        W82692  26.260   0.498  23.689
81829W        W82693  27.444   0.987  24.627
81830W        W82694  25.636   0.650  22.132
81831W        W82695  26.244   2.139  24.688
81832W        W82696  27.743   1.549  23.840
81833W        W82697  27.435   3.599  22.131
81834W        W82698  25.630   1.859  21.924
81835W        W82699  26.507   2.600  25.147
81836W        W82700  25.886   1.767  24.546
81837W        W82701  27.068   1.909  24.352
81838W        W82702  28.530   0.207  24.648
81839W        W82703   0.041   1.801  24.762
81840W        W82704  28.958   1.862  22.416
81841W        W82705  27.655   2.240  22.597
81842W        W82706  28.418   3.477  21.896
81843W        W82707  27.575   1.630  25.455
81844W        W82708  26.103   2.376  25.380
81845W        W82709   0.064   0.702  25.352
81846W        W82710  28.505   1.369  23.892
81847W        W82711  27.082   3.593  25.406
81848W        W82712  26.944   0.182  22.287
81849W        W82713  28.592   2.670  22.174
81850W        W82714  26.480   0.919  25.012
81851W        W82715  26.870   2.875  24.893
81852W        W82716  28.847   0.725  24.547
81853W        W82717  28.169   3.689  22.305
81854W        W82718  28.387   2.291  24.079
81855W        W82719  26.522   0.494  24.714
81856W        W82720  27.108   1.712  25.180
81857W        W82721  26.495   2.674  22.706
81858W        W82722  28.273   2.228  22.869
81859W        W82723  26.122   0.817  24.614
81860W        W82724  27.328   2.906  23.165
81861W        W82725   0.081   1.506  23.289
81862W        W82726  27.303   0.210  25.012
81863W        W82727  28.334   2.839  24.036
81864W        W82728  28.528   3.317  23.776
81865W        W82729  27.475   2.674  22.271
81866W        W82730  25.666   2.654  25.212
81867W        W82731  26.586   0.885  24.389
81868W        W82732  26.345   0.221  23.247
81869W        W82733  28.043   1.116  23.934
81870W        W82734  26.680   2.063  22.059
81871W        W82735  28.790   2.193  23.736
81872W        W82736  26.199   3.026  25.126
81873W        W82737  28.637   3.711  22.773
81874W        W82738  26.678   0.587  23.408
81875W        W82739  26.478   2.065  23.376
81876W        W82740  26.730   3.690  24.266
81877W        W82741  28.605   3.671  25.263
81878W        W82742  27.887   2.083  24.138
81879W        W82743  25.831   1.356  21.942
81880W        W82744  28.876   3.251  22.861
81881W        W82745  28.705   0.733  22.330
81882W        W82746  26.799   0.122  24.957
81883W        W82747  28.552   2.635  23.601
81884W        W82748  28.591   1.416  23.132
81885W        W82749  26.656   1.099  23.377
81886W        W82750  27.203   1.516  24.678
81887W        W82751  28.098   2.591  24.792
81888W        W82752  26.922   1.088  24.759
81889W        W82753  26.631   3.399  23.449
81890W        W82754  26.167   3.556  25.250
81891W        W82755  26.268   2.976  22.220
81892W        W82756  28.712   2.490  23.052
81893W        W82757  26.430   1.292  24.652
81894W        W82758   0.020   1.174  22.190
81895W        W82759  26.747   2.236  22.551
81896W        W82760  28.029   1.690  24.662
81897W        W82761  27.765   1.325  24.341
81898W        W82762  26.370   1.726  24.365
81899W        W82763  28.481   3.555  24.321
81900W        W82764  28.275   0.433  25.216
81901W        W82765  25.973   0.484  24.983
81902W        W82766  26.384   1.264  24.072
81903W        W82767  26.638   1.117  22.174
81904W        W82768  25.643   2.840  24.724
81905W        W82769  26.922   1.750  23.895
81906W        W82770  26.949   0.691  22.180
81907W        W82771  26.379   1.655  22.942
81908W        W82772  25.772   3.480  24.428
81909W        W82773  28.471   1.813  22.280
81910W        W82774  28.740   0.508  25.016
81911W        W82775  28.226   2.649  23.196
81912W        W82776  25.719   1.640  25.131
81913W        W82777  28.609   0.209  22.286
81914W        W82778  28.390   2.694  22.672
81915W        W82779  27.200   1.434  22.545
81916W        W82780  28.305   0.586  22.021
81917W        W82781  28.327   1.170  24.373
81918W        W82782  25.834   1.481  23.466
81919W        W82783  26.379   2.552  23.221
81920W        W82784  28.115   1.231  23.038
81921W        W82785  27.102   0.755  23.804
81922W        W82786   0.103   2.567  24.434
81923W        W82787   0.006   0.660  23.928
81924W        W82788  25.572   3.316  23.545
81925W        W82789  25.975   2.549  22.802
81926W        W82790  26.013   0.460  25.492
81927W        W82791  27.258   3.110  25.600
81928W        W82792  28.981   2.027  23.290
81929W        W82793  28.249   2.294  22.309
81930W        W82794  27.654   3.700  24.354
81931W        W82795  28.347   2.463  25.442
81932W        W82796  27.206   0.074  22.713
81933W        W82797  27.936   0.964  23.450
81934W        W82798  25.756   2.476  23.973
81935W        W82799  26.899   0.498  22.686
81936W        W82800  26.491   2.073  25.143
81937W        W82801  27.717   0.914  22.970
81938W        W82802  27.961   2.566  24.294
81939W        W82803  26.111   3.052  24.609
81940W        W82804  26.677   3.243  25.334
81941W        W82805  26.485   0.691  22.424
81942W        W82806  28.067   1.098  22.534
81943W        W82807  27.868   3.067  24.908
81944W        W82808  26.779   1.610  23.410
81945W        W82809  26.286   3.450  24.335
81946W        W82810  28.952   3.442  21.976
81947W        W82811  25.802   2.131  25.031
81948W        W82812  27.590   2.429  23.874
81949W        W82813  26.345   2.177  22.881
81950W        W82814  26.725   3.073  24.394
81951W        W82815  27.190   0.439  23.410
81952W        W82816  25.673   2.168  22.359
81953W        W82817  27.137   1.273  22.046
81954W        W82818  26.003   1.919  23.195
81955W        W82819  27.041   0.582  24.730
81956W        W82820  28.758   0.389  21.837
81957W        W82821  28.859   2.024  25.215
81958W        W82822  27.569   3.458  25.330
81959W        W82823   0.032   2.395  24.901
81960W        W82824  28.681   3.051  25.441
81961W        W82825  26.300   3.669  23.869
81962W        W82826   0.145   2.272  22.856
81963W        W82827  27.691   1.416  23.283
81964W        W82828  27.462   0.059  23.176
81965W        W82829  26.538   3.023  23.092
81966W        W82830  27.069   1.011  24.263
81967W        W82831  26.740   0.263  23.796
81968W        W82832  25.772   3.165  22.323
81969W        W82833  27.349   2.222  23.104
81970W        W82834  26.530   3.298  24.822
81971W        W82835  25.996   1.868  22.642
81972W        W82836  25.778   0.673  23.694
81973W        W82837  27.225   2.532  23.527
81974W        W82838  25.575   0.347  22.589
81975W        W82839  28.534   1.662  24.509
81976W        W82840  28.092   1.052  22.024
81977W        W82841  28.795   2.616  24.046
81978W        W82842  27.355   3.002  23.699
81979W        W82843  26.595   3.219  22.604
81980W        W82844  27.844   0.250  22.101
81981W        W82845  25.887   3.374  23.941
81982W        W82846  27.793   1.170  25.373
81983W        W82847  25.905   0.961  25.590
81984W        W82848  25.869   1.221  22.655
81985W        W82849  26.397   1.184  22.630
81986W        W82850  28.038   1.610  25.197
81987W        W82851  26.532   2.079  23.885
81988W        W82852  27.994   0.145  23.170
81989W        W82853  27.163   3.483  23.603
81990W        W82854  28.203   3.013  24.510
81991W        W82855  28.171   3.006  23.570
81992W        W82856  27.911   2.230  23.264
81993W        W82857  27.377   0.456  22.410
81994W        W82858  28.986   0.163  23.107
81995W        W82859  26.706   1.566  21.943
81996W        W82860  28.931   1.037  23.077
81997W        W82861  27.500   2.154  22.105
81998W        W82862  28.524   2.364  24.965
81999W        W82863  28.202   2.971  21.966
82000W        W82864  26.940   1.007  25.285
82001W        W82865  26.807   1.448  24.338
82002W        W82866  28.736   2.851  24.900
82003W        W82867  27.877   0.754  24.868
82004W        W82868  25.584   1.353  24.736
82005W        W82869  27.572   1.805  24.438
82006W        W82870  25.875   2.415  23.293
82007W        W82871  25.973   1.647  24.019
82008W        W82872  28.230   2.148  24.556
82009W        W82873  28.096   3.473  25.167
82010W        W82874  27.832   1.259  24.861
82011W        W82875  28.181   3.323  23.162
82012W        W82876  27.233   3.075  24.584
82013W        W82877  26.652   3.289  23.936
82014W        W82878  28.515   2.597  24.487
82015W        W82879  27.382   2.598  25.501
82016W        W82880  26.197   2.446  23.704
82017W        W82881  28.428   2.189  23.362
82018W        W82882  28.102   3.308  24.090
82019W        W82883  26.242   3.011  24.088
82020W        W82884  27.358   1.256  25.106
82021W        W82885  27.378   3.292  22.797
82022W        W82886  26.917   2.771  25.405
82023W        W82887  26.964   2.925  22.793
82024W        W82888  26.331   1.254  21.769
82025W        W82889  25.611   3.678  28.845
82026W        W82890  25.992   2.603  28.464
82027W        W82891  28.665   2.302  26.178
82028W        W82892  28.931   3.333  28.137
82029W        W82893  26.876   3.399  25.823
82030W        W82894  26.710   1.518  26.574
82031W        W82895  26.357   1.346  26.949
82032W        W82896  27.121   2.033  26.186
82033W        W82897  27.077   3.053  28.319
82034W        W82898  25.792   0.911  28.527
82035W        W82899  26.281   0.046  28.293
82036W        W82900  28.049   0.537  27.226
82037W        W82901  27.670   1.229  25.862
82038W        W82902  28.219   0.869  28.886
82039W        W82903  25.682   0.614  28.083
82040W        W82904  25.749   3.139  28.914
82041W        W82905  27.254   2.551  26.255
82042W        W82906  25.834   1.371  27.618
82043W        W82907  26.456   1.370  28.807
82044W        W82908  28.738   1.248  27.246
82045W        W82909  28.742   2.136  28.069
82046W        W82910  27.218   1.513  27.085
82047W        W82911  27.715   2.920  27.503
82048W        W82912  26.157   2.268  27.818
82049W        W82913  25.455   1.669  27.394
82050W        W82914  26.557   1.629  28.377
82051W        W82915  28.859   1.442  28.727
82052W        W82916  26.326   2.776  27.119
82053W        W82917  27.482   2.730  28.248
82054W        W82918  26.917   1.254  27.424
82055W        W82919  27.082   2.062  27.113
82056W        W82920  27.704   3.006   0.085
82057W        W82921  27.070   2.057  28.927
82058W        W82922  27.258   1.853  28.400
82059W        W82923  25.470   1.200  28.970
82060W        W82924  28.168   2.885  28.886
82061W        W82925  25.948   0.252  26.626
82062W        W82926  26.499   2.625  27.623
82063W        W82927   0.033   2.496  27.118
82064W        W82928  28.467   0.763  27.523
82065W        W82929  28.591   0.839  25.515
82066W        W82930   0.127   1.530  27.905
82067W        W82931  27.007   3.388  27.483
82068W        W82932  28.817   2.761  26.305
82069W        W82933  26.061   3.769  26.229
82070W        W82934  26.399   3.604  26.616
82071W        W82935  26.161   0.402  27.933
82072W        W82936  28.763   1.364  28.215
82073W        W82937  28.023   1.763  26.683
82074W        W82938  28.051   1.537  25.710
82075W        W82939  27.444   2.541  27.749
82076W        W82940  27.290   0.957  26.991
82077W        W82941  27.738   3.180  28.024
82078W        W82942  28.687   1.909  26.500
82079W        W82943  27.647   0.551  26.357
82080W        W82944  26.181   3.270  26.263
82081W        W82945  25.602   0.608  26.774
82082W        W82946  28.048   1.461  27.146
82083W        W82947  25.808   2.883  27.107
82084W        W82948  27.248   3.139  26.235
82085W        W82949  28.444   1.351  25.427
82086W        W82950  25.661   3.187  27.945
82087W        W82951  26.401   2.655  28.158
82088W        W82952  26.666   2.046  26.748
82089W        W82953  26.916   0.505  27.920
82090W        W82954  28.947   0.245  27.254
82091W        W82955  26.115   1.845  25.410
82092W        W82956  25.980   1.124  26.086
82093W        W82957  26.045   2.934  26.661
82094W        W82958  27.014   2.421  26.729
82095W        W82959  28.352   3.219  28.521
82096W        W82960  27.339   0.951  26.131
82097W        W82961  28.623   3.397  26.902
82098W        W82962  28.426   1.136  28.498
82099W        W82963   0.147   2.759  26.693
82100W        W82964  27.700   2.241  28.272
82101W        W82965  25.330   1.772  26.484
82102W        W82966  26.652   2.252  27.981
82103W        W82967  27.714   1.435  26.342
82104W        W82968  27.584   1.948  26.435
82105W        W82969  26.221   1.309  27.929
82106W        W82970  25.973   1.206  28.917
82107W        W82971  25.997   0.230  27.124
82108W        W82972  27.529   0.656  27.347
82109W        W82973  27.304   0.809  28.818
82110W        W82974  27.755   0.665  25.862
82111W        W82975  28.872   3.213  28.653
82112W        W82976  27.704   0.210  28.736
82113W        W82977  28.661   2.730  28.817
82114W        W82978  28.219   0.691  28.386
82115W        W82979  28.082   0.695  26.696
82116W        W82980  28.324   1.874   0.046
82117W        W82981  26.173   3.272  27.098
82118W        W82982  26.845   1.045  26.315
82119W        W82983  26.368   0.373  28.770
82120W        W82984  28.433   0.964  26.345
82121W        W82985  28.682   1.424  26.355
82122W        W82986  26.550   3.403  28.764
82123W        W82987  26.579   0.020  26.109
82124W        W82988  28.816   0.745  27.130
82125W        W82989   0.121   2.934  25.688
82126W        W82990  25.773   2.067  27.195
82127W        W82991  27.834   0.652  25.369
82128W        W82992   0.017   2.931  27.392
82129W        W82993  28.760   0.307  27.884
82130W        W82994  27.472   1.432  28.639
82131W        W82995  27.781   2.850  26.458
82132W        W82996  27.873   2.123   0.127
82133W        W82997  27.674   0.166  27.266
82134W        W82998  26.139   1.048  27.294
82135W        W82999  25.763   2.244  28.165
82136W        W83000  27.781   3.287  27.111
82137W        W83001  28.760   1.151  27.754
82138W        W83002  27.443   3.412  28.410
82139W        W83003  28.725   2.190  25.685
82140W        W83004  27.132   1.818  26.662
82141W        W83005  28.959   0.350  28.388
82142W        W83006  27.181   2.286  28.125
82143W        W83007  27.476   1.182  27.403
82144W        W83008  28.204   1.393  26.173
82145W        W83009  28.637   1.206  25.890
82146W        W83010  28.450   3.080  26.484
82147W        W83011  28.421   2.494  27.164
82148W        W83012  27.983   1.863  26.128
82149W        W83013  27.574   1.928  26.962
82150W        W83014  28.472   1.699  27.327
82151W        W83015  25.929   0.855  27.708
82152W        W83016  28.444   1.711  28.546
82153W        W83017   0.004   3.392  27.619
82154W        W83018  26.871   2.885  26.990
82155W        W83019  28.098   3.563  28.132
82156W        W83020  27.842   0.803  28.072
82157W        W83021  27.186   3.523  27.960
82158W        W83022  28.657   0.533  26.489
82159W        W83023  28.626   1.688  27.817
82160W        W83024  25.710   1.164  28.079
82161W        W83025  28.335   0.982  27.064
82162W        W83026  28.919   0.976  28.525
82163W        W83027  27.758   2.771  26.986
82164W        W83028  27.021   3.306  26.687
82165W        W83029  26.010   0.586  25.978
82166W        W83030  27.283   0.279  27.628
82167W        W83031  26.242   3.604  25.783
82168W        W83032  26.588   1.893  26.246
82169W        W83033  27.334   2.365  28.620
82170W        W83034  27.175   0.687  26.545
82171W        W83035  28.480   0.412  26.953
82172W        W83036  28.216   3.567  27.200
82173W        W83037  27.526   3.397  27.557
82174W        W83038  27.017   2.286  27.605
82175W        W83039  28.720   2.988  27.818
82176W        W83040  26.360   0.435  26.359
82177W        W83041  26.977   2.808  27.480
82178W        W83042  26.413   0.834  25.518
82179W        W83043  27.282   1.399  27.842
82180W        W83044  27.785   0.416  27.723
82181W        W83045  25.672   2.077  27.699
82182W        W83046  27.140   1.893  25.666
82183W        W83047  26.445   0.389  25.781
82184W        W83048  27.215   1.311  26.563
82185W        W83049  27.887   0.326  28.255
82186W        W83050  26.793   2.085  28.472
82187W        W83051  27.581   1.941  28.765
82188W        W83052  28.060   2.068  28.618
82189W        W83053  27.370   0.376   0.099
82190W        W83054  26.618   0.800  27.195
82191W        W83055  26.186   0.683  26.908
82192W        W83056  25.910   3.456  26.674
82193W        W83057  27.324   2.863  28.742
82194W        W83058  26.274   2.291  26.064
82195W        W83059  28.012   1.965  27.277
82196W        W83060  28.087   1.706  27.709
82197W        W83061  27.498   2.150  27.422
82198W        W83062  27.877   2.522  25.655
82199W        W83063  27.616   0.540  26.872
82200W        W83064  28.966   1.001  26.279
82201W        W83065  25.614   3.351  28.450
82202W        W83066  25.909   2.711  27.956
82203W        W83067  25.548   3.597  26.301
82204W        W83068  27.440   0.873  27.793
82205W        W83069  26.900   2.878  25.948
82206W        W83070  28.683   3.191  26.017
82207W        W83071  27.510   1.716  25.964
82208W        W83072  26.354   1.076  26.521
82209W        W83073  27.382   0.884  25.576
82210W        W83074  27.814   2.526  28.744
82211W        W83075  28.171   0.475  26.242
82212W        W83076  25.672   0.178  25.790
82213W        W83077  26.914   2.691  27.965
82214W        W83078  26.727   2.426  27.178
82215W        W83079  26.518   2.599  25.703
82216W        W83080  25.685   3.067  26.301
82217W        W83081  26.069   1.708  28.725
82218W        W83082  26.865   0.493  28.880
82219W        W83083  27.408   0.492  28.128
82220W        W83084  26.819   0.221  26.596
82221W        W83085  27.778   0.178  26.034
82222W        W83086  25.770   0.330  27.614
82223W        W83087  25.852   1.088  26.832
82224W        W83088  28.446   0.227  27.451
82225W        W83089  25.969   0.752  26.452
82226W        W83090  28.262   0.482  27.904
82227W        W83091  28.825   1.669  25.609
82228W        W83092  26.261   0.532  27.442
82229W        W83093  27.416   1.032  28.287
82230W        W83094  25.525   0.662  25.822
82231W        W83095  26.266   2.140  28.345
82232W        W83096  27.625   1.658  27.450
82233W        W83097  27.400   3.548  25.847
82234W        W83098  25.617   1.961  25.533
82235W        W83099  26.460   2.485  28.698
82236W        W83100  25.950   1.739  28.210
82237W        W83101  26.935   1.839  28.011
82238W        W83102  28.423   0.214  28.320
82239W        W83103   0.012   1.788  28.356
82240W        W83104  28.978   1.926  26.037
82241W        W83105  27.824   2.386  26.215
82242W        W83106  28.363   3.423  25.643
82243W        W83107  27.590   1.637   0.182
82244W        W83108  26.032   2.504  28.998
82245W        W83109   0.104   0.602  28.840
82246W        W83110  28.303   1.266  27.541
82247W        W83111  27.072   3.307  28.804
82248W        W83112  26.926   0.230  25.728
82249W        W83113  28.671   2.685  25.820
82250W        W83114  26.312   0.868  28.659
82251W        W83115  26.905   2.588  28.460
82252W        W83116  28.698   0.749  28.130
82253W        W83117  28.204   3.443  26.153
82254W        W83118  28.367   2.156  27.624
82255W        W83119  26.532   0.514  28.293
82256W        W83120  26.942   1.577  28.777
82257W        W83121  26.407   2.798  26.243
82258W        W83122  28.247   2.193  26.451
82259W        W83123  26.155   0.852  28.166
82260W        W83124  27.322   2.875  26.709
82261W        W83125  28.991   1.534  26.882
82262W        W83126  27.231   0.293  28.567
82263W        W83127  28.277   2.822  27.562
82264W        W83128  28.581   3.219  27.376
82265W        W83129  27.565   2.820  25.942
82266W        W83130  25.581   2.641  28.771
82267W        W83131  26.512   0.933  27.704
82268W        W83132  26.505   0.285  26.996
82269W        W83133  27.937   0.905  27.574
82270W        W83134  26.997   2.392  25.803
82271W        W83135  28.778   2.101  27.319
82272W        W83136  26.220   2.977  28.743
82273W        W83137  28.609   3.593  26.435
82274W        W83138  26.671   0.704  26.683
82275W        W83139  26.255   1.861  27.009
82276W        W83140  26.686   3.694  27.876
82277W        W83141  28.568   3.611  28.796
82278W        W83142  27.869   2.172  27.786
82279W        W83143  25.815   1.479  25.632
82280W        W83144  28.938   3.208  26.532
82281W        W83145  28.678   0.678  25.985
82282W        W83146  26.736   0.080  28.539
82283W        W83147  28.707   2.888  26.940
82284W        W83148  28.474   1.516  26.835
82285W        W83149  26.837   1.157  26.900
82286W        W83150  27.032   1.389  28.305
82287W        W83151  28.156   2.714  28.399
82288W        W83152  26.600   1.098  28.297
82289W        W83153  26.693   3.472  27.059
82290W        W83154  26.057   3.486  28.662
82291W        W83155  26.442   3.118  25.817
82292W        W83156  28.694   2.421  26.696
82293W        W83157  26.129   1.297  28.423
82294W        W83158   0.129   1.401  25.954
82295W        W83159  26.746   2.389  26.267
82296W        W83160  27.787   1.715  28.292
82297W        W83161  27.798   1.300  27.900
82298W        W83162  26.389   1.809  27.932
82299W        W83163  28.493   3.508  27.791
82300W        W83164  28.187   0.339  28.795
82301W        W83165  25.960   0.417  28.469
82302W        W83166  26.420   1.453  27.458
82303W        W83167  26.692   1.233  25.695
82304W        W83168  25.537   2.848  28.297
82305W        W83169  27.086   1.756  27.524
82306W        W83170  26.902   0.757  25.744
82307W        W83171  26.191   1.589  26.527
82308W        W83172  25.881   3.637  28.100
82309W        W83173  28.485   1.791  25.994
82310W        W83174  28.615   0.593  28.672
82311W        W83175  28.231   2.669  26.702
82312W        W83176  25.586   1.768  28.920
82313W        W83177  28.568   0.184  26.074
82314W        W83178  28.286   2.675  26.185
82315W        W83179  26.998   1.520  26.108
82316W        W83180  28.243   0.493  25.731
82317W        W83181  28.293   1.009  27.977
82318W        W83182  25.900   1.513  27.137
82319W        W83183  26.483   2.546  26.695
82320W        W83184  28.086   1.221  26.660
82321W        W83185  27.047   0.761  27.477
82322W        W83186  28.999   2.587  28.016
82323W        W83187  28.989   0.697  27.620
82324W        W83188  25.645   3.367  27.137
82325W        W83189  25.915   2.556  26.339
82326W        W83190  26.103   0.165   0.162
82327W        W83191  27.204   3.009   0.239
82328W        W83192   0.010   2.042  26.876
82329W        W83193  28.244   2.245  25.897
82330W        W83194  27.656   3.734  27.930
82331W        W83195  28.300   2.384  28.952
82332W        W83196  27.092   0.007  26.210
82333W        W83197  27.822   0.988  27.067
82334W        W83198  25.821   2.511  27.475
82335W        W83199  26.831   0.510  26.180
82336W        W83200  26.535   1.884  28.898
82337W        W83201  27.611   0.988  26.599
82338W        W83202  27.914   2.677  27.930
82339W        W83203  26.035   3.105  28.284
82340W        W83204  26.734   2.929  28.793
82341W        W83205  26.448   0.859  26.041
82342W        W83206  27.941   0.959  26.223
82343W        W83207  27.795   3.059  28.562
82344W        W83208  26.737   1.662  27.096
82345W        W83209  26.287   3.300  27.876
82346W        W83210  28.938   3.463  25.643
82347W        W83211  25.812   2.161  28.671
82348W        W83212  27.934   2.471  27.377
82349W        W83213  26.186   2.123  26.550
82350W        W83214  26.790   3.182  27.896
82351W        W83215  27.042   0.497  27.010
82352W        W83216  25.542   2.196  25.988
82353W        W83217  27.183   1.361  25.626
82354W        W83218  25.788   1.824  26.746
82355W        W83219  26.993   0.731  28.403
82356W        W83220  28.728   0.346  25.566
82357W        W83221  28.800   2.005  28.772
82358W        W83222  27.538   3.462  28.932
82359W        W83223  28.991   2.443  28.529
82360W        W83224  28.541   3.172   0.065
82361W        W83225  26.372   3.613  27.463
82362W        W83226   0.120   2.258  26.429
82363W        W83227  27.644   1.430  26.848
82364W        W83228  27.342   0.193  26.627
82365W        W83229  26.507   3.110  26.722
82366W        W83230  26.980   0.998  27.955
82367W        W83231  26.787   0.311  27.431
82368W        W83232  25.797   3.382  25.897
82369W        W83233  27.524   2.401  26.677
82370W        W83234  26.548   3.109  28.341
82371W        W83235  25.847   1.865  26.237
82372W        W83236  25.783   0.681  27.243
82373W        W83237  27.294   2.551  27.155
82374W        W83238  25.621   0.399  26.265
82375W        W83239  28.243   1.484  28.140
82376W        W83240  28.151   1.016  25.742
82377W        W83241  28.742   2.533  27.575
82378W        W83242  27.317   3.077  27.189
82379W        W83243  26.700   3.265  26.275
82380W        W83244  27.892   0.153  25.538
82381W        W83245  25.892   3.438  27.566
82382W        W83246  27.753   1.143  28.998
82383W        W83247  25.965   0.657   0.003
82384W        W83248  25.684   1.389  26.436
82385W        W83249  26.464   1.388  26.126
82386W        W83250  27.963   1.582  28.786
82387W        W83251  26.606   1.982  27.492
82388W        W83252  27.891   0.181  26.600
82389W        W83253  27.254   3.583  27.070
82390W        W83254  28.260   3.070  28.028
82391W        W83255  28.218   3.022  27.078
82392W        W83256  27.968   2.276  26.883
82393W        W83257  27.306   0.444  25.993
82394W        W83258   0.009   0.235  26.730
82395W        W83259  26.666   1.727  25.499
82396W        W83260  28.747   1.080  26.744
82397W        W83261  27.485   2.237  25.864
82398W        W83262  28.492   2.329  28.476
82399W        W83263  28.229   2.918  25.709
82400W        W83264  26.823   1.019  28.818
82401W        W83265  26.718   1.414  27.875
82402W        W83266  28.673   2.855  28.319
82403W        W83267  27.732   0.710  28.563
82404W        W83268  25.642   1.415  28.531
82405W        W83269  27.449   1.896  27.900
82406W        W83270  25.945   2.444  26.875
82407W        W83271  26.084   1.830  27.520
82408W        W83272  28.233   2.013  28.126
82409W        W83273  28.054   3.403  28.915
82410W        W83274  27.911   1.187  28.432
82411W        W83275  28.125   3.396  26.706
82412W        W83276  27.288   3.028  27.828
82413W        W83277  26.562   3.121  27.427
82414W        W83278  28.423   2.541  27.985
82415W        W83279  27.471   2.532   0.127
82416W        W83280  26.241   2.292  27.292
82417W        W83281  28.425   2.030  26.930
82418W        W83282  28.045   3.307  27.609
82419W        W83283  26.078   2.960  27.540
82420W        W83284  27.231   1.261   0.069
82421W        W83285  27.551   3.361  26.646
82422W        W83286  26.962   2.548   0.026
82423W        W83287  26.874   2.839  26.472
82424W        W83288  26.266   1.333  25.392
82425W        W83289  25.483   7.384   3.427
82426W        W83290  26.057   6.180   2.828
82427W        W83291  28.584   5.903   0.700
82428W        W83292  28.923   6.953   2.698
82429W        W83293  26.815   6.976   0.350
82430W        W83294  26.562   5.016   1.093
82431W        W83295  26.214   4.813   1.393
82432W        W83296  27.206   5.690   0.771
82433W        W83297  27.033   7.011   3.046
82434W        W83298  25.607   4.409   2.907
82435W        W83299  26.244   3.770   2.812
82436W        W83300  27.983   4.255   1.609
82437W        W83301  27.654   4.792   0.437
82438W        W83302  28.308   4.489   3.294
82439W        W83303  25.677   3.988   2.560
82440W        W83304  25.704   6.911   3.487
82441W        W83305  26.977   5.902   0.356
82442W        W83306  25.767   4.852   2.021
82443W        W83307  26.711   4.967   3.174
82444W        W83308  28.849   4.617   1.853
82445W        W83309  28.771   5.818   2.619
82446W        W83310  27.095   5.224   1.712
82447W        W83311  27.813   6.451   1.937
82448W        W83312  26.398   5.783   2.092
82449W        W83313  25.554   5.349   1.929
82450W        W83314  26.730   5.491   2.944
82451W        W83315  28.769   5.161   3.200
82452W        W83316  26.394   6.565   1.714
82453W        W83317  27.581   6.339   2.687
82454W        W83318  26.810   4.870   1.956
82455W        W83319  26.816   5.648   1.685
82456W        W83320  27.822   6.583   3.488
82457W        W83321  27.211   5.771   3.449
82458W        W83322  27.243   5.603   2.921
82459W        W83323  25.445   4.726   3.322
82460W        W83324  28.280   6.446   3.256
82461W        W83325  25.939   3.677   1.083
82462W        W83326  26.479   6.322   2.178
82463W        W83327  29.000   6.119   1.622
82464W        W83328  28.455   4.256   1.838
82465W        W83329  28.724   4.548   0.059
82466W        W83330   0.276   5.209   2.458
82467W        W83331  27.103   6.993   2.195
82468W        W83332  28.774   6.401   0.758
82469W        W83333  26.054   7.288   0.690
82470W        W83334  26.377   7.132   1.116
82471W        W83335  26.320   3.998   2.342
82472W        W83336  28.761   4.994   2.640
82473W        W83337  28.036   5.283   1.272
82474W        W83338  28.052   5.111   0.286
82475W        W83339  27.377   6.456   2.219
82476W        W83340  27.231   4.737   1.643
82477W        W83341  27.745   6.768   2.489
82478W        W83342  28.684   5.531   1.030
82479W        W83343  27.332   4.049   1.050
82480W        W83344  26.138   6.773   0.817
82481W        W83345  25.703   4.162   1.262
82482W        W83346  28.357   4.749   1.668
82483W        W83347  25.795   6.550   1.755
82484W        W83348  27.161   6.730   0.672
82485W        W83349  28.398   4.943  28.941
82486W        W83350  25.614   6.605   2.255
82487W        W83351  26.452   6.492   2.652
82488W        W83352  26.589   5.509   1.221
82489W        W83353  26.829   4.076   2.318
82490W        W83354  28.991   3.705   1.730
82491W        W83355  26.141   5.227   0.308
82492W        W83356  25.879   4.604   0.463
82493W        W83357  25.952   6.561   1.269
82494W        W83358  26.813   5.970   1.273
82495W        W83359  28.464   6.888   2.982
82496W        W83360  27.349   4.501   0.752
82497W        W83361  28.635   7.101   1.493
82498W        W83362  28.345   4.932   2.979
82499W        W83363   0.084   6.414   1.195
82500W        W83364  27.720   5.826   2.735
82501W        W83365  25.503   5.282   1.152
82502W        W83366  26.498   5.975   2.567
82503W        W83367  27.775   5.012   0.891
82504W        W83368  27.574   5.463   1.059
82505W        W83369  25.941   4.821   2.520
82506W        W83370  25.880   4.870   3.055
82507W        W83371  25.880   3.726   1.591
82508W        W83372  27.648   4.267   1.988
82509W        W83373  27.495   4.316   3.163
82510W        W83374  27.759   4.273   0.503
82511W        W83375  28.996   6.790   3.202
82512W        W83376  27.784   3.841   3.141
82513W        W83377  28.781   6.314   3.357
82514W        W83378  28.443   4.383   2.786
82515W        W83379  27.794   4.333   1.029
82516W        W83380  28.429   5.443   3.537
82517W        W83381  26.122   6.975   1.549
82518W        W83382  26.889   4.755   0.767
82519W        W83383  26.399   3.972   3.266
82520W        W83384  28.531   4.677   0.928
82521W        W83385  28.768   5.107   0.757
82522W        W83386  26.616   7.177   3.318
82523W        W83387  26.760   3.738   0.637
82524W        W83388  28.821   4.140   1.518
82525W        W83389  28.979   6.567   0.285
82526W        W83390  25.905   5.714   1.962
82527W        W83391  27.793   4.246  28.990
82528W        W83392  28.992   6.568   1.913
82529W        W83393  28.909   3.817   2.430
82530W        W83394  27.506   5.136   3.110
82531W        W83395  27.296   6.203   0.655
82532W        W83396  27.969   5.663   3.616
82533W        W83397  27.628   3.829   1.728
82534W        W83398  26.168   4.560   1.849
82535W        W83399  25.991   5.760   2.501
82536W        W83400  27.707   6.963   1.515
82537W        W83401  28.748   4.542   2.364
82538W        W83402  27.550   7.067   2.898
82539W        W83403  28.674   5.799   0.207
82540W        W83404  27.098   5.501   1.261
82541W        W83405  28.999   3.795   2.938
82542W        W83406  27.285   5.954   2.488
82543W        W83407  27.427   4.704   2.132
82544W        W83408  28.258   5.120   0.827
82545W        W83409  28.479   4.844   0.434
82546W        W83410  28.399   6.614   1.075
82547W        W83411  28.495   6.112   1.697
82548W        W83412  27.819   5.437   0.597
82549W        W83413  27.460   5.651   1.617
82550W        W83414  28.448   5.293   1.763
82551W        W83415  25.913   4.343   2.237
82552W        W83416  28.522   5.416   2.839
82553W        W83417  28.951   7.026   2.163
82554W        W83418  26.875   6.465   1.459
82555W        W83419  28.053   7.124   2.723
82556W        W83420  27.783   4.452   2.485
82557W        W83421  27.130   7.306   2.638
82558W        W83422  28.725   4.174   1.013
82559W        W83423  28.695   5.418   2.317
82560W        W83424  25.484   4.583   2.398
82561W        W83425  28.363   4.357   1.305
82562W        W83426  28.790   4.653   3.067
82563W        W83427  27.628   6.182   1.537
82564W        W83428  27.015   6.873   1.172
82565W        W83429  26.042   4.122   0.481
82566W        W83430  27.195   3.798   2.047
82567W        W83431  26.278   7.101   0.264
82568W        W83432  26.332   5.385   0.768
82569W        W83433  27.405   6.068   3.068
82570W        W83434  27.059   4.459   1.208
82571W        W83435  28.338   3.875   1.487
82572W        W83436  28.154   7.185   1.742
82573W        W83437  27.578   6.905   2.017
82574W        W83438  26.879   5.966   2.154
82575W        W83439  28.724   6.605   2.358
82576W        W83440  26.378   4.019   0.907
82577W        W83441  26.920   6.483   1.968
82578W        W83442  26.415   4.220   0.113
82579W        W83443  27.128   5.098   2.287
82580W        W83444  28.068   3.959   2.032
82581W        W83445  25.509   5.686   2.315
82582W        W83446  27.080   5.396   0.365
82583W        W83447  26.522   3.712   0.193
82584W        W83448  27.067   4.993   1.214
82585W        W83449  28.051   4.002   2.556
82586W        W83450  26.918   6.005   2.865
82587W        W83451  27.659   5.621   3.212
82588W        W83452  28.170   5.659   3.134
82589W        W83453  27.408   3.942   3.539
82590W        W83454  26.633   4.372   1.936
82591W        W83455  26.181   4.290   1.400
82592W        W83456  25.816   7.040   1.128
82593W        W83457  27.385   6.607   3.155
82594W        W83458  26.148   5.824   0.551
82595W        W83459  27.942   5.471   1.741
82596W        W83460  28.046   5.028   2.001
82597W        W83461  27.536   5.993   2.028
82598W        W83462  27.486   4.288   1.488
82599W        W83463   0.048   4.625   0.825
82600W        W83464  25.753   7.017   2.969
82601W        W83465  25.972   6.243   2.330
82602W        W83466  25.495   7.202   0.746
82603W        W83467  27.317   4.232   2.359
82604W        W83468  26.838   6.401   0.431
82605W        W83469  28.620   6.931   0.595
82606W        W83470  27.306   5.123   0.755
82607W        W83471  26.531   4.498   1.071
82608W        W83472  27.329   4.421   0.214
82609W        W83473  27.898   6.079   3.285
82610W        W83474  28.213   4.034   0.897
82611W        W83475  25.636   3.717   0.359
82612W        W83476  26.926   6.365   2.471
82613W        W83477  26.620   6.107   1.736
82614W        W83478  26.489   6.067   0.239
82615W        W83479  25.641   6.626   0.847
82616W        W83480  26.312   5.181   2.919
82617W        W83481  26.895   3.790   3.511
82618W        W83482  27.571   4.041   2.742
82619W        W83483  26.842   3.792   1.141
82620W        W83484  27.727   3.822   0.771
82621W        W83485  25.875   3.806   2.122
82622W        W83486  25.772   4.609   1.526
82623W        W83487  28.530   3.730   1.963
82624W        W83488  26.026   4.413   0.924
82625W        W83489  28.492   4.097   2.336
82626W        W83490  28.834   5.283   0.139
82627W        W83491  26.243   4.042   1.841
82628W        W83492  27.351   4.676   2.672
82629W        W83493  25.527   4.219   0.331
82630W        W83494  26.256   5.700   2.945
82631W        W83495  27.554   5.209   1.993
82632W        W83496  27.506   7.130   0.455
82633W        W83497  25.716   5.540   0.318
82634W        W83498  26.448   6.381   3.155
82635W        W83499  25.838   5.302   2.753
82636W        W83500  26.937   5.566   2.496
82637W        W83501  28.500   3.865   2.827
82638W        W83502   0.052   5.475   2.865
82639W        W83503  28.950   5.552   0.581
82640W        W83504  27.714   5.905   0.807
82641W        W83505  28.461   7.211   0.152
82642W        W83506  27.613   5.307   3.619
82643W        W83507  26.081   6.024   3.315
82644W        W83508   0.162   4.257   3.426
82645W        W83509  28.550   4.953   2.134
82646W        W83510  27.094   7.148   3.549
82647W        W83511  27.116   3.558   0.285
82648W        W83512  28.439   6.262   0.368
82649W        W83513  26.573   4.452   3.210
82650W        W83514  26.893   6.530   2.947
82651W        W83515  28.955   4.265   2.744
82652W        W83516  28.238   7.329   0.602
82653W        W83517  28.362   5.819   2.151
82654W        W83518  26.569   4.196   2.761
82655W        W83519  27.062   5.309   3.304
82656W        W83520  26.361   6.273   0.825
82657W        W83521  28.181   5.643   0.922
82658W        W83522  26.070   4.273   2.713
82659W        W83523  27.328   6.455   1.173
82660W        W83524   0.042   5.035   1.175
82661W        W83525  27.250   3.799   3.081
82662W        W83526  28.316   6.399   2.072
82663W        W83527  28.547   6.847   1.926
82664W        W83528  27.599   6.583   0.426
82665W        W83529  25.574   6.217   3.263
82666W        W83530  26.405   4.528   2.368
82667W        W83531  26.352   3.800   1.395
82668W        W83532  28.090   4.515   2.071
82669W        W83533  26.577   5.548   0.345
82670W        W83534  28.765   5.702   1.865
82671W        W83535  25.957   6.577   3.155
82672W        W83536  28.566   7.289   1.010
82673W        W83537  26.688   4.182   1.462
82674W        W83538  26.273   5.693   1.588
82675W        W83539  26.706   7.344   2.335
82676W        W83540  28.724   7.220   3.279
82677W        W83541  27.863   5.622   2.237
82678W        W83542  25.721   5.086   0.592
82679W        W83543  28.861   6.861   1.070
82680W        W83544  28.692   4.372   0.536
82681W        W83545  26.761   3.747   2.937
82682W        W83546  28.683   6.561   1.500
82683W        W83547  28.524   5.079   1.275
82684W        W83548  26.712   4.703   1.499
82685W        W83549  27.076   5.117   2.805
82686W        W83550  28.063   6.223   2.832
82687W        W83551  26.835   4.643   2.810
82688W        W83552  26.660   6.966   1.541
82689W        W83553  26.093   7.217   3.319
82690W        W83554  26.367   6.598   0.382
82691W        W83555  28.617   6.119   1.188
82692W        W83556  26.325   4.690   2.848
82693W        W83557   0.001   4.859   0.375
82694W        W83558  26.661   5.832   0.782
82695W        W83559  27.896   5.336   2.817
82696W        W83560  27.746   4.990   2.435
82697W        W83561  26.413   5.460   2.501
82698W        W83562  28.486   7.091   2.413
82699W        W83563  28.253   3.957   3.290
82700W        W83564  25.834   3.950   3.060
82701W        W83565  26.326   4.979   2.095
82702W        W83566  26.781   4.578   0.219
82703W        W83567  25.579   6.443   2.804
82704W        W83568  27.208   5.588   2.063
82705W        W83569  26.897   4.081   0.254
82706W        W83570  26.098   5.284   1.215
82707W        W83571  25.774   7.119   2.452
82708W        W83572  28.432   5.431   0.467
82709W        W83573  28.713   4.160   3.208
82710W        W83574  28.129   6.230   1.362
82711W        W83575  25.514   5.225   3.170
82712W        W83576  28.659   3.859   0.602
82713W        W83577  28.183   6.185   0.850
82714W        W83578  26.842   5.327   0.810
82715W        W83579  28.249   4.138   0.378
82716W        W83580  28.225   4.761   2.504
82717W        W83581  26.020   5.204   1.727
82718W        W83582  26.295   6.180   1.357
82719W        W83583  28.059   4.761   1.235
82720W        W83584  27.131   4.304   1.892
82721W        W83585   0.090   6.203   2.518
82722W        W83586  28.925   4.143   2.037
82723W        W83587  25.488   6.918   1.547
82724W        W83588  25.846   6.150   0.963
82725W        W83589  25.958   4.012   3.565
82726W        W83590  27.321   6.687   3.678
82727W        W83591  28.892   5.416   1.476
82728W        W83592  28.117   5.863   0.455
82729W        W83593  27.583   7.247   2.407
82730W        W83594  28.379   5.975   3.501
82731W        W83595  27.232   3.588   0.807
82732W        W83596  27.755   4.716   1.694
82733W        W83597  25.594   6.122   1.976
82734W        W83598  26.885   4.221   0.777
82735W        W83599  26.620   5.895   3.278
82736W        W83600  27.511   4.719   1.206
82737W        W83601  27.945   6.134   2.339
82738W        W83602  25.985   6.686   2.636
82739W        W83603  26.843   6.714   3.429
82740W        W83604  26.436   4.450   0.576
82741W        W83605  28.079   4.625   0.705
82742W        W83606  27.900   6.694   2.988
82743W        W83607  26.538   5.185   1.619
82744W        W83608  26.300   7.052   2.460
82745W        W83609  28.951   7.067   0.197
82746W        W83610  25.731   5.759   2.988
82747W        W83611  28.011   5.978   1.816
82748W        W83612  26.197   5.788   1.069
82749W        W83613  26.768   6.897   2.596
82750W        W83614  27.123   3.924   1.550
82751W        W83615  25.534   5.944   0.600
82752W        W83616  27.160   4.901   0.316
82753W        W83617  25.756   5.583   1.478
82754W        W83618  27.085   4.208   2.809
82755W        W83619  28.712   4.017   0.115
82756W        W83620  28.810   5.686   3.273
82757W        W83621  27.602   7.059   3.441
82758W        W83622   0.056   6.067   3.002
82759W        W83623  28.593   6.758   3.513
82760W        W83624  26.260   7.251   1.980
82761W        W83625   0.039   5.951   0.930
82762W        W83626  27.557   5.156   1.472
82763W        W83627  27.413   3.601   1.297
82764W        W83628  26.459   6.632   1.209
82765W        W83629  26.949   4.577   2.330
82766W        W83630  26.711   3.812   1.865
82767W        W83631  25.790   6.914   0.442
82768W        W83632  27.344   5.943   1.190
82769W        W83633  26.356   6.895   2.967
82770W        W83634  25.816   5.545   0.840
82771W        W83635  25.746   4.180   1.788
82772W        W83636  27.140   6.069   1.691
82773W        W83637  25.649   3.987   0.788
82774W        W83638  28.218   5.275   2.421
82775W        W83639  28.087   4.604   0.186
82776W        W83640  28.784   6.138   2.121
82777W        W83641  27.344   6.578   1.690
82778W        W83642  26.656   6.798   0.785
82779W        W83643  27.842   3.794   0.244
82780W        W83644  25.787   7.035   1.943
82781W        W83645  27.700   4.749   3.414
82782W        W83646  26.054   4.393   3.208
82783W        W83647  25.785   4.860   1.069
82784W        W83648  26.207   4.887   0.742
82785W        W83649  28.008   5.185   3.309
82786W        W83650  26.710   5.356   2.088
82787W        W83651  27.846   3.888   1.270
82788W        W83652  27.188   7.071   1.664
82789W        W83653  28.245   6.648   2.578
82790W        W83654  28.171   6.679   1.616
82791W        W83655  27.870   5.786   1.319
82792W        W83656  27.313   4.008   0.531
82793W        W83657   0.012   3.769   1.213
82794W        W83658  26.625   5.038   0.423
82795W        W83659  28.800   4.626   1.349
82796W        W83660  27.489   5.741   0.331
82797W        W83661  28.512   6.027   3.007
82798W        W83662  28.041   6.890   0.372
82799W        W83663  27.017   4.235   3.314
82800W        W83664  26.651   5.004   2.502
82801W        W83665  28.750   6.470   2.856
82802W        W83666  27.969   4.292   2.972
82803W        W83667  25.430   4.884   2.808
82804W        W83668  27.463   5.426   2.499
82805W        W83669  25.783   6.089   1.475
82806W        W83670  25.970   5.300   2.255
82807W        W83671  28.212   5.759   2.630
82808W        W83672  28.132   6.995   3.379
82809W        W83673  27.842   4.792   2.907
82810W        W83674  28.156   7.065   1.229
82811W        W83675  27.253   6.748   2.638
82812W        W83676  26.612   6.882   2.075
82813W        W83677  28.460   6.193   2.514
82814W        W83678  27.485   6.211   3.552
82815W        W83679  26.119   6.158   1.849
82816W        W83680  28.371   5.686   1.428
82817W        W83681  28.084   6.854   2.128
82818W        W83682  26.124   6.700   2.131
82819W        W83683  27.185   4.723   3.170
82820W        W83684  27.533   6.902   0.991
82821W        W83685  27.010   6.239   3.346
82822W        W83686  26.870   6.358   0.945
82823W        W83687  26.270   4.737   0.162
82824W        W83688  25.533   7.259   7.114
82825W        W83689  26.020   6.166   6.590
82826W        W83690  28.674   5.929   4.271
82827W        W83691  28.907   7.055   6.423
82828W        W83692  26.664   7.025   3.805
82829W        W83693  26.881   5.106   4.912
82830W        W83694  26.529   4.792   5.209
82831W        W83695  27.362   5.708   4.370
82832W        W83696  27.050   6.906   6.823
82833W        W83697  25.687   4.317   6.727
82834W        W83698  26.157   3.585   6.489
82835W        W83699  28.176   4.082   5.495
82836W        W83700  27.633   4.885   3.955
82837W        W83701  28.270   4.472   7.053
82838W        W83702  25.801   3.971   6.327
82839W        W83703  25.737   6.809   7.249
82840W        W83704  27.530   6.344   4.059
82841W        W83705  25.740   4.889   5.676
82842W        W83706  26.604   4.931   6.966
82843W        W83707  28.963   4.602   5.412
82844W        W83708  28.812   5.774   6.198
82845W        W83709  27.347   5.191   5.391
82846W        W83710  27.856   6.488   5.707
82847W        W83711  26.310   5.777   5.884
82848W        W83712  25.486   5.340   5.646
82849W        W83713  26.694   5.355   6.664
82850W        W83714  28.763   5.201   6.864
82851W        W83715  26.555   6.437   5.408
82852W        W83716  27.592   6.305   6.425
82853W        W83717  27.065   4.987   5.778
82854W        W83718  27.164   5.672   5.411
82855W        W83719  27.798   6.617   7.213
82856W        W83720  27.259   5.635   7.209
82857W        W83721  27.203   5.462   6.735
82858W        W83722  25.541   4.650   7.130
82859W        W83723  28.278   6.491   7.050
82860W        W83724  26.126   3.836   4.796
82861W        W83725  26.568   6.222   5.887
82862W        W83726   0.026   6.131   5.245
82863W        W83727  28.468   4.501   5.620
82864W        W83728  28.743   4.516   3.600
82865W        W83729   0.025   5.276   6.075
82866W        W83730  27.185   6.849   5.864
82867W        W83731  28.865   6.396   4.288
82868W        W83732  25.963   7.113   4.357
82869W        W83733  26.389   7.133   4.734
82870W        W83734  26.289   3.906   6.098
82871W        W83735  28.777   4.882   6.298
82872W        W83736  28.210   5.393   4.906
82873W        W83737  28.083   5.173   3.846
82874W        W83738  27.417   6.378   5.961
82875W        W83739  27.558   4.702   5.412
82876W        W83740  27.789   6.708   6.167
82877W        W83741  28.608   5.519   4.559
82878W        W83742  27.641   4.221   4.533
82879W        W83743  26.121   6.670   4.632
82880W        W83744  25.787   4.198   4.954
82881W        W83745  28.551   4.830   5.234
82882W        W83746  25.862   6.537   5.491
82883W        W83747  27.244   6.753   4.359
82884W        W83748  28.434   4.936   3.500
82885W        W83749  25.752   6.615   5.998
82886W        W83750  26.483   6.259   6.381
82887W        W83751  26.788   5.623   5.075
82888W        W83752  26.825   4.158   5.981
82889W        W83753   0.040   3.737   5.381
82890W        W83754  25.985   5.384   3.258
82891W        W83755  25.844   4.528   3.651
82892W        W83756  26.169   6.392   5.085
82893W        W83757  27.099   6.168   5.243
82894W        W83758  28.523   6.877   6.725
82895W        W83759  27.326   4.629   4.525
82896W        W83760  28.689   7.083   5.131
82897W        W83761  28.312   4.911   6.540
82898W        W83762   0.165   6.358   4.808
82899W        W83763  27.832   5.873   6.484
82900W        W83764  25.431   5.316   4.841
82901W        W83765  26.698   5.836   6.204
82902W        W83766  27.809   5.137   4.650
82903W        W83767  27.761   5.651   4.702
82904W        W83768  26.034   4.852   6.109
82905W        W83769  26.020   4.749   6.913
82906W        W83770  26.001   3.858   5.299
82907W        W83771  27.706   4.232   5.735
82908W        W83772  27.299   4.129   6.982
82909W        W83773  27.726   4.362   4.009
82910W        W83774   0.067   6.931   6.907
82911W        W83775  27.725   3.750   6.938
82912W        W83776  28.768   6.244   7.040
82913W        W83777  28.295   4.363   6.560
82914W        W83778  28.126   4.337   4.694
82915W        W83779  28.489   5.501   7.183
82916W        W83780  26.221   6.881   5.279
82917W        W83781  27.114   4.739   4.052
82918W        W83782  26.312   3.938   6.844
82919W        W83783  28.563   4.613   4.537
82920W        W83784  28.828   5.019   4.331
82921W        W83785  26.545   7.012   7.000
82922W        W83786  26.542   3.886   4.311
82923W        W83787  28.907   4.164   5.122
82924W        W83788   0.077   6.509   3.792
82925W        W83789  25.856   5.731   5.611
82926W        W83790  27.867   4.237   3.516
82927W        W83791   0.025   6.594   5.508
82928W        W83792  28.870   3.915   6.077
82929W        W83793  27.575   5.085   6.695
82930W        W83794  27.544   6.153   4.623
82931W        W83795  27.778   5.752   7.346
82932W        W83796  27.711   3.786   5.448
82933W        W83797  26.195   4.646   5.607
82934W        W83798  25.952   5.751   6.247
82935W        W83799  27.782   6.864   5.161
82936W        W83800  28.914   4.524   5.926
82937W        W83801  27.605   7.011   6.543
82938W        W83802  28.759   5.737   3.797
82939W        W83803  27.298   5.461   4.924
82940W        W83804   0.046   3.952   6.585
82941W        W83805  27.280   5.900   6.331
82942W        W83806  27.515   4.684   5.936
82943W        W83807  28.274   5.006   4.378
82944W        W83808  28.524   4.814   3.978
82945W        W83809  28.443   6.631   4.501
82946W        W83810  28.445   6.155   5.354
82947W        W83811  28.127   5.485   4.378
82948W        W83812  27.710   5.582   5.472
82949W        W83813  28.627   5.328   5.252
82950W        W83814  26.007   4.327   5.977
82951W        W83815  28.579   5.356   6.397
82952W        W83816  28.994   7.087   5.755
82953W        W83817  26.970   6.659   5.212
82954W        W83818  28.108   7.075   6.481
82955W        W83819  27.881   4.417   6.224
82956W        W83820  27.257   7.236   6.228
82957W        W83821  28.839   4.169   4.596
82958W        W83822  28.583   5.445   5.845
82959W        W83823  25.574   4.593   6.063
82960W        W83824  28.436   4.346   5.102
82961W        W83825  28.706   4.682   6.786
82962W        W83826  27.791   6.326   5.206
82963W        W83827  27.055   6.969   4.797
82964W        W83828  26.080   4.093   4.060
82965W        W83829  27.278   3.847   5.827
82966W        W83830  26.068   7.127   3.835
82967W        W83831  26.920   5.490   4.565
82968W        W83832  27.378   5.998   6.816
82969W        W83833  27.309   4.425   5.023
82970W        W83834  28.531   3.830   5.190
82971W        W83835  28.178   7.136   5.346
82972W        W83836  27.655   6.959   5.661
82973W        W83837  27.077   5.923   5.855
82974W        W83838  28.802   6.671   6.047
82975W        W83839  26.628   4.105   4.776
82976W        W83840  26.985   6.409   5.687
82977W        W83841  26.349   4.344   3.658
82978W        W83842  27.313   5.049   6.218
82979W        W83843  28.014   3.763   5.876
82980W        W83844  25.493   5.682   6.010
82981W        W83845  27.217   5.366   3.949
82982W        W83846  26.434   3.826   3.775
82983W        W83847  27.370   4.952   4.934
82984W        W83848  28.058   3.953   6.360
82985W        W83849  26.880   5.875   6.675
82986W        W83850  27.679   5.569   6.869
82987W        W83851  28.170   5.666   6.805
82988W        W83852  27.528   3.956   7.409
82989W        W83853  26.713   4.610   5.660
82990W        W83854  26.260   4.323   5.157
82991W        W83855  25.870   7.031   4.875
82992W        W83856  27.458   6.552   6.834
82993W        W83857  26.479   5.768   4.693
82994W        W83858  28.262   5.614   5.440
82995W        W83859  28.225   5.105   5.536
82996W        W83860  27.661   5.872   5.990
82997W        W83861  27.957   6.164   3.791
82998W        W83862  27.754   4.246   5.217
82999W        W83863   0.148   4.574   4.424
83000W        W83864  25.716   6.992   6.709
83001W        W83865  26.072   6.211   6.055
83002W        W83866  25.523   7.274   4.571
83003W        W83867  27.381   4.224   6.141
83004W        W83868  26.912   6.605   3.977
83005W        W83869  28.669   6.813   4.059
83006W        W83870  27.699   5.382   4.138
83007W        W83871  26.866   4.582   4.823
83008W        W83872  27.344   4.447   3.662
83009W        W83873  27.867   6.145   6.938
83010W        W83874  28.240   4.420   4.189
83011W        W83875  25.720   3.722   3.925
83012W        W83876  26.972   6.283   6.213
83013W        W83877  26.682   5.909   5.497
83014W        W83878  26.597   6.316   3.650
83015W        W83879  25.585   6.754   4.518
83016W        W83880  26.242   5.345   6.942
83017W        W83881  26.809   4.015   6.912
83018W        W83882  27.623   4.131   6.582
83019W        W83883  26.978   3.810   5.030
83020W        W83884  27.531   3.838   4.024
83021W        W83885  25.861   3.848   5.817
83022W        W83886  25.865   4.712   5.189
83023W        W83887  28.539   3.709   5.685
83024W        W83888  26.197   4.273   4.545
83025W        W83889  28.400   4.105   5.996
83026W        W83890  28.875   5.205   3.724
83027W        W83891  26.407   4.166   5.641
83028W        W83892  27.442   4.622   6.477
83029W        W83893  25.543   4.198   3.907
83030W        W83894  26.358   5.769   6.607
83031W        W83895  27.731   5.128   5.754
83032W        W83896  27.327   7.138   4.009
83033W        W83897  25.582   5.529   3.568
83034W        W83898  26.509   6.236   6.880
83035W        W83899  25.948   5.266   6.430
83036W        W83900  27.026   5.465   6.268
83037W        W83901  28.545   3.875   6.488
83038W        W83902   0.068   5.513   6.558
83039W        W83903  28.993   5.498   4.182
83040W        W83904  27.844   5.915   4.253
83041W        W83905  28.465   7.190   3.749
83042W        W83906  27.582   5.200   7.220
83043W        W83907  26.115   5.957   7.078
83044W        W83908   0.150   4.294   7.114
83045W        W83909  28.709   4.960   5.733
83046W        W83910  27.107   7.145   7.283
83047W        W83911  26.983   3.780   4.037
83048W        W83912  28.621   6.264   3.850
83049W        W83913  26.434   4.434   6.892
83050W        W83914  26.990   6.383   6.720
83051W        W83915  28.774   4.345   6.385
83052W        W83916  28.198   7.044   4.170
83053W        W83917  28.415   5.924   5.832
83054W        W83918  26.559   4.166   6.445
83055W        W83919  27.076   5.125   7.134
83056W        W83920  26.481   6.308   4.564
83057W        W83921  28.253   5.918   4.605
83058W        W83922  26.117   4.469   6.472
83059W        W83923  27.407   6.569   4.941
83060W        W83924   0.054   5.068   5.121
83061W        W83925  27.197   3.797   6.542
83062W        W83926  28.369   6.437   5.797
83063W        W83927  28.584   6.846   5.581
83064W        W83928  27.752   6.850   3.940
83065W        W83929  25.725   6.342   7.019
83066W        W83930  26.465   4.559   6.091
83067W        W83931  26.492   3.860   5.194
83068W        W83932  28.009   4.692   5.804
83069W        W83933  27.084   6.117   3.854
83070W        W83934  28.768   5.768   5.492
83071W        W83935  26.111   6.644   6.828
83072W        W83936  28.585   7.135   4.501
83073W        W83937  26.812   4.282   5.259
83074W        W83938  26.353   5.457   5.507
83075W        W83939  26.818   7.245   5.952
83076W        W83940  28.748   7.309   6.931
83077W        W83941  28.045   5.532   5.906
83078W        W83942  25.767   5.031   3.575
83079W        W83943  28.908   6.774   4.657
83080W        W83944  28.759   4.375   4.109
83081W        W83945  26.672   3.672   6.529
83082W        W83946  28.686   6.562   5.103
83083W        W83947  28.642   5.074   4.798
83084W        W83948  27.046   4.766   5.298
83085W        W83949  27.070   4.958   6.657
83086W        W83950  28.267   6.198   6.620
83087W        W83951  26.707   4.640   6.530
83088W        W83952  26.734   7.134   5.175
83089W        W83953  26.060   7.151   7.049
83090W        W83954  26.317   6.777   3.489
83091W        W83955  28.681   6.200   4.728
83092W        W83956  26.330   4.965   6.531
83093W        W83957   0.051   4.769   3.946
83094W        W83958  27.087   5.934   4.780
83095W        W83959  28.045   5.360   6.419
83096W        W83960  27.829   4.932   6.258
83097W        W83961  26.404   5.400   6.222
83098W        W83962  28.525   7.158   6.074
83099W        W83963  28.191   3.957   6.875
83100W        W83964  25.826   3.802   6.826
83101W        W83965  26.457   5.047   5.809
83102W        W83966  26.850   4.656   3.579
83103W        W83967  25.664   6.529   6.520
83104W        W83968  27.335   5.458   5.853
83105W        W83969  26.834   4.210   3.816
83106W        W83970  26.385   5.301   5.024
83107W        W83971  25.815   7.133   6.208
83108W        W83972  28.517   5.346   4.063
83109W        W83973  28.683   4.179   6.894
83110W        W83974  28.221   6.356   4.901
83111W        W83975  25.747   5.187   6.899
83112W        W83976  28.554   3.921   4.194
83113W        W83977  28.253   6.259   4.213
83114W        W83978  27.328   5.162   4.443
83115W        W83979  28.363   4.209   3.735
83116W        W83980  28.398   4.597   6.121
83117W        W83981  25.902   5.255   5.344
83118W        W83982  26.649   6.142   5.012
83119W        W83983  28.198   4.846   4.856
83120W        W83984  27.180   4.416   5.676
83121W        W83985   0.123   6.225   6.190
83122W        W83986  28.824   4.132   5.618
83123W        W83987  25.662   6.972   5.318
83124W        W83988  26.035   6.047   4.741
83125W        W83989  25.981   3.748   7.315
83126W        W83990  27.272   6.657   7.288
83127W        W83991   0.043   5.611   5.081
83128W        W83992  28.279   5.795   3.987
83129W        W83993  27.765   7.220   6.079
83130W        W83994  28.340   5.996   7.136
83131W        W83995  26.985   3.653   4.534
83132W        W83996  28.066   4.643   5.306
83133W        W83997  25.542   6.158   5.667
83134W        W83998  27.130   4.138   4.646
83135W        W83999  26.595   5.717   7.076
83136W        W84000  27.747   4.632   4.885
83137W        W84001  28.035   6.218   6.132
83138W        W84002  26.153   6.651   6.311
83139W        W84003  26.779   6.580   7.182
83140W        W84004  26.775   4.362   4.332
83141W        W84005  27.852   4.695   4.389
83142W        W84006  27.947   6.613   6.668
83143W        W84007  26.799   5.214   5.400
83144W        W84008  26.340   7.072   6.060
83145W        W84009  28.978   7.030   3.707
83146W        W84010  25.855   5.666   6.746
83147W        W84011  27.985   6.016   5.592
83148W        W84012  26.275   5.831   5.169
83149W        W84013  26.711   6.706   6.101
83150W        W84014  27.284   4.054   5.361
83151W        W84015  25.415   5.533   4.377
83152W        W84016  27.262   4.955   3.610
83153W        W84017  25.508   5.623   5.235
83154W        W84018  27.063   4.281   6.538
83155W        W84019  28.841   3.981   3.728
83156W        W84020  28.968   5.667   7.032
83157W        W84021  27.554   7.021   7.044
83158W        W84022   0.089   6.032   6.665
83159W        W84023  28.679   6.762   7.210
83160W        W84024  26.407   7.269   5.580
83161W        W84025   0.059   5.855   4.614
83162W        W84026  27.829   5.106   5.181
83163W        W84027  27.499   3.876   4.936
83164W        W84028  26.558   6.687   4.928
83165W        W84029  27.029   4.609   6.132
83166W        W84030  26.841   3.836   5.556
83167W        W84031  25.642   6.823   3.996
83168W        W84032  27.517   5.900   5.083
83169W        W84033  26.598   6.706   6.604
83170W        W84034  25.918   5.559   4.923
83171W        W84035  25.818   4.294   5.492
83172W        W84036  27.480   6.067   5.561
83173W        W84037  25.748   4.005   4.455
83174W        W84038  28.284   5.085   6.047
83175W        W84039  28.078   4.655   3.756
83176W        W84040  28.843   6.197   5.762
83177W        W84041  27.410   6.566   5.458
83178W        W84042  26.692   6.807   4.433
83179W        W84043  27.879   3.722   3.626
83180W        W84044  25.954   7.015   5.718
83181W        W84045  27.914   4.797   7.215
83182W        W84046  26.037   4.256   7.166
83183W        W84047  25.594   4.863   4.663
83184W        W84048  26.792   5.143   3.716
83185W        W84049  28.045   5.174   6.899
83186W        W84050  26.773   5.486   5.826
83187W        W84051  28.045   3.874   5.018
83188W        W84052  27.308   7.035   5.253
83189W        W84053  28.319   6.655   6.277
83190W        W84054  28.200   6.619   5.342
83191W        W84055  28.040   5.889   5.078
83192W        W84056  27.244   4.244   4.148
83193W        W84057   0.124   3.785   4.845
83194W        W84058  26.484   5.388   3.375
83195W        W84059  28.920   4.628   4.896
83196W        W84060  27.530   5.799   3.860
83197W        W84061  28.630   5.829   6.690
83198W        W84062  28.218   6.630   3.829
83199W        W84063  26.946   4.534   6.976
83200W        W84064  26.764   5.036   6.218
83201W        W84065  28.812   6.486   6.576
83202W        W84066  27.786   4.284   7.045
83203W        W84067  25.669   4.814   6.528
83204W        W84068  27.559   5.470   6.333
83205W        W84069  25.796   6.056   5.208
83206W        W84070  25.999   5.326   5.888
83207W        W84071  28.298   5.784   6.298
83208W        W84072  28.112   6.986   7.007
83209W        W84073  27.894   4.664   6.713
83210W        W84074  28.246   6.907   4.889
83211W        W84075  27.232   6.702   6.363
83212W        W84076  26.719   6.868   5.616
83213W        W84077  28.582   6.219   6.215
83214W        W84078  27.484   6.187   7.279
83215W        W84079  26.172   6.142   5.557
83216W        W84080  28.556   5.783   5.010
83217W        W84081  28.138   6.918   5.833
83218W        W84082  26.273   6.628   5.796
83219W        W84083  27.434   4.694   7.034
83220W        W84084  27.644   6.941   4.656
83221W        W84085  26.981   6.090   7.150
83222W        W84086  26.968   6.444   4.717
83223W        W84087  26.262   4.846   3.395
83224W        W84088  25.642   7.224  10.740
83225W        W84089  25.924   6.148  10.115
83226W        W84090  28.632   5.928   7.922
83227W        W84091  28.829   6.995   9.830
83228W        W84092  26.646   6.993   7.511
83229W        W84093  26.871   5.114   8.354
83230W        W84094  26.229   4.825   8.494
83231W        W84095  27.207   5.591   8.047
83232W        W84096  27.027   6.930  10.339
83233W        W84097  25.670   4.421  10.272
83234W        W84098  26.290   3.642  10.120
83235W        W84099  28.099   4.244   8.995
83236W        W84100  27.837   4.943   7.692
83237W        W84101  28.267   4.433  10.690
83238W        W84102  25.787   4.070   9.840
83239W        W84103  25.835   6.758  10.804
83240W        W84104  27.066   6.308   7.620
83241W        W84105  25.826   4.809   9.273
83242W        W84106  26.816   4.948  10.441
83243W        W84107  28.909   4.766   9.028
83244W        W84108  28.829   5.743   9.812
83245W        W84109  27.346   4.986   8.842
83246W        W84110  27.732   6.510   9.189
83247W        W84111  26.294   5.732   9.372
83248W        W84112  25.589   5.280   9.125
83249W        W84113  26.774   5.351  10.113
83250W        W84114  28.705   5.225  10.533
83251W        W84115  26.391   6.584   8.918
83252W        W84116  27.653   6.327   9.970
83253W        W84117  26.968   4.944   9.192
83254W        W84118  27.053   5.812   8.901
83255W        W84119  27.930   6.571  10.702
83256W        W84120  27.355   5.662  10.849
83257W        W84121  27.285   5.524  10.259
83258W        W84122  25.444   4.762  10.624
83259W        W84123  28.375   6.447  10.446
83260W        W84124  26.023   3.889   8.325
83261W        W84125  26.523   6.204   9.486
83262W        W84126  28.953   6.106   8.820
83263W        W84127  28.577   4.385   9.183
83264W        W84128  28.716   4.522   7.299
83265W        W84129  28.981   5.252   9.776
83266W        W84130  27.062   6.957   9.524
83267W        W84131  28.787   6.401   7.988
83268W        W84132  25.935   7.207   8.012
83269W        W84133  26.344   7.158   8.355
83270W        W84134  26.423   4.005   9.564
83271W        W84135  28.696   4.887   9.989
83272W        W84136  28.253   5.419   8.549
83273W        W84137  28.060   5.309   7.395
83274W        W84138  27.388   6.379   9.535
83275W        W84139  27.114   4.533   8.862
83276W        W84140  27.757   6.759   9.723
83277W        W84141  28.621   5.493   8.194
83278W        W84142  27.512   4.247   8.345
83279W        W84143  26.254   6.790   7.998
83280W        W84144  25.703   4.257   8.479
83281W        W84145  28.411   4.830   8.968
83282W        W84146  25.874   6.546   8.976
83283W        W84147  27.103   6.837   7.732
83284W        W84148  28.434   4.964   7.197
83285W        W84149  25.699   6.551   9.524
83286W        W84150  26.430   6.202   9.996
83287W        W84151  26.895   5.630   8.445
83288W        W84152  26.904   4.140   9.674
83289W        W84153  28.898   3.629   9.107
83290W        W84154  26.233   5.603   7.453
83291W        W84155  25.829   4.516   7.579
83292W        W84156  26.051   6.558   8.465
83293W        W84157  26.814   6.136   8.512
83294W        W84158  28.408   6.939  10.235
83295W        W84159  27.536   4.626   7.989
83296W        W84160  28.746   7.076   8.828
83297W        W84161  28.299   4.976  10.327
83298W        W84162   0.103   6.387   8.414
83299W        W84163  27.795   5.804  10.017
83300W        W84164  25.636   5.311   8.249
83301W        W84165  26.635   5.772   9.752
83302W        W84166  27.783   5.089   8.176
83303W        W84167  27.694   5.593   8.226
83304W        W84168  26.108   4.866   9.709
83305W        W84169  26.062   4.813  10.337
83306W        W84170  25.946   3.802   8.834
83307W        W84171  27.723   4.199   9.362
83308W        W84172  27.411   4.207  10.584
83309W        W84173  27.834   4.182   7.889
83310W        W84174  28.889   7.030  10.337
83311W        W84175  27.788   3.853  10.584
83312W        W84176  28.724   6.146  10.796
83313W        W84177  28.309   4.487  10.162
83314W        W84178  28.004   4.351   8.493
83315W        W84179  28.425   5.654  10.863
83316W        W84180  26.104   6.988   8.790
83317W        W84181  27.028   4.583   7.884
83318W        W84182  26.428   3.986  10.541
83319W        W84183  28.551   4.626   8.188
83320W        W84184  28.858   5.025   8.041
83321W        W84185  26.615   7.117  10.660
83322W        W84186  26.531   3.690   7.831
83323W        W84187  28.808   4.037   8.796
83324W        W84188   0.042   6.504   7.480
83325W        W84189  25.905   5.691   9.023
83326W        W84190  28.056   4.021   7.388
83327W        W84191  28.927   6.634   9.066
83328W        W84192  28.924   3.741   9.894
83329W        W84193  27.620   5.150  10.400
83330W        W84194  27.365   6.186   8.053
83331W        W84195  27.901   5.730  10.974
83332W        W84196  27.477   3.841   9.058
83333W        W84197  26.249   4.638   9.003
83334W        W84198  26.087   5.716   9.847
83335W        W84199  27.840   6.756   8.454
83336W        W84200  28.980   4.536   9.521
83337W        W84201  27.613   7.075  10.158
83338W        W84202  28.759   5.871   7.436
83339W        W84203  27.327   5.339   8.481
83340W        W84204   0.087   4.011  10.312
83341W        W84205  27.342   5.935   9.800
83342W        W84206  27.475   4.670   9.252
83343W        W84207  28.329   5.083   8.105
83344W        W84208  28.530   4.829   7.693
83345W        W84209  28.389   6.693   8.171
83346W        W84210  28.161   6.479   8.890
83347W        W84211  28.041   5.436   7.889
83348W        W84212  27.544   5.608   8.879
83349W        W84213  28.531   5.342   9.011
83350W        W84214  26.079   4.395   9.469
83351W        W84215  28.537   5.379  10.067
83352W        W84216  28.896   7.079   9.324
83353W        W84217  26.903   6.636   8.868
83354W        W84218  28.085   7.203   9.929
83355W        W84219  27.908   4.340   9.852
83356W        W84220  27.184   7.274   9.923
83357W        W84221  28.764   4.146   8.292
83358W        W84222  28.519   5.422   9.542
83359W        W84223  25.679   4.583   9.755
83360W        W84224  28.487   4.431   8.663
83361W        W84225  28.683   4.682  10.474
83362W        W84226  27.695   6.307   8.697
83363W        W84227  27.066   6.896   8.473
83364W        W84228  26.223   4.096   7.663
83365W        W84229  27.270   3.790   9.530
83366W        W84230  26.086   7.072   7.546
83367W        W84231  26.694   5.503   7.965
83368W        W84232  27.418   6.027  10.307
83369W        W84233  26.997   4.194   8.276
83370W        W84234  28.322   3.950   8.618
83371W        W84235  28.270   7.285   9.039
83372W        W84236  27.517   6.962   9.303
83373W        W84237  26.971   5.930   9.397
83374W        W84238  28.718   6.605   9.520
83375W        W84239  26.476   4.110   8.187
83376W        W84240  26.928   6.489   9.352
83377W        W84241  26.637   4.289   7.336
83378W        W84242  27.306   5.061   9.557
83379W        W84243  28.220   4.101   9.508
83380W        W84244  25.713   5.651   9.506
83381W        W84245  27.072   5.328   7.612
83382W        W84246  26.495   3.801   7.319
83383W        W84247  27.165   4.689   8.375
83384W        W84248  28.108   3.960  10.185
83385W        W84249  26.941   5.886  10.138
83386W        W84250  27.733   5.659  10.498
83387W        W84251  28.239   5.756  10.387
83388W        W84252  27.433   3.891  10.978
83389W        W84253  26.717   4.462   9.203
83390W        W84254  26.189   4.313   8.597
83391W        W84255  25.685   6.879   8.301
83392W        W84256  27.502   6.548  10.412
83393W        W84257  26.388   5.930   7.820
83394W        W84258  28.036   5.523   9.028
83395W        W84259  28.159   5.102   9.301
83396W        W84260  27.470   5.912   9.290
83397W        W84261  28.001   6.226   7.452
83398W        W84262  27.593   4.332   8.865
83399W        W84263   0.065   4.520   8.063
83400W        W84264  25.776   6.936  10.310
83401W        W84265  26.033   6.158   9.605
83402W        W84266  25.267   6.921   7.941
83403W        W84267  27.395   4.269   9.755
83404W        W84268  26.615   6.533   7.715
83405W        W84269  28.699   6.854   7.740
83406W        W84270  27.571   5.401   7.708
83407W        W84271  26.661   4.609   8.280
83408W        W84272  27.647   4.463   7.506
83409W        W84273  27.919   6.169  10.374
83410W        W84274  28.303   4.169   8.095
83411W        W84275  25.555   3.737   7.585
83412W        W84276  26.934   6.261   9.798
83413W        W84277  26.700   6.177   9.009
83414W        W84278  26.511   6.156   7.379
83415W        W84279  25.628   6.378   8.142
83416W        W84280  26.359   5.247  10.441
83417W        W84281  26.916   3.964  10.727
83418W        W84282  27.586   3.982  10.133
83419W        W84283  26.804   3.712   8.315
83420W        W84284  27.601   3.705   7.863
83421W        W84285  25.961   3.896   9.383
83422W        W84286  25.802   4.699   8.764
83423W        W84287  28.453   3.867   9.118
83424W        W84288  26.026   4.373   8.080
83425W        W84289  28.531   4.069   9.918
83426W        W84290  28.905   5.229   7.383
83427W        W84291  26.334   4.140   9.070
83428W        W84292  27.404   4.558  10.204
83429W        W84293  25.390   4.225   7.613
83430W        W84294  26.432   5.713  10.219
83431W        W84295  27.664   5.178   9.193
83432W        W84296  27.571   7.015   7.562
83433W        W84297  25.756   5.582   7.255
83434W        W84298  26.614   6.108  10.475
83435W        W84299  26.010   5.243  10.050
83436W        W84300  27.083   5.499   9.737
83437W        W84301  28.551   3.686  10.253
83438W        W84302   0.010   5.527  10.236
83439W        W84303  28.949   5.552   7.816
83440W        W84304  27.808   5.932   7.846
83441W        W84305  28.482   7.224   7.370
83442W        W84306  27.670   5.215  10.920
83443W        W84307  26.099   6.090  10.605
83444W        W84308   0.048   4.385  10.679
83445W        W84309  28.645   4.938   9.440
83446W        W84310  27.097   7.094  10.848
83447W        W84311  27.008   3.869   7.376
83448W        W84312  28.538   6.339   7.505
83449W        W84313  26.510   4.495  10.363
83450W        W84314  27.029   6.390  10.276
83451W        W84315  28.883   4.421  10.043
83452W        W84316  28.198   7.351   7.831
83453W        W84317  28.282   5.843   9.358
83454W        W84318  26.562   4.095  10.050
83455W        W84319  27.191   5.195  10.696
83456W        W84320  26.467   6.311   8.157
83457W        W84321  28.206   5.813   8.188
83458W        W84322  26.134   4.416  10.008
83459W        W84323  27.236   6.408   8.509
83460W        W84324   0.166   5.145   8.759
83461W        W84325  27.287   3.716  10.495
83462W        W84326  28.185   6.420   9.420
83463W        W84327  28.432   6.818   9.163
83464W        W84328  27.578   6.491   7.685
83465W        W84329  25.645   6.361  10.517
83466W        W84330  26.537   4.533   9.688
83467W        W84331  26.429   3.844   8.650
83468W        W84332  28.099   4.590   9.384
83469W        W84333  26.827   5.776   7.540
83470W        W84334  28.766   5.772   9.212
83471W        W84335  26.134   6.565  10.411
83472W        W84336  28.507   7.219   8.256
83473W        W84337  26.692   4.288   8.699
83474W        W84338  26.512   5.719   8.868
83475W        W84339  26.683   7.176   9.785
83476W        W84340  28.551   7.332  10.564
83477W        W84341  27.987   5.470   9.604
83478W        W84342  25.982   5.110   7.360
83479W        W84343  28.883   6.840   8.256
83480W        W84344  28.690   4.332   7.773
83481W        W84345  26.799   3.686  10.284
83482W        W84346  28.651   6.532   8.645
83483W        W84347  28.662   5.088   8.544
83484W        W84348  26.686   4.825   8.767
83485W        W84349  27.197   5.034  10.083
83486W        W84350  28.192   6.297   9.947
83487W        W84351  26.905   4.590  10.045
83488W        W84352  26.625   7.087   8.811
83489W        W84353  26.128   7.209  10.561
83490W        W84354  26.279   6.652   7.313
83491W        W84355  28.613   6.071   8.414
83492W        W84356  26.476   4.911  10.056
83493W        W84357   0.047   4.776   7.615
83494W        W84358  26.875   5.995   8.016
83495W        W84359  28.021   5.356  10.125
83496W        W84360  27.781   4.911   9.623
83497W        W84361  26.400   5.317   9.731
83498W        W84362  28.468   7.262   9.551
83499W        W84363  28.283   3.903  10.699
83500W        W84364  25.943   3.973  10.341
83501W        W84365  26.472   4.942   9.344
83502W        W84366  26.821   4.771   7.422
83503W        W84367  25.594   6.534  10.039
83504W        W84368  27.220   5.449   9.237
83505W        W84369  27.152   4.368   7.421
83506W        W84370  26.437   5.317   8.548
83507W        W84371  25.705   7.000   9.795
83508W        W84372  28.504   5.347   7.687
83509W        W84373  28.622   4.170  10.430
83510W        W84374  28.143   6.288   8.422
83511W        W84375  25.768   5.229  10.516
83512W        W84376  28.686   3.824   7.831
83513W        W84377  28.236   6.258   7.913
83514W        W84378  27.273   5.071   8.021
83515W        W84379  28.494   4.517   9.688
83516W        W84380  25.983   5.190   8.805
83517W        W84381  26.314   6.155   8.633
83518W        W84382  28.166   4.854   8.522
83519W        W84383  27.196   4.219   9.249
83520W        W84384   0.043   6.220   9.880
83521W        W84385  28.821   4.038   9.474
83522W        W84386  25.589   6.972   8.835
83523W        W84387  26.027   6.067   8.202
83524W        W84388  26.005   3.970  10.893
83525W        W84389  27.108   6.598  10.750
83526W        W84390  28.806   5.608   8.653
83527W        W84391  28.255   5.797   7.598
83528W        W84392  27.660   7.311   9.680
83529W        W84393  28.202   6.110  10.798
83530W        W84394  27.064   3.689   7.867
83531W        W84395  27.890   4.762   8.955
83532W        W84396  25.660   6.121   9.219
83533W        W84397  26.806   4.124   7.786
83534W        W84398  26.875   5.608  10.549
83535W        W84399  27.653   4.724   8.503
83536W        W84400  27.863   6.060   9.587
83537W        W84401  26.083   6.606   9.899
83538W        W84402  26.642   6.622  10.520
83539W        W84403  26.491   4.529   7.798
83540W        W84404  28.046   4.639   8.063
83541W        W84405  27.964   6.693  10.198
83542W        W84406  26.900   5.311   8.841
83543W        W84407  26.205   7.055   9.673
83544W        W84408   0.011   7.112   7.400
83545W        W84409  25.930   5.680  10.336
83546W        W84410  27.929   6.051   9.070
83547W        W84411  26.444   5.791   8.310
83548W        W84412  26.593   6.658   9.757
83549W        W84413  27.043   3.892   8.758
83550W        W84414  25.843   5.930   7.692
83551W        W84415  27.327   4.870   7.540
83552W        W84416  25.990   5.639   8.514
83553W        W84417  27.083   4.107  10.176
83554W        W84418  28.818   3.992   7.372
83555W        W84419  28.918   5.674  10.715
83556W        W84420  27.571   6.997  10.677
83557W        W84421   0.097   6.044  10.395
83558W        W84422  28.588   6.844  10.720
83559W        W84423  26.276   7.251   9.204
83560W        W84424   0.059   5.884   8.256
83561W        W84425  27.800   5.205   8.680
83562W        W84426  27.329   3.757   8.323
83563W        W84427  26.577   6.700   8.457
83564W        W84428  27.063   4.608   9.561
83565W        W84429  26.807   3.856   9.232
83566W        W84430  25.740   6.753   7.783
83567W        W84431  27.352   5.896   8.485
83568W        W84432  26.419   6.945  10.178
83569W        W84433  26.058   5.566   8.002
83570W        W84434  25.832   4.267   9.023
83571W        W84435  27.261   6.282   9.012
83572W        W84436  25.624   4.008   8.024
83573W        W84437  28.249   5.013   9.798
83574W        W84438  28.166   4.489   7.578
83575W        W84439  28.570   6.262   9.127
83576W        W84440  27.432   6.752   8.827
83577W        W84441  26.750   7.000   8.064
83578W        W84442  27.851   3.542   7.417
83579W        W84443  25.849   6.974   9.281
83580W        W84444  27.919   4.812  10.671
83581W        W84445  26.086   4.393  10.623
83582W        W84446  25.734   4.786   8.273
83583W        W84447  26.739   5.002   7.868
83584W        W84448  28.094   5.321  10.645
83585W        W84449  26.719   5.428   9.334
83586W        W84450  27.793   3.896   8.656
83587W        W84451  27.110   7.114   9.007
83588W        W84452  28.303   6.782   9.756
83589W        W84453  27.900   6.933   8.930
83590W        W84454  27.918   5.836   8.611
83591W        W84455  27.321   4.149   7.860
83592W        W84456  28.999   3.689   8.456
83593W        W84457  26.616   5.265   7.369
83594W        W84458  28.933   4.650   8.533
83595W        W84459  27.333   5.868   7.648
83596W        W84460  28.622   6.051  10.189
83597W        W84461  28.219   6.774   7.495
83598W        W84462  26.985   4.470  10.544
83599W        W84463  26.824   5.033   9.706
83600W        W84464  28.669   6.541  10.029
83601W        W84465  27.855   4.360  10.391
83602W        W84466  25.607   4.922  10.136
83603W        W84467  27.574   5.343   9.881
83604W        W84468  25.788   6.093   8.690
83605W        W84469  26.061   5.273   9.340
83606W        W84470  28.291   5.787   9.872
83607W        W84471  28.091   7.082  10.624
83608W        W84472  27.869   4.802  10.116
83609W        W84473  28.312   6.909   8.637
83610W        W84474  27.277   6.708   9.935
83611W        W84475  26.612   6.879   9.285
83612W        W84476  28.583   6.144   9.640
83613W        W84477  27.603   6.139  10.787
83614W        W84478  26.167   6.147   9.109
83615W        W84479  28.389   5.866   8.838
83616W        W84480  28.023   7.049   9.413
83617W        W84481  26.197   6.602   9.393
83618W        W84482  27.417   4.716  10.750
83619W        W84483  27.421   6.726   8.132
83620W        W84484  27.087   6.079  10.682
83621W        W84485  26.942   6.511   8.111
83622W        W84486  26.304   4.692   7.340
83623W        W84487  25.505   7.440  14.348
83624W        W84488  25.986   6.322  13.928
83625W        W84489  28.679   5.894  11.683
83626W        W84490  28.872   7.124  13.701
83627W        W84491  26.660   6.988  11.158
83628W        W84492  26.786   5.150  12.131
83629W        W84493  26.405   4.730  12.345
83630W        W84494  27.378   5.778  11.746
83631W        W84495  27.034   6.966  13.961
83632W        W84496  25.551   4.314  13.946
83633W        W84497  26.220   3.608  13.783
83634W        W84498  28.095   4.149  12.647
83635W        W84499  27.828   4.995  11.405
83636W        W84500  28.256   4.494  14.344
83637W        W84501  25.742   4.020  13.515
83638W        W84502  25.804   7.032  14.476
83639W        W84503  27.143   6.290  11.155
83640W        W84504  25.774   4.759  12.996
83641W        W84505  26.727   4.942  14.169
83642W        W84506  28.859   4.737  12.675
83643W        W84507  28.821   5.802  13.564
83644W        W84508  27.208   5.202  12.584
83645W        W84509  27.892   6.592  12.946
83646W        W84510  26.092   5.744  13.265
83647W        W84511  25.441   5.210  12.967
83648W        W84512  26.673   5.391  13.847
83649W        W84513  28.737   5.204  14.224
83650W        W84514  26.519   6.404  12.695
83651W        W84515  27.620   6.319  13.770
83652W        W84516  27.038   4.949  12.970
83653W        W84517  27.085   5.680  12.692
83654W        W84518  27.806   6.608  14.481
83655W        W84519  27.354   5.728  14.509
83656W        W84520  27.150   5.581  14.028
83657W        W84521  25.533   4.702  14.391
83658W        W84522  28.270   6.450  14.287
83659W        W84523  26.072   3.919  12.044
83660W        W84524  26.509   6.360  13.211
83661W        W84525   0.065   6.207  12.526
83662W        W84526  28.509   4.332  12.910
83663W        W84527  28.657   4.533  10.991
83664W        W84528   0.029   5.341  13.399
83665W        W84529  27.115   6.823  13.153
83666W        W84530  28.800   6.381  11.791
83667W        W84531  26.008   7.240  11.555
83668W        W84532  26.347   7.082  11.918
83669W        W84533  26.365   3.923  13.370
83670W        W84534  28.730   4.992  13.634
83671W        W84535  28.182   5.363  12.258
83672W        W84536  28.172   5.306  11.163
83673W        W84537  27.436   6.324  13.256
83674W        W84538  27.373   4.688  12.630
83675W        W84539  27.737   6.717  13.459
83676W        W84540  28.689   5.500  12.049
83677W        W84541  27.601   4.243  11.908
83678W        W84542  26.294   6.819  11.471
83679W        W84543  25.666   4.211  12.242
83680W        W84544  28.368   4.831  12.772
83681W        W84545  25.729   6.410  12.792
83682W        W84546  27.114   6.791  11.274
83683W        W84547  28.394   4.942  10.845
83684W        W84548  25.629   6.673  13.220
83685W        W84549  26.464   6.302  13.716
83686W        W84550  26.759   5.661  12.302
83687W        W84551  26.841   4.115  13.235
83688W        W84552  28.977   3.650  12.745
83689W        W84553  26.398   5.686  10.734
83690W        W84554  25.941   4.428  11.132
83691W        W84555  26.093   6.447  12.429
83692W        W84556  26.957   6.147  12.504
83693W        W84557  28.488   6.887  13.978
83694W        W84558  27.478   4.735  11.722
83695W        W84559  28.629   7.054  12.327
83696W        W84560  28.301   4.970  13.924
83697W        W84561   0.232   6.470  12.075
83698W        W84562  27.810   5.856  13.682
83699W        W84563  25.257   5.269  12.114
83700W        W84564  26.593   5.852  13.385
83701W        W84565  27.855   5.059  11.919
83702W        W84566  27.744   5.557  12.036
83703W        W84567  26.100   4.821  13.383
83704W        W84568  26.002   4.763  13.885
83705W        W84569  25.925   3.811  12.540
83706W        W84570  27.682   4.082  12.955
83707W        W84571  27.471   4.250  14.184
83708W        W84572  27.886   4.157  11.434
83709W        W84573  28.974   6.896  14.156
83710W        W84574  27.734   3.759  14.219
83711W        W84575  28.791   6.267  14.376
83712W        W84576  28.280   4.481  13.761
83713W        W84577  28.051   4.346  12.174
83714W        W84578  28.422   5.491  14.514
83715W        W84579  26.227   6.978  12.622
83716W        W84580  27.069   4.524  11.488
83717W        W84581  26.339   3.991  14.131
83718W        W84582  28.465   4.614  11.943
83719W        W84583  28.880   5.065  11.813
83720W        W84584  26.662   7.302  14.516
83721W        W84585  26.489   3.743  11.633
83722W        W84586  28.827   4.053  12.451
83723W        W84587   0.020   6.531  11.042
83724W        W84588  25.740   5.612  12.861
83725W        W84589  27.835   4.250  10.911
83726W        W84590  28.927   6.687  12.776
83727W        W84591  28.981   3.731  13.509
83728W        W84592  27.589   5.121  14.036
83729W        W84593  27.302   6.302  11.662
83730W        W84594  27.930   5.702  14.529
83731W        W84595  27.519   3.751  12.600
83732W        W84596  26.227   4.600  12.811
83733W        W84597  25.797   5.922  13.646
83734W        W84598  27.628   6.903  12.440
83735W        W84599  28.920   4.536  13.156
83736W        W84600  27.551   7.021  13.846
83737W        W84601  28.807   5.789  11.200
83738W        W84602  27.251   5.499  12.184
83739W        W84603   0.037   4.041  13.923
83740W        W84604  27.304   5.931  13.636
83741W        W84605  27.566   4.573  13.117
83742W        W84606  28.362   5.094  11.850
83743W        W84607  28.523   4.928  11.368
83744W        W84608  28.406   6.716  11.967
83745W        W84609  28.549   6.260  12.656
83746W        W84610  28.067   5.449  11.653
83747W        W84611  27.602   5.579  12.707
83748W        W84612  28.573   5.334  12.688
83749W        W84613  26.057   4.331  13.210
83750W        W84614  28.522   5.446  13.832
83751W        W84615  28.934   7.115  13.177
83752W        W84616  26.936   6.665  12.580
83753W        W84617  28.079   7.137  13.759
83754W        W84618  27.756   4.407  13.598
83755W        W84619  27.174   7.180  13.526
83756W        W84620  28.772   4.196  11.946
83757W        W84621  28.621   5.543  13.165
83758W        W84622  25.683   4.528  13.495
83759W        W84623  28.499   4.454  12.417
83760W        W84624  28.695   4.690  14.146
83761W        W84625  27.771   6.374  12.474
83762W        W84626  27.039   6.956  12.173
83763W        W84627  26.120   4.024  11.407
83764W        W84628  27.259   3.750  13.042
83765W        W84629  26.133   7.124  11.070
83766W        W84630  26.931   5.520  11.790
83767W        W84631  27.306   6.091  14.128
83768W        W84632  27.210   4.463  12.190
83769W        W84633  28.369   3.943  12.251
83770W        W84634  28.012   7.082  12.736
83771W        W84635  27.591   7.002  13.037
83772W        W84636  27.087   5.890  13.163
83773W        W84637  28.757   6.690  13.418
83774W        W84638  26.519   4.157  11.984
83775W        W84639  26.972   6.354  12.980
83776W        W84640  26.606   4.356  10.888
83777W        W84641  27.372   4.987  13.394
83778W        W84642  28.133   3.878  13.094
83779W        W84643  25.627   5.537  13.364
83780W        W84644  27.165   5.498  11.321
83781W        W84645  26.488   3.878  11.051
83782W        W84646  27.266   4.973  12.132
83783W        W84647  28.073   3.997  13.577
83784W        W84648  26.815   5.918  13.842
83785W        W84649  27.653   5.625  14.106
83786W        W84650  28.154   5.738  14.073
83787W        W84651  27.397   3.907  14.576
83788W        W84652  26.738   4.529  12.908
83789W        W84653  26.178   4.266  12.413
83790W        W84654  25.838   6.980  11.970
83791W        W84655  27.389   6.614  14.155
83792W        W84656  26.954   5.960  11.496
83793W        W84657  28.053   5.260  12.764
83794W        W84658  28.006   4.878  13.132
83795W        W84659  27.603   5.822  13.210
83796W        W84660  27.922   6.227  11.209
83797W        W84661  27.599   4.239  12.462
83798W        W84662   0.061   4.576  11.664
83799W        W84663  25.754   7.256  13.930
83800W        W84664  26.012   6.332  13.404
83801W        W84665  25.434   7.046  11.633
83802W        W84666  27.370   4.139  13.353
83803W        W84667  26.724   6.500  11.429
83804W        W84668  28.740   6.770  11.428
83805W        W84669  27.672   5.486  11.353
83806W        W84670  26.779   4.618  11.975
83807W        W84671  27.581   4.547  11.247
83808W        W84672  27.826   6.129  14.229
83809W        W84673  28.287   4.135  11.767
83810W        W84674  25.646   3.802  11.253
83811W        W84675  26.941   6.263  13.485
83812W        W84676  26.652   5.933  12.879
83813W        W84677  26.684   6.299  10.941
83814W        W84678  25.720   6.536  11.754
83815W        W84679  26.250   5.258  14.096
83816W        W84680  26.824   4.009  14.218
83817W        W84681  27.594   3.934  13.770
83818W        W84682  26.809   3.712  12.074
83819W        W84683  27.660   3.760  11.711
83820W        W84684  25.956   3.849  13.069
83821W        W84685  25.851   4.669  12.430
83822W        W84686  28.492   3.816  12.748
83823W        W84687  26.018   4.460  11.958
83824W        W84688  28.524   4.160  13.407
83825W        W84689  28.727   5.284  11.049
83826W        W84690  26.397   4.124  12.874
83827W        W84691  27.382   4.660  13.841
83828W        W84692  25.467   4.287  11.281
83829W        W84693  26.249   5.686  13.760
83830W        W84694  27.589   5.054  12.900
83831W        W84695  27.495   7.116  11.193
83832W        W84696  25.704   5.688  10.799
83833W        W84697  26.432   6.499  14.204
83834W        W84698  25.950   5.251  13.674
83835W        W84699  27.006   5.531  13.514
83836W        W84700  28.505   3.750  13.747
83837W        W84701   0.039   5.487  13.902
83838W        W84702   0.032   5.522  11.599
83839W        W84703  27.862   5.920  11.639
83840W        W84704  28.374   7.299  11.038
83841W        W84705  27.624   5.279  14.549
83842W        W84706  26.014   6.534  14.545
83843W        W84707   0.088   4.349  14.364
83844W        W84708  28.737   5.037  13.094
83845W        W84709  27.147   7.190  14.419
83846W        W84710  26.959   3.884  11.243
83847W        W84711  28.619   6.257  11.301
83848W        W84712  26.459   4.514  14.053
83849W        W84713  26.910   6.443  13.982
83850W        W84714  28.819   4.483  13.691
83851W        W84715  28.181   7.403  11.511
83852W        W84716  28.389   5.991  13.064
83853W        W84717  26.636   4.161  13.731
83854W        W84718  27.158   5.180  14.364
83855W        W84719  26.204   6.576  11.932
83856W        W84720  28.259   5.797  11.979
83857W        W84721  26.132   4.287  13.717
83858W        W84722  27.296   6.481  12.254
83859W        W84723   0.111   5.152  12.379
83860W        W84724  27.234   3.755  14.097
83861W        W84725  28.377   6.515  13.087
83862W        W84726  28.511   6.979  12.908
83863W        W84727  27.544   6.600  11.041
83864W        W84728  25.618   6.540  14.217
83865W        W84729  26.524   4.530  13.378
83866W        W84730  26.435   3.830  12.407
83867W        W84731  28.058   4.372  13.173
83868W        W84732  26.847   5.787  11.024
83869W        W84733  28.816   5.839  12.781
83870W        W84734  26.329   6.917  14.486
83871W        W84735  28.570   7.239  11.834
83872W        W84736  26.702   4.293  12.452
83873W        W84737  26.299   5.524  12.852
83874W        W84738  26.661   7.248  13.501
83875W        W84739  28.704   7.307  14.245
83876W        W84740  27.826   5.351  13.255
83877W        W84741  25.903   4.844  10.829
83878W        W84742  28.906   6.861  11.926
83879W        W84743  28.590   4.434  11.487
83880W        W84744  26.754   3.663  13.775
83881W        W84745  28.759   6.550  12.299
83882W        W84746  28.612   5.023  12.292
83883W        W84747  26.900   4.779  12.477
83884W        W84748  27.111   5.104  13.842
83885W        W84749  28.144   6.219  13.839
83886W        W84750  26.867   4.642  13.758
83887W        W84751  26.730   7.150  12.547
83888W        W84752  26.200   7.308  14.198
83889W        W84753  26.326   6.673  10.923
83890W        W84754  28.727   6.034  12.177
83891W        W84755  26.448   4.940  13.732
83892W        W84756   0.077   4.988  11.329
83893W        W84757  27.000   6.019  12.008
83894W        W84758  27.990   5.376  13.764
83895W        W84759  27.840   4.918  13.611
83896W        W84760  26.398   5.345  13.403
83897W        W84761  28.470   7.332  13.309
83898W        W84762  28.241   3.807  14.223
83899W        W84763  25.867   3.912  14.002
83900W        W84764  26.476   4.987  13.042
83901W        W84765  26.929   4.794  10.949
83902W        W84766  25.656   6.746  13.731
83903W        W84767  27.294   5.413  13.103
83904W        W84768  27.151   4.327  11.020
83905W        W84769  26.070   5.071  12.151
83906W        W84770  25.780   7.156  13.411
83907W        W84771  28.551   5.428  11.509
83908W        W84772  28.574   4.182  14.085
83909W        W84773  28.257   6.259  12.230
83910W        W84774  25.767   5.118  14.188
83911W        W84775  28.726   3.935  11.451
83912W        W84776  28.288   6.242  11.700
83913W        W84777  27.425   5.264  11.733
83914W        W84778  28.323   4.139  11.156
83915W        W84779  28.449   4.679  13.319
83916W        W84780  26.093   5.076  12.667
83917W        W84781  26.324   5.893  12.482
83918W        W84782  28.140   4.847  12.299
83919W        W84783  27.189   4.249  12.852
83920W        W84784   0.100   6.242  13.515
83921W        W84785  28.882   4.017  13.079
83922W        W84786  25.733   6.823  12.445
83923W        W84787  25.964   6.108  12.053
83924W        W84788  25.989   3.967  14.522
83925W        W84789  27.328   6.724  14.664
83926W        W84790   0.081   5.688  12.362
83927W        W84791  28.280   5.839  11.330
83928W        W84792  27.680   7.309  13.434
83929W        W84793  28.377   5.985  14.468
83930W        W84794  27.127   3.648  11.659
83931W        W84795  27.885   4.623  12.694
83932W        W84796  25.679   6.040  13.141
83933W        W84797  27.028   4.128  11.843
83934W        W84798  26.881   5.895  14.353
83935W        W84799  27.672   4.676  12.202
83936W        W84800  27.979   6.247  13.352
83937W        W84801  26.034   6.824  14.065
83938W        W84802  26.816   6.808  14.384
83939W        W84803  26.632   4.218  11.458
83940W        W84804  27.991   4.593  11.712
83941W        W84805  27.915   6.680  13.977
83942W        W84806  26.669   5.225  12.622
83943W        W84807  26.188   6.807  13.546
83944W        W84808  28.862   7.128  11.045
83945W        W84809  25.799   5.620  14.061
83946W        W84810  27.918   6.068  12.869
83947W        W84811  26.542   6.246  12.190
83948W        W84812  26.736   6.735  13.523
83949W        W84813  27.119   4.003  12.387
83950W        W84814  25.470   6.091  11.827
83951W        W84815  27.321   4.998  11.253
83952W        W84816  25.919   5.499  12.395
83953W        W84817  27.133   4.182  13.801
83954W        W84818  28.770   3.979  10.905
83955W        W84819  28.859   5.717  14.345
83956W        W84820  27.630   7.074  14.348
83957W        W84821   0.077   6.013  13.983
83958W        W84822  28.614   6.758  14.496
83959W        W84823  26.250   7.160  13.147
83960W        W84824   0.162   5.940  11.888
83961W        W84825  27.692   5.161  12.395
83962W        W84826  27.370   3.660  12.119
83963W        W84827  26.543   6.758  12.271
83964W        W84828  27.080   4.564  13.307
83965W        W84829  26.824   3.845  12.772
83966W        W84830  25.770   6.844  11.312
83967W        W84831  27.429   5.966  12.288
83968W        W84832  26.515   6.948  13.949
83969W        W84833  25.700   5.427  11.900
83970W        W84834  25.798   4.269  12.763
83971W        W84835  27.404   6.076  12.791
83972W        W84836  25.702   4.064  11.723
83973W        W84837  28.314   5.193  13.406
83974W        W84838  28.126   4.619  11.178
83975W        W84839  28.844   6.271  13.078
83976W        W84840  27.400   6.586  12.784
83977W        W84841  26.814   6.973  11.674
83978W        W84842  27.930   3.752  11.077
83979W        W84843  25.785   7.048  12.895
83980W        W84844  27.899   4.828  14.581
83981W        W84845  25.981   4.372  14.210
83982W        W84846  25.623   4.912  11.973
83983W        W84847  26.998   5.000  11.674
83984W        W84848  28.044   5.248  14.267
83985W        W84849  26.778   5.450  13.065
83986W        W84850  27.857   3.857  12.205
83987W        W84851  27.210   7.075  12.697
83988W        W84852  28.252   6.655  13.578
83989W        W84853  28.283   6.687  12.536
83990W        W84854  27.922   5.868  12.394
83991W        W84855  27.373   4.102  11.451
83992W        W84856   0.052   3.775  12.083
83993W        W84857  26.693   5.256  10.866
83994W        W84858  28.946   4.672  12.159
83995W        W84859  27.484   5.945  11.267
83996W        W84860  28.577   5.986  13.978
83997W        W84861  28.313   6.562  11.041
83998W        W84862  27.004   4.486  14.223
83999W        W84863  26.833   5.046  13.419
84000W        W84864  28.785   6.466  13.895
84001W        W84865  27.966   4.186  14.030
84002W        W84866  25.505   4.819  13.881
84003W        W84867  27.490   5.438  13.634
84004W        W84868  25.833   5.990  12.537
84005W        W84869  25.964   5.236  13.134
84006W        W84870  28.286   5.777  13.529
84007W        W84871  28.139   6.976  14.337
84008W        W84872  27.866   4.686  14.070
84009W        W84873  28.130   7.101  12.236
84010W        W84874  27.251   6.650  13.627
84011W        W84875  26.628   6.838  12.979
84012W        W84876  28.541   6.228  13.502
84013W        W84877  27.492   6.228  14.617
84014W        W84878  26.150   6.122  12.922
84015W        W84879  28.409   5.779  12.486
84016W        W84880  28.090   7.000  13.233
84017W        W84881  26.128   6.656  13.013
84018W        W84882  27.439   4.746  14.366
84019W        W84883  27.311   6.823  11.755
84020W        W84884  27.014   6.357  14.501
84021W        W84885  26.890   6.526  11.927
84022W        W84886  26.414   4.820  10.745
84023W        W84887  25.615   7.299  18.034
84024W        W84888  26.109   6.200  17.538
84025W        W84889  28.524   5.912  15.314
84026W        W84890  28.928   7.069  17.282
84027W        W84891  26.934   6.992  14.865
84028W        W84892  26.874   5.041  15.826
84029W        W84893  26.471   4.708  16.019
84030W        W84894  27.376   5.752  15.371
84031W        W84895  27.045   6.997  17.588
84032W        W84896  25.631   4.482  17.605
84033W        W84897  26.227   3.830  17.353
84034W        W84898  28.136   4.019  16.290
84035W        W84899  27.934   4.899  15.131
84036W        W84900  28.219   4.608  18.018
84037W        W84901  25.733   4.022  17.192
84038W        W84902  25.826   6.843  18.140
84039W        W84903  27.415   6.274  15.320
84040W        W84904  25.802   4.754  16.681
84041W        W84905  26.726   4.951  17.888
84042W        W84906  28.942   4.508  16.343
84043W        W84907  28.855   5.827  17.149
84044W        W84908  27.269   4.975  16.394
84045W        W84909  27.890   6.528  16.573
84046W        W84910  26.126   5.714  16.834
84047W        W84911  25.408   5.191  16.513
84048W        W84912  26.737   5.338  17.551
84049W        W84913  28.839   5.192  17.802
84050W        W84914  26.516   6.462  16.278
84051W        W84915  27.642   6.367  17.331
84052W        W84916  26.804   4.819  16.581
84053W        W84917  27.133   5.719  16.302
84054W        W84918  27.847   6.606  18.092
84055W        W84919  27.275   5.782  18.084
84056W        W84920  27.243   5.586  17.571
84057W        W84921  25.462   4.727  18.019
84058W        W84922  28.310   6.492  17.903
84059W        W84923  25.921   3.855  15.704
84060W        W84924  26.625   6.277  16.765
84061W        W84925   0.065   6.125  16.241
84062W        W84926  28.510   4.289  16.520
84063W        W84927  28.682   4.539  14.658
84064W        W84928   0.346   5.178  17.106
84065W        W84929  27.212   6.911  16.745
84066W        W84930  28.671   6.397  15.381
84067W        W84931  26.146   7.338  15.242
84068W        W84932  26.483   7.208  15.636
84069W        W84933  26.406   3.941  16.887
84070W        W84934  28.825   5.041  17.275
84071W        W84935  28.088   5.315  15.974
84072W        W84936  28.080   5.269  14.810
84073W        W84937  27.497   6.271  16.806
84074W        W84938  27.485   4.546  16.194
84075W        W84939  27.771   6.767  17.031
84076W        W84940  28.693   5.518  15.597
84077W        W84941  27.692   4.099  15.516
84078W        W84942  26.201   6.828  15.444
84079W        W84943  25.616   4.222  15.908
84080W        W84944  28.443   4.786  16.356
84081W        W84945  25.987   6.539  16.367
84082W        W84946  27.339   6.816  15.255
84083W        W84947  28.409   4.961  14.535
84084W        W84948  25.815   6.602  16.852
84085W        W84949  26.551   6.363  17.287
84086W        W84950  26.765   5.741  15.879
84087W        W84951  26.907   4.011  16.988
84088W        W84952   0.182   3.708  16.228
84089W        W84953  26.397   5.988  14.145
84090W        W84954  25.919   4.473  14.706
84091W        W84955  26.159   6.483  15.874
84092W        W84956  27.104   6.145  15.975
84093W        W84957  28.469   6.971  17.561
84094W        W84958  27.557   4.532  15.260
84095W        W84959  28.611   7.133  16.058
84096W        W84960  28.421   4.959  17.622
84097W        W84961   0.028   6.444  15.774
84098W        W84962  27.798   5.877  17.387
84099W        W84963  25.566   5.257  15.562
84100W        W84964  26.553   5.887  17.075
84101W        W84965  27.811   5.048  15.618
84102W        W84966  27.695   5.545  15.712
84103W        W84967  25.987   4.850  17.168
84104W        W84968  25.998   4.852  17.711
84105W        W84969  25.871   3.787  16.210
84106W        W84970  27.687   4.208  16.564
84107W        W84971  27.368   4.252  17.874
84108W        W84972  27.827   4.139  15.018
84109W        W84973  28.946   6.993  17.782
84110W        W84974  27.814   3.816  17.776
84111W        W84975  28.742   6.228  17.990
84112W        W84976  28.358   4.403  17.563
84113W        W84977  28.120   4.176  15.790
84114W        W84978  28.494   5.507  18.037
84115W        W84979  26.303   6.929  16.186
84116W        W84980  27.054   4.409  15.130
84117W        W84981  26.441   4.023  17.804
84118W        W84982  28.511   4.627  15.535
84119W        W84983  28.800   5.044  15.425
84120W        W84984  26.639   7.157  17.892
84121W        W84985  26.382   3.683  15.155
84122W        W84986  28.798   4.026  16.163
84123W        W84987   0.058   6.594  14.718
84124W        W84988  25.732   5.600  16.505
84125W        W84989  27.858   4.201  14.519
84126W        W84990   0.075   6.590  16.536
84127W        W84991  28.829   3.839  17.063
84128W        W84992  27.550   5.147  17.727
84129W        W84993  27.868   6.474  15.553
84130W        W84994  28.028   5.591  18.246
84131W        W84995  27.723   3.692  16.464
84132W        W84996  26.265   4.632  16.485
84133W        W84997  25.853   5.842  17.249
84134W        W84998  27.773   6.885  16.110
84135W        W84999  28.839   4.510  16.858
84136W        W85000  27.603   7.076  17.440
84137W        W85001  28.701   5.805  14.835
84138W        W85002  27.204   5.453  15.864
84139W        W85003   0.051   3.885  17.521
84140W        W85004  27.343   5.907  17.164
84141W        W85005  27.666   4.715  16.647
84142W        W85006  28.294   5.104  15.483
84143W        W85007  28.463   4.867  15.052
84144W        W85008  28.281   6.773  15.363
84145W        W85009  28.320   6.149  16.250
84146W        W85010  28.185   5.595  15.543
84147W        W85011  27.581   5.460  16.217
84148W        W85012  28.493   5.300  16.402
84149W        W85013  26.043   4.328  16.861
84150W        W85014  28.560   5.463  17.473
84151W        W85015   0.025   7.119  16.759
84152W        W85016  26.995   6.649  16.096
84153W        W85017  28.083   7.135  17.246
84154W        W85018  27.933   4.456  17.221
84155W        W85019  27.204   7.325  17.190
84156W        W85020  28.627   4.122  15.615
84157W        W85021  28.559   5.484  16.896
84158W        W85022  25.608   4.514  17.101
84159W        W85023  28.503   4.414  16.019
84160W        W85024  28.847   4.689  17.694
84161W        W85025  27.890   6.367  16.070
84162W        W85026  27.166   7.002  15.730
84163W        W85027  26.029   4.033  15.023
84164W        W85028  27.283   3.880  16.662
84165W        W85029  26.201   7.345  14.735
84166W        W85030  26.926   5.499  15.432
84167W        W85031  27.375   6.085  17.666
84168W        W85032  27.278   4.330  15.741
84169W        W85033  28.424   3.776  15.938
84170W        W85034  28.169   7.229  16.309
84171W        W85035  27.685   7.050  16.583
84172W        W85036  27.004   5.895  16.770
84173W        W85037  28.786   6.680  16.971
84174W        W85038  26.435   4.005  15.564
84175W        W85039  27.044   6.317  16.487
84176W        W85040  26.411   4.332  14.535
84177W        W85041  27.276   4.911  16.924
84178W        W85042  28.070   3.923  16.786
84179W        W85043  25.521   5.536  16.976
84180W        W85044  27.331   5.440  14.950
84181W        W85045  26.488   3.841  14.647
84182W        W85046  27.389   4.959  15.895
84183W        W85047  28.055   3.965  17.334
84184W        W85048  26.900   5.977  17.443
84185W        W85049  27.689   5.631  17.844
84186W        W85050  28.169   5.723  17.718
84187W        W85051  27.413   3.795  18.115
84188W        W85052  26.664   4.316  16.632
84189W        W85053  26.138   4.280  15.936
84190W        W85054  25.914   6.956  15.856
84191W        W85055  27.440   6.643  17.742
84192W        W85056  26.393   5.949  15.496
84193W        W85057  28.039   5.515  16.458
84194W        W85058  28.112   5.035  16.674
84195W        W85059  27.499   5.732  16.689
84196W        W85060  28.004   6.204  14.726
84197W        W85061  27.673   4.102  16.053
84198W        W85062  28.993   4.544  15.390
84199W        W85063  25.784   6.964  17.609
84200W        W85064  26.145   6.222  17.005
84201W        W85065  25.686   7.186  15.451
84202W        W85066  27.451   4.400  17.005
84203W        W85067  27.007   6.489  15.039
84204W        W85068  28.679   6.814  15.032
84205W        W85069  27.808   5.432  15.214
84206W        W85070  26.767   4.429  15.663
84207W        W85071  27.438   4.396  14.758
84208W        W85072  27.880   6.124  17.876
84209W        W85073  28.227   3.971  15.298
84210W        W85074  25.592   3.758  14.870
84211W        W85075  27.041   6.311  17.067
84212W        W85076  26.684   5.967  16.334
84213W        W85077  26.571   6.520  14.738
84214W        W85078  25.722   6.629  15.487
84215W        W85079  26.290   5.290  17.828
84216W        W85080  26.940   3.907  17.950
84217W        W85081  27.563   4.086  17.393
84218W        W85082  26.845   3.787  15.889
84219W        W85083  27.744   3.669  15.239
84220W        W85084  25.902   3.840  16.748
84221W        W85085  25.832   4.656  16.158
84222W        W85086  28.550   3.794  16.623
84223W        W85087  25.835   4.284  15.434
84224W        W85088  28.437   4.178  17.032
84225W        W85089  28.846   5.287  14.727
84226W        W85090  26.228   4.117  16.422
84227W        W85091  27.462   4.625  17.472
84228W        W85092  25.528   4.261  14.965
84229W        W85093  26.378   5.735  17.535
84230W        W85094  27.632   5.227  16.671
84231W        W85095  27.449   7.170  14.863
84232W        W85096  25.562   5.442  14.527
84233W        W85097  26.552   6.191  17.781
84234W        W85098  25.978   5.332  17.399
84235W        W85099  26.944   5.545  17.143
84236W        W85100  28.536   3.921  17.481
84237W        W85101   0.088   5.482  17.448
84238W        W85102   0.001   5.537  15.185
84239W        W85103  27.853   5.950  15.367
84240W        W85104  28.436   7.209  14.675
84241W        W85105  27.598   5.292  18.237
84242W        W85106  26.115   6.256  18.064
84243W        W85107   0.175   4.345  18.140
84244W        W85108  28.652   4.991  16.785
84245W        W85109  27.110   7.042  18.099
84246W        W85110  26.881   3.721  14.996
84247W        W85111  28.557   6.332  14.834
84248W        W85112  26.400   4.539  17.739
84249W        W85113  26.975   6.478  17.563
84250W        W85114  28.832   4.328  17.332
84251W        W85115  28.167   7.212  15.122
84252W        W85116  28.375   5.925  16.721
84253W        W85117  26.569   4.252  17.312
84254W        W85118  27.117   5.294  17.971
84255W        W85119  26.568   6.449  15.345
84256W        W85120  28.195   6.080  15.713
84257W        W85121  26.079   4.389  17.368
84258W        W85122  27.454   6.564  15.857
84259W        W85123   0.101   5.198  15.812
84260W        W85124  27.283   3.717  17.617
84261W        W85125  28.394   6.462  16.679
84262W        W85126  28.638   6.906  16.518
84263W        W85127  27.731   6.548  15.010
84264W        W85128  25.704   6.454  17.790
84265W        W85129  26.437   4.654  16.989
84266W        W85130  26.345   3.797  16.021
84267W        W85131  28.125   4.512  16.753
84268W        W85132  27.150   5.989  14.941
84269W        W85133  28.779   5.728  16.442
84270W        W85134  26.200   6.688  17.796
84271W        W85135  28.480   7.311  15.559
84272W        W85136  26.643   4.213  16.121
84273W        W85137  26.235   5.570  16.344
84274W        W85138  26.818   7.243  16.857
84275W        W85139  28.598   7.301  17.969
84276W        W85140  27.928   5.551  16.952
84277W        W85141  25.803   5.003  14.716
84278W        W85142  28.754   6.864  15.622
84279W        W85143  28.602   4.304  15.113
84280W        W85144  26.762   3.784  17.468
84281W        W85145  28.702   6.490  16.212
84282W        W85146  28.589   5.135  15.925
84283W        W85147  26.986   4.613  16.112
84284W        W85148  27.160   5.079  17.415
84285W        W85149  28.168   6.252  17.476
84286W        W85150  26.848   4.681  17.482
84287W        W85151  26.795   7.136  16.080
84288W        W85152  26.126   7.225  17.915
84289W        W85153  26.425   6.943  14.994
84290W        W85154  28.679   6.091  15.876
84291W        W85155  26.415   4.959  17.427
84292W        W85156  28.973   4.852  14.982
84293W        W85157  26.941   6.031  15.453
84294W        W85158  27.903   5.370  17.435
84295W        W85159  27.772   4.961  17.102
84296W        W85160  26.409   5.390  17.131
84297W        W85161  28.534   7.153  16.985
84298W        W85162  28.271   4.035  17.932
84299W        W85163  25.888   4.037  17.691
84300W        W85164  26.376   5.103  16.687
84301W        W85165  27.023   4.712  14.685
84302W        W85166  25.708   6.367  17.280
84303W        W85167  27.125   5.364  16.705
84304W        W85168  26.954   4.154  14.689
84305W        W85169  26.025   5.059  15.861
84306W        W85170  25.835   7.118  17.111
84307W        W85171  28.501   5.397  15.112
84308W        W85172  28.778   4.204  17.831
84309W        W85173  28.394   6.529  15.804
84310W        W85174  25.745   5.270  17.864
84311W        W85175  28.660   3.780  15.014
84312W        W85176  28.191   6.293  15.195
84313W        W85177  27.374   5.222  15.422
84314W        W85178  28.279   4.002  14.750
84315W        W85179  28.442   4.682  17.150
84316W        W85180  25.931   5.137  16.362
84317W        W85181  26.640   6.249  15.830
84318W        W85182  28.185   4.807  15.891
84319W        W85183  27.177   4.441  16.578
84320W        W85184   0.091   6.288  17.115
84321W        W85185  28.983   4.079  16.633
84322W        W85186  25.615   6.915  16.266
84323W        W85187  25.837   6.125  15.672
84324W        W85188  26.066   3.981  18.167
84325W        W85189  27.055   6.584  18.386
84326W        W85190  28.994   5.679  15.973
84327W        W85191  28.172   5.774  14.974
84328W        W85192  27.686   7.364  16.992
84329W        W85193  28.325   6.000  18.153
84330W        W85194  27.193   3.545  15.362
84331W        W85195  27.999   4.501  16.249
84332W        W85196  25.749   6.083  16.704
84333W        W85197  26.954   4.001  15.437
84334W        W85198  26.814   5.721  17.871
84335W        W85199  27.749   4.558  15.764
84336W        W85200  28.023   6.240  16.993
84337W        W85201  26.119   6.682  17.272
84338W        W85202  26.713   6.658  17.979
84339W        W85203  26.582   4.154  15.065
84340W        W85204  28.067   4.461  15.363
84341W        W85205  27.959   6.726  17.578
84342W        W85206  26.832   5.282  16.284
84343W        W85207  26.359   7.081  17.038
84344W        W85208  28.941   7.110  14.693
84345W        W85209  25.896   5.754  17.761
84346W        W85210  27.910   6.011  16.553
84347W        W85211  26.260   5.956  15.995
84348W        W85212  26.778   6.750  17.019
84349W        W85213  27.158   4.096  16.192
84350W        W85214  25.565   5.948  15.240
84351W        W85215  27.468   4.915  14.896
84352W        W85216  25.811   5.520  15.997
84353W        W85217  27.069   4.211  17.454
84354W        W85218  28.775   4.025  14.591
84355W        W85219  28.931   5.710  17.878
84356W        W85220  27.623   7.058  18.026
84357W        W85221   0.073   6.126  17.600
84358W        W85222  28.691   6.739  18.148
84359W        W85223  26.397   7.263  16.551
84360W        W85224  28.990   5.959  15.505
84361W        W85225  27.796   4.979  16.223
84362W        W85226  27.350   3.808  15.773
84363W        W85227  26.596   6.747  15.795
84364W        W85228  26.940   4.527  17.019
84365W        W85229  26.781   3.820  16.467
84366W        W85230  25.899   6.927  14.998
84367W        W85231  27.570   6.059  15.775
84368W        W85232  26.566   6.851  17.478
84369W        W85233  25.908   5.643  15.502
84370W        W85234  25.724   4.239  16.435
84371W        W85235  27.493   6.099  16.295
84372W        W85236  25.453   3.907  15.392
84373W        W85237  28.268   5.159  17.157
84374W        W85238  28.175   4.495  14.856
84375W        W85239  28.819   6.176  16.692
84376W        W85240  27.436   6.612  16.378
84377W        W85241  26.815   6.908  15.355
84378W        W85242  27.860   3.694  14.716
84379W        W85243  25.964   7.022  16.616
84380W        W85244  27.732   4.804  18.061
84381W        W85245  25.936   4.476  18.056
84382W        W85246  25.672   4.734  15.665
84383W        W85247  27.149   4.761  15.488
84384W        W85248  28.057   5.211  17.907
84385W        W85249  26.631   5.557  16.685
84386W        W85250  27.914   3.663  15.945
84387W        W85251  27.283   7.087  16.236
84388W        W85252  28.291   6.671  17.166
84389W        W85253  28.241   6.717  16.253
84390W        W85254  27.931   5.831  16.070
84391W        W85255  27.343   3.983  15.093
84392W        W85256  28.959   3.716  15.755
84393W        W85257  26.694   5.423  14.352
84394W        W85258  28.899   4.724  15.876
84395W        W85259  27.649   5.850  14.924
84396W        W85260  28.589   5.975  17.582
84397W        W85261  28.198   6.726  14.821
84398W        W85262  26.856   4.408  17.916
84399W        W85263  26.787   5.048  17.053
84400W        W85264  28.714   6.513  17.537
84401W        W85265  27.866   4.345  17.726
84402W        W85266  25.578   4.980  17.460
84403W        W85267  27.458   5.396  17.130
84404W        W85268  25.796   6.012  16.193
84405W        W85269  25.914   5.246  16.865
84406W        W85270  28.280   5.804  17.212
84407W        W85271  28.163   7.007  17.987
84408W        W85272  27.938   4.832  17.574
84409W        W85273  28.174   6.995  15.819
84410W        W85274  27.285   6.734  17.221
84411W        W85275  26.747   6.858  16.510
84412W        W85276  28.552   6.236  17.125
84413W        W85277  27.477   6.266  18.149
84414W        W85278  26.218   6.094  16.499
84415W        W85279  28.440   5.673  16.035
84416W        W85280  28.161   6.932  16.733
84417W        W85281  26.317   6.670  16.742
84418W        W85282  27.219   4.778  17.905
84419W        W85283  27.694   6.981  15.605
84420W        W85284  26.997   6.204  18.013
84421W        W85285  27.029   6.513  15.587
84422W        W85286  26.178   4.819  14.376
84423W        W85287  25.535   7.425  21.655
84424W        W85288  26.022   6.306  21.081
84425W        W85289  28.614   5.903  18.816
84426W        W85290  28.978   7.015  20.913
84427W        W85291  26.691   6.995  18.399
84428W        W85292  26.762   5.106  19.323
84429W        W85293  26.371   4.769  19.492
84430W        W85294  27.355   5.711  18.929
84431W        W85295  27.048   6.915  21.261
84432W        W85296  25.604   4.389  21.184
84433W        W85297  26.277   3.697  21.049
84434W        W85298  28.078   4.056  19.841
84435W        W85299  27.622   4.919  18.617
84436W        W85300  28.248   4.643  21.604
84437W        W85301  25.787   4.035  20.773
84438W        W85302  25.713   6.967  21.814
84439W        W85303  27.186   6.073  18.517
84440W        W85304  25.823   4.765  20.206
84441W        W85305  26.751   5.027  21.370
84442W        W85306  28.889   4.652  20.022
84443W        W85307  28.861   5.815  20.832
84444W        W85308  27.129   5.151  19.715
84445W        W85309  27.854   6.510  20.183
84446W        W85310  26.126   5.763  20.434
84447W        W85311  25.544   5.197  20.064
84448W        W85312  26.745   5.414  20.975
84449W        W85313  28.831   5.210  21.488
84450W        W85314  26.513   6.492  19.930
84451W        W85315  27.646   6.296  20.953
84452W        W85316  27.030   4.909  20.142
84453W        W85317  27.124   5.671  19.809
84454W        W85318  27.871   6.632  21.717
84455W        W85319  27.318   5.744  21.696
84456W        W85320  27.221   5.568  21.149
84457W        W85321  25.343   4.691  21.536
84458W        W85322  28.369   6.503  21.422
84459W        W85323  26.122   3.909  19.241
84460W        W85324  26.545   6.252  20.384
84461W        W85325   0.097   6.121  19.873
84462W        W85326  28.460   4.376  20.184
84463W        W85327  28.714   4.554  18.206
84464W        W85328  28.946   5.308  20.740
84465W        W85329  27.270   6.873  20.384
84466W        W85330  28.748   6.341  19.031
84467W        W85331  26.055   7.305  18.929
84468W        W85332  26.362   7.189  19.335
84469W        W85333  26.283   3.925  20.581
84470W        W85334  28.797   4.841  20.907
84471W        W85335  28.036   5.292  19.663
84472W        W85336  28.060   5.088  18.414
84473W        W85337  27.448   6.314  20.440
84474W        W85338  27.343   4.529  19.727
84475W        W85339  27.798   6.694  20.674
84476W        W85340  28.671   5.556  19.188
84477W        W85341  27.502   4.011  19.094
84478W        W85342  26.235   6.826  18.979
84479W        W85343  25.756   4.206  19.428
84480W        W85344  28.364   4.801  19.860
84481W        W85345  26.003   6.517  20.068
84482W        W85346  27.164   6.728  18.906
84483W        W85347  28.506   5.016  18.161
84484W        W85348  25.666   6.606  20.452
84485W        W85349  26.515   6.348  20.896
84486W        W85350  26.660   5.589  19.599
84487W        W85351  26.758   4.136  20.458
84488W        W85352  28.954   3.719  20.009
84489W        W85353  26.341   5.783  18.057
84490W        W85354  26.093   4.585  18.568
84491W        W85355  25.965   6.530  19.540
84492W        W85356  27.015   6.161  19.693
84493W        W85357  28.532   6.988  21.194
84494W        W85358  27.558   4.448  18.824
84495W        W85359  28.598   7.023  19.667
84496W        W85360  28.433   5.011  21.254
84497W        W85361   0.117   6.394  19.404
84498W        W85362  27.843   5.816  20.913
84499W        W85363  25.382   5.377  19.209
84500W        W85364  26.696   5.790  20.553
84501W        W85365  27.701   5.008  19.115
84502W        W85366  27.649   5.470  19.337
84503W        W85367  26.058   4.861  20.677
84504W        W85368  26.088   4.862  21.232
84505W        W85369  25.941   3.801  19.739
84506W        W85370  27.647   4.214  20.094
84507W        W85371  27.511   4.304  21.328
84508W        W85372  27.919   4.088  18.708
84509W        W85373  28.985   6.965  21.429
84510W        W85374  27.761   3.820  21.355
84511W        W85375  28.795   6.260  21.658
84512W        W85376  28.414   4.523  21.090
84513W        W85377  27.982   4.154  19.242
84514W        W85378  28.464   5.554  21.689
84515W        W85379  26.180   6.929  19.790
84516W        W85380  27.085   4.600  18.750
84517W        W85381  26.415   4.016  21.436
84518W        W85382  28.499   4.687  19.110
84519W        W85383  28.713   5.111  18.925
84520W        W85384  26.582   7.062  21.499
84521W        W85385  26.636   3.762  18.824
84522W        W85386  28.739   4.181  19.780
84523W        W85387   0.120   6.574  18.421
84524W        W85388  25.805   5.661  20.032
84525W        W85389  27.795   4.156  18.194
84526W        W85390   0.046   6.677  20.119
84527W        W85391   0.077   3.797  20.865
84528W        W85392  27.597   5.120  21.266
84529W        W85393  27.284   6.216  19.005
84530W        W85394  27.880   5.806  21.787
84531W        W85395  27.643   3.730  19.921
84532W        W85396  26.242   4.605  19.970
84533W        W85397  25.819   5.902  20.814
84534W        W85398  27.648   6.915  19.619
84535W        W85399  28.878   4.511  20.514
84536W        W85400  27.570   6.998  21.087
84537W        W85401  28.786   5.819  18.347
84538W        W85402  27.137   5.462  19.323
84539W        W85403   0.101   4.000  21.352
84540W        W85404  27.358   5.902  20.783
84541W        W85405  27.531   4.757  20.129
84542W        W85406  28.191   5.083  18.924
84543W        W85407  28.420   4.740  18.600
84544W        W85408  28.324   6.795  18.985
84545W        W85409  28.357   6.162  19.845
84546W        W85410  28.139   5.513  19.185
84547W        W85411  27.638   5.589  19.863
84548W        W85412  28.603   5.267  19.913
84549W        W85413  26.065   4.368  20.432
84550W        W85414  28.589   5.505  21.165
84551W        W85415  28.986   7.128  20.395
84552W        W85416  26.951   6.654  19.701
84553W        W85417  28.072   7.085  20.966
84554W        W85418  27.978   4.428  20.796
84555W        W85419  27.202   7.215  20.803
84556W        W85420  28.746   4.247  19.253
84557W        W85421  28.578   5.511  20.420
84558W        W85422  25.653   4.536  20.686
84559W        W85423  28.332   4.409  19.528
84560W        W85424  28.814   4.692  21.399
84561W        W85425  27.831   6.366  19.682
84562W        W85426  27.184   6.991  19.391
84563W        W85427  26.177   4.069  18.674
84564W        W85428  27.272   3.815  20.291
84565W        W85429  26.157   7.186  18.437
84566W        W85430  26.859   5.551  18.878
84567W        W85431  27.366   6.045  21.289
84568W        W85432  27.118   4.265  19.359
84569W        W85433  28.404   3.910  19.457
84570W        W85434  28.164   7.201  19.923
84571W        W85435  27.707   6.995  20.143
84572W        W85436  27.138   5.871  20.295
84573W        W85437  28.782   6.680  20.582
84574W        W85438  26.606   4.104  19.225
84575W        W85439  26.992   6.381  20.166
84576W        W85440  26.421   4.347  18.226
84577W        W85441  27.372   4.992  20.552
84578W        W85442  28.055   4.059  20.401
84579W        W85443  25.607   5.549  20.512
84580W        W85444  27.191   5.490  18.487
84581W        W85445  26.574   3.873  18.321
84582W        W85446  27.215   4.830  19.282
84583W        W85447  28.114   3.943  20.938
84584W        W85448  26.860   5.909  21.041
84585W        W85449  27.682   5.615  21.354
84586W        W85450  28.165   5.769  21.328
84587W        W85451  27.384   3.927  21.725
84588W        W85452  26.697   4.534  20.143
84589W        W85453  26.241   4.271  19.590
84590W        W85454  25.885   7.017  19.365
84591W        W85455  27.460   6.555  21.365
84592W        W85456  26.774   6.109  18.812
84593W        W85457  28.183   5.565  20.069
84594W        W85458  28.266   5.085  20.282
84595W        W85459  27.629   5.722  20.382
84596W        W85460  27.935   6.205  18.414
84597W        W85461  27.622   4.114  19.587
84598W        W85462   0.028   4.670  19.059
84599W        W85463  25.716   7.093  21.296
84600W        W85464  26.071   6.282  20.556
84601W        W85465  25.571   7.321  19.076
84602W        W85466  27.525   4.429  20.535
84603W        W85467  26.659   6.609  18.745
84604W        W85468  28.726   6.771  18.684
84605W        W85469  27.776   5.403  18.779
84606W        W85470  26.752   4.599  19.158
84607W        W85471  27.405   4.509  18.332
84608W        W85472  27.867   6.184  21.429
84609W        W85473  28.362   4.222  18.925
84610W        W85474  25.796   3.722  18.503
84611W        W85475  26.987   6.216  20.659
84612W        W85476  26.699   5.910  20.022
84613W        W85477  26.599   6.275  18.325
84614W        W85478  25.724   6.615  19.073
84615W        W85479  26.319   5.360  21.256
84616W        W85480  26.889   3.825  21.567
84617W        W85481  27.611   4.047  20.887
84618W        W85482  26.908   3.755  19.422
84619W        W85483  27.669   3.623  18.796
84620W        W85484  25.834   3.871  20.265
84621W        W85485  25.864   4.686  19.625
84622W        W85486  28.468   3.856  20.112
84623W        W85487  26.228   4.419  19.087
84624W        W85488  28.472   4.204  20.685
84625W        W85489  28.914   5.311  18.293
84626W        W85490  26.362   4.119  20.089
84627W        W85491  27.502   4.693  20.970
84628W        W85492  25.717   4.241  18.481
84629W        W85493  26.327   5.772  20.911
84630W        W85494  27.786   5.204  20.186
84631W        W85495  27.399   7.030  18.534
84632W        W85496  25.687   5.517  18.309
84633W        W85497  26.574   6.552  21.388
84634W        W85498  25.966   5.361  20.853
84635W        W85499  27.114   5.477  20.634
84636W        W85500  28.610   3.888  21.088
84637W        W85501   0.115   5.526  21.167
84638W        W85502  28.961   5.541  18.748
84639W        W85503  27.798   5.925  19.074
84640W        W85504  28.429   7.138  18.427
84641W        W85505  27.636   5.316  21.783
84642W        W85506  26.132   6.325  21.585
84643W        W85507   0.150   4.412  21.658
84644W        W85508  28.760   4.999  20.381
84645W        W85509  27.051   7.038  21.815
84646W        W85510  27.044   3.697  18.473
84647W        W85511  28.661   6.305  18.485
84648W        W85512  26.496   4.531  21.330
84649W        W85513  26.994   6.394  21.152
84650W        W85514  28.880   4.323  21.007
84651W        W85515  28.125   7.248  18.833
84652W        W85516  28.363   5.969  20.344
84653W        W85517  26.579   4.177  20.958
84654W        W85518  27.188   5.255  21.544
84655W        W85519  26.360   6.325  19.096
84656W        W85520  28.315   5.989  19.224
84657W        W85521  26.103   4.406  20.970
84658W        W85522  27.366   6.484  19.441
84659W        W85523  28.981   5.156  19.383
84660W        W85524  27.270   3.840  21.233
84661W        W85525  28.336   6.486  20.346
84662W        W85526  28.586   6.910  20.161
84663W        W85527  27.531   6.498  18.608
84664W        W85528  25.696   6.569  21.462
84665W        W85529  26.508   4.570  20.628
84666W        W85530  26.442   3.808  19.676
84667W        W85531  27.992   4.592  20.291
84668W        W85532  26.784   5.788  18.376
84669W        W85533  28.716   5.799  20.012
84670W        W85534  26.133   6.793  21.287
84671W        W85535  28.471   7.266  19.221
84672W        W85536  26.749   4.211  19.734
84673W        W85537  26.325   5.522  20.017
84674W        W85538  26.753   7.193  20.553
84675W        W85539  28.710   7.352  21.575
84676W        W85540  28.042   5.469  20.556
84677W        W85541  25.834   4.996  18.281
84678W        W85542  28.787   6.812  19.245
84679W        W85543  28.784   4.378  18.706
84680W        W85544  26.796   3.727  21.066
84681W        W85545  28.738   6.521  19.757
84682W        W85546  28.472   5.139  19.412
84683W        W85547  26.866   4.700  19.663
84684W        W85548  27.147   5.086  21.008
84685W        W85549  28.162   6.218  21.024
84686W        W85550  26.881   4.644  21.022
84687W        W85551  26.725   7.097  19.684
84688W        W85552  26.107   7.243  21.601
84689W        W85553  26.288   6.692  18.322
84690W        W85554  28.733   6.059  19.507
84691W        W85555  26.480   4.972  20.942
84692W        W85556  28.966   4.857  18.561
84693W        W85557  26.922   5.915  19.261
84694W        W85558  28.040   5.339  21.063
84695W        W85559  27.905   4.964  20.672
84696W        W85560  26.417   5.363  20.592
84697W        W85561  28.532   7.167  20.686
84698W        W85562  28.252   3.793  21.456
84699W        W85563  25.901   3.976  21.281
84700W        W85564  26.422   4.962  20.286
84701W        W85565  26.766   4.702  18.348
84702W        W85566  25.625   6.651  20.966
84703W        W85567  27.303   5.352  20.177
84704W        W85568  26.976   4.213  18.377
84705W        W85569  26.264   5.280  19.435
84706W        W85570  25.742   7.166  20.776
84707W        W85571  28.465   5.413  18.563
84708W        W85572  28.573   4.228  21.484
84709W        W85573  28.378   6.475  19.396
84710W        W85574  25.813   5.288  21.348
84711W        W85575  28.698   3.861  18.775
84712W        W85576  28.260   6.300  18.821
84713W        W85577  27.273   5.189  18.897
84714W        W85578  28.336   4.241  18.407
84715W        W85579  28.387   4.702  20.605
84716W        W85580  26.092   5.077  19.877
84717W        W85581  26.513   6.128  19.561
84718W        W85582  28.075   4.836  19.408
84719W        W85583  27.153   4.316  20.152
84720W        W85584   0.098   6.277  20.710
84721W        W85585  28.860   4.003  20.428
84722W        W85586  25.631   7.014  19.847
84723W        W85587  25.872   6.114  19.232
84724W        W85588  25.989   4.003  21.824
84725W        W85589  27.428   6.678  21.987
84726W        W85590  28.998   5.620  19.625
84727W        W85591  28.128   5.794  18.706
84728W        W85592  27.702   7.203  20.623
84729W        W85593  28.323   6.074  21.732
84730W        W85594  27.164   3.596  18.976
84731W        W85595  27.884   4.544  19.782
84732W        W85596  25.688   6.113  20.261
84733W        W85597  27.027   4.093  18.885
84734W        W85598  26.785   5.572  21.461
84735W        W85599  27.644   4.541  19.316
84736W        W85600  27.949   6.175  20.559
84737W        W85601  26.087   6.744  20.782
84738W        W85602  27.045   6.553  21.659
84739W        W85603  26.606   4.347  18.720
84740W        W85604  28.019   4.600  18.957
84741W        W85605  27.936   6.653  21.195
84742W        W85606  26.609   5.112  19.827
84743W        W85607  26.247   7.193  20.609
84744W        W85608  28.950   7.132  18.369
84745W        W85609  25.961   5.794  21.291
84746W        W85610  27.927   6.008  20.070
84747W        W85611  26.128   5.763  19.591
84748W        W85612  26.825   6.683  20.607
84749W        W85613  27.193   3.965  19.796
84750W        W85614  25.526   5.755  18.829
84751W        W85615  27.179   4.988  18.388
84752W        W85616  25.779   5.366  19.612
84753W        W85617  27.100   4.164  20.861
84754W        W85618  28.798   4.041  18.309
84755W        W85619  28.935   5.753  21.578
84756W        W85620  27.516   7.017  21.601
84757W        W85621   0.091   6.110  21.213
84758W        W85622  28.658   6.759  21.777
84759W        W85623  26.409   7.216  20.132
84760W        W85624   0.055   5.883  19.151
84761W        W85625  27.614   4.983  19.640
84762W        W85626  27.409   3.645  19.458
84763W        W85627  26.468   6.681  19.453
84764W        W85628  27.036   4.587  20.553
84765W        W85629  26.789   3.785  20.060
84766W        W85630  25.781   6.922  18.659
84767W        W85631  27.422   5.928  19.447
84768W        W85632  26.559   6.897  20.986
84769W        W85633  25.871   5.569  19.161
84770W        W85634  25.852   4.279  19.956
84771W        W85635  27.447   6.085  19.951
84772W        W85636  25.704   3.997  18.946
84773W        W85637  28.428   5.185  20.772
84774W        W85638  27.943   4.562  18.460
84775W        W85639  28.790   6.259  20.259
84776W        W85640  27.404   6.598  19.953
84777W        W85641  26.756   6.948  19.124
84778W        W85642  27.872   3.657  18.301
84779W        W85643  25.935   7.005  20.259
84780W        W85644  27.703   4.739  21.604
84781W        W85645  26.017   4.425  21.504
84782W        W85646  25.779   5.016  19.231
84783W        W85647  26.796   5.021  18.787
84784W        W85648  28.053   5.169  21.546
84785W        W85649  26.797   5.414  20.204
84786W        W85650  27.927   3.685  19.476
84787W        W85651  27.229   7.084  19.894
84788W        W85652  28.327   6.670  20.833
84789W        W85653  28.228   6.678  19.868
84790W        W85654  27.952   5.857  19.570
84791W        W85655  27.430   4.028  18.564
84792W        W85656   0.009   3.831  19.482
84793W        W85657  26.726   5.260  18.310
84794W        W85658  28.781   4.699  19.531
84795W        W85659  27.621   5.798  18.477
84796W        W85660  28.591   6.033  21.240
84797W        W85661  28.258   6.642  18.421
84798W        W85662  26.979   4.283  21.377
84799W        W85663  26.835   5.051  20.593
84800W        W85664  28.797   6.536  21.114
84801W        W85665  28.030   4.273  21.315
84802W        W85666  25.609   4.897  21.068
84803W        W85667  27.585   5.383  20.812
84804W        W85668  25.762   6.098  19.746
84805W        W85669  25.989   5.260  20.336
84806W        W85670  28.344   5.776  20.822
84807W        W85671  28.138   7.030  21.518
84808W        W85672  27.979   4.793  21.166
84809W        W85673  28.127   6.951  19.441
84810W        W85674  27.293   6.651  20.839
84811W        W85675  26.814   6.883  20.137
84812W        W85676  28.582   6.230  20.739
84813W        W85677  27.512   6.216  21.783
84814W        W85678  26.203   6.052  20.019
84815W        W85679  28.422   5.653  19.618
84816W        W85680  28.142   6.974  20.414
84817W        W85681  26.372   6.743  20.362
84818W        W85682  27.222   4.758  21.402
84819W        W85683  27.612   6.966  19.066
84820W        W85684  26.921   6.068  21.554
84821W        W85685  26.867   6.435  19.234
84822W        W85686  26.303   4.852  18.148
84823W        W85687  25.673   7.333  25.330
84824W        W85688  26.082   6.204  24.915
84825W        W85689  28.642   5.915  22.527
84826W        W85690  28.934   6.961  24.563
84827W        W85691  26.596   7.004  22.065
84828W        W85692  27.186   4.884  23.048
84829W        W85693  26.385   4.735  23.467
84830W        W85694  27.354   5.850  22.744
84831W        W85695  27.036   6.979  24.985
84832W        W85696  25.641   4.386  24.912
84833W        W85697  26.248   3.743  24.757
84834W        W85698  28.034   4.070  23.558
84835W        W85699  27.992   4.897  21.994
84836W        W85700  28.372   4.485  25.267
84837W        W85701  25.746   3.987  24.536
84838W        W85702  25.740   6.831  25.455
84839W        W85703  27.511   6.297  22.335
84840W        W85704  25.617   4.871  24.016
84841W        W85705  26.550   4.955  25.210
84842W        W85706  28.825   4.617  23.667
84843W        W85707  28.829   5.773  24.514
84844W        W85708  27.276   5.162  23.594
84845W        W85709  27.834   6.528  23.847
84846W        W85710  26.116   5.827  24.163
84847W        W85711  25.424   5.364  23.992
84848W        W85712  26.696   5.376  24.929
84849W        W85713  28.810   5.170  25.197
84850W        W85714  26.395   6.736  23.737
84851W        W85715  27.641   6.338  24.663
84852W        W85716  27.016   4.956  24.016
84853W        W85717  27.259   5.715  23.666
84854W        W85718  27.976   6.712  25.366
84855W        W85719  27.253   5.719  25.363
84856W        W85720  27.165   5.570  24.865
84857W        W85721  25.621   4.696  25.333
84858W        W85722  28.360   6.458  25.097
84859W        W85723  26.022   3.854  23.028
84860W        W85724  26.467   6.517  24.298
84861W        W85725   0.009   6.133  23.464
84862W        W85726  28.390   4.356  23.808
84863W        W85727  28.694   4.588  21.898
84864W        W85728   0.001   5.288  24.382
84865W        W85729  27.213   6.969  24.198
84866W        W85730  28.738   6.393  22.653
84867W        W85731  25.948   7.202  22.611
84868W        W85732  26.431   7.213  22.972
84869W        W85733  26.282   3.978  24.296
84870W        W85734  28.776   4.844  24.595
84871W        W85735  28.091   5.312  23.252
84872W        W85736  28.096   5.391  22.014
84873W        W85737  27.397   6.377  24.214
84874W        W85738  27.416   4.663  23.477
84875W        W85739  27.760   6.740  24.320
84876W        W85740  28.728   5.514  22.855
84877W        W85741  27.538   4.261  22.691
84878W        W85742  26.198   6.787  22.796
84879W        W85743  25.713   4.244  23.126
84880W        W85744  28.336   4.830  23.589
84881W        W85745  25.881   6.715  23.693
84882W        W85746  27.317   6.732  22.539
84883W        W85747  28.475   5.052  21.837
84884W        W85748  25.575   6.727  24.354
84885W        W85749  26.549   6.446  24.809
84886W        W85750  26.743   5.770  23.633
84887W        W85751  26.740   4.186  24.103
84888W        W85752  28.959   3.698  23.633
84889W        W85753  26.456   6.037  21.325
84890W        W85754  25.939   4.484  22.014
84891W        W85755  26.058   6.555  23.236
84892W        W85756  26.968   6.226  23.608
84893W        W85757  28.467   6.894  24.811
84894W        W85758  27.631   4.572  22.161
84895W        W85759  28.627   7.054  23.308
84896W        W85760  28.403   4.949  24.988
84897W        W85761   0.113   6.387  23.016
84898W        W85762  27.805   5.857  24.594
84899W        W85763  25.478   5.167  23.189
84900W        W85764  26.418   6.037  24.521
84901W        W85765  27.829   5.055  22.734
84902W        W85766  27.754   5.576  22.960
84903W        W85767  25.971   4.841  24.413
84904W        W85768  26.004   5.062  25.215
84905W        W85769  25.867   3.798  23.524
84906W        W85770  27.607   4.296  23.813
84907W        W85771  27.428   4.320  25.189
84908W        W85772  27.865   4.115  22.287
84909W        W85773  28.922   6.875  25.092
84910W        W85774  27.754   3.881  25.086
84911W        W85775  28.825   6.263  25.305
84912W        W85776  28.343   4.476  24.745
84913W        W85777  28.010   4.271  22.999
84914W        W85778  28.430   5.495  25.416
84915W        W85779  26.131   7.062  23.392
84916W        W85780  27.085   4.547  22.236
84917W        W85781  26.399   4.105  25.119
84918W        W85782  28.449   4.606  22.751
84919W        W85783  28.762   5.021  22.723
84920W        W85784  26.629   7.222  25.341
84921W        W85785  26.458   3.693  22.452
84922W        W85786  28.795   4.143  23.410
84923W        W85787   0.091   6.590  22.027
84924W        W85788  25.697   5.797  23.849
84925W        W85789  27.833   4.269  21.787
84926W        W85790   0.011   6.597  23.722
84927W        W85791  28.891   3.885  24.337
84928W        W85792  27.491   5.163  24.908
84929W        W85793  27.490   6.353  22.871
84930W        W85794  27.921   5.739  25.466
84931W        W85795  27.606   3.791  23.628
84932W        W85796  26.102   4.709  23.905
84933W        W85797  25.962   5.782  24.647
84934W        W85798  27.732   6.867  23.469
84935W        W85799  28.936   4.539  24.187
84936W        W85800  27.671   7.222  24.757
84937W        W85801  28.740   5.845  22.033
84938W        W85802  27.272   5.514  23.180
84939W        W85803   0.087   3.924  24.807
84940W        W85804  27.302   5.952  24.529
84941W        W85805  27.505   4.823  23.959
84942W        W85806  28.293   5.240  22.766
84943W        W85807  28.396   4.915  22.339
84944W        W85808  28.346   6.754  22.661
84945W        W85809  28.422   6.137  23.524
84946W        W85810  27.935   5.507  22.483
84947W        W85811  27.698   5.542  23.492
84948W        W85812  28.552   5.278  23.652
84949W        W85813  25.921   4.353  24.218
84950W        W85814  28.568   5.472  24.873
84951W        W85815  29.000   7.091  24.022
84952W        W85816  26.897   6.730  23.561
84953W        W85817  28.087   7.139  24.482
84954W        W85818  27.886   4.509  24.456
84955W        W85819  27.213   7.320  24.567
84956W        W85820  28.707   4.206  22.912
84957W        W85821  28.581   5.486  24.138
84958W        W85822  25.522   4.585  24.447
84959W        W85823  28.400   4.431  23.283
84960W        W85824  28.839   4.655  25.083
84961W        W85825  27.821   6.368  23.341
84962W        W85826  27.014   7.074  23.184
84963W        W85827  26.056   4.005  22.334
84964W        W85828  27.235   3.806  24.028
84965W        W85829  26.100   7.172  22.117
84966W        W85830  27.382   5.299  22.710
84967W        W85831  27.379   6.071  25.021
84968W        W85832  27.118   4.355  23.144
84969W        W85833  28.363   3.923  23.180
84970W        W85834  28.154   7.182  23.546
84971W        W85835  27.654   7.124  23.968
84972W        W85836  27.080   5.990  24.061
84973W        W85837  28.751   6.632  24.218
84974W        W85838  26.516   3.985  22.875
84975W        W85839  26.920   6.525  24.035
84976W        W85840  26.416   4.343  21.836
84977W        W85841  27.310   4.988  24.431
84978W        W85842  28.075   3.838  24.061
84979W        W85843  25.552   5.690  24.365
84980W        W85844  27.229   5.424  22.077
84981W        W85845  26.492   3.829  21.926
84982W        W85846  27.615   5.120  23.193
84983W        W85847  28.053   4.020  24.610
84984W        W85848  26.855   5.994  24.914
84985W        W85849  27.651   5.633  25.039
84986W        W85850  28.150   5.753  25.008
84987W        W85851  27.444   3.949  25.530
84988W        W85852  26.622   4.648  23.911
84989W        W85853  26.166   4.294  23.334
84990W        W85854  25.762   6.976  23.051
84991W        W85855  27.534   6.553  25.118
84992W        W85856  27.050   6.276  22.575
84993W        W85857  28.156   5.573  23.707
84994W        W85858  28.215   5.119  24.003
84995W        W85859  27.583   5.851  24.098
84996W        W85860  27.952   6.262  22.070
84997W        W85861  27.589   4.188  23.283
84998W        W85862  28.998   4.567  22.658
84999W        W85863  25.749   6.969  24.938
85000W        W85864  25.943   6.274  24.403
85001W        W85865  25.409   7.106  22.656
85002W        W85866  27.374   4.467  24.314
85003W        W85867  26.953   6.660  22.188
85004W        W85868  28.717   6.820  22.317
85005W        W85869  27.622   5.134  22.268
85006W        W85870  26.605   4.451  23.076
85007W        W85871  27.319   4.425  21.783
85008W        W85872  27.891   6.180  25.166
85009W        W85873  28.294   4.109  22.598
85010W        W85874  25.614   3.659  22.195
85011W        W85875  26.895   6.259  24.467
85012W        W85876  26.587   6.088  24.020
85013W        W85877  26.604   6.396  21.875
85014W        W85878  25.573   6.590  22.792
85015W        W85879  26.354   5.425  25.333
85016W        W85880  26.929   4.128  25.314
85017W        W85881  27.541   4.129  24.674
85018W        W85882  26.861   3.834  23.232
85019W        W85883  27.359   3.777  22.614
85020W        W85884  25.859   3.870  24.046
85021W        W85885  25.732   4.762  23.531
85022W        W85886  28.470   3.836  23.707
85023W        W85887  26.114   4.300  22.787
85024W        W85888  28.451   4.146  24.292
85025W        W85889  28.879   5.348  21.967
85026W        W85890  26.276   4.205  23.837
85027W        W85891  27.467   4.654  24.795
85028W        W85892  25.569   4.171  22.190
85029W        W85893  26.378   5.786  24.970
85030W        W85894  27.585   5.341  23.966
85031W        W85895  27.401   7.135  22.214
85032W        W85896  25.573   5.376  21.795
85033W        W85897  26.515   6.218  25.257
85034W        W85898  25.944   5.254  24.718
85035W        W85899  26.837   5.726  24.474
85036W        W85900  28.566   3.841  24.744
85037W        W85901   0.109   5.518  24.862
85038W        W85902  28.986   5.552  22.414
85039W        W85903  27.833   6.004  22.638
85040W        W85904  28.402   7.185  21.950
85041W        W85905  27.564   5.314  25.473
85042W        W85906  26.109   5.948  25.403
85043W        W85907   0.208   4.316  25.315
85044W        W85908  28.734   4.995  24.044
85045W        W85909  27.120   7.171  25.440
85046W        W85910  26.935   3.774  22.245
85047W        W85911  28.615   6.333  22.141
85048W        W85912  26.117   4.573  25.107
85049W        W85913  27.057   6.472  24.922
85050W        W85914  28.813   4.320  24.640
85051W        W85915  28.149   7.174  22.414
85052W        W85916  28.342   5.923  24.033
85053W        W85917  26.644   4.117  24.616
85054W        W85918  27.072   5.200  25.274
85055W        W85919  26.570   6.318  22.969
85056W        W85920  28.256   5.761  22.817
85057W        W85921  26.136   4.271  24.701
85058W        W85922  27.324   6.511  23.334
85059W        W85923   0.076   5.154  23.156
85060W        W85924  27.252   3.854  25.005
85061W        W85925  28.333   6.430  23.956
85062W        W85926  28.587   6.859  23.782
85063W        W85927  27.795   6.780  22.346
85064W        W85928  25.718   6.330  25.290
85065W        W85929  26.391   4.529  24.348
85066W        W85930  26.380   3.843  23.399
85067W        W85931  27.985   4.648  23.961
85068W        W85932  27.082   6.173  22.046
85069W        W85933  28.723   5.754  23.708
85070W        W85934  26.185   6.620  25.198
85071W        W85935  28.492   7.244  22.836
85072W        W85936  26.703   4.269  23.548
85073W        W85937  26.218   5.854  23.663
85074W        W85938  26.773   7.406  24.339
85075W        W85939  28.583   7.231  25.199
85076W        W85940  27.992   5.542  24.200
85077W        W85941  25.795   4.877  21.674
85078W        W85942  28.831   6.839  22.878
85079W        W85943  28.677   4.324  22.344
85080W        W85944  26.744   3.755  24.967
85081W        W85945  28.696   6.534  23.301
85082W        W85946  28.560   5.113  23.182
85083W        W85947  26.911   4.761  23.487
85084W        W85948  26.987   4.918  24.845
85085W        W85949  28.142   6.219  24.716
85086W        W85950  26.603   4.541  24.902
85087W        W85951  26.620   7.168  23.507
85088W        W85952  26.137   7.126  25.250
85089W        W85953  26.229   6.780  21.790
85090W        W85954  28.676   6.050  23.054
85091W        W85955  26.408   4.975  24.696
85092W        W85956  28.933   4.898  22.261
85093W        W85957  27.050   6.125  23.096
85094W        W85958  27.960   5.381  24.696
85095W        W85959  27.824   5.030  24.330
85096W        W85960  26.367   5.482  24.528
85097W        W85961  28.538   7.111  24.245
85098W        W85962  28.241   4.013  25.098
85099W        W85963  25.886   3.959  25.044
85100W        W85964  26.402   5.056  24.172
85101W        W85965  26.841   4.647  21.733
85102W        W85966  25.647   6.467  24.790
85103W        W85967  27.099   5.467  24.093
85104W        W85968  26.902   4.172  21.927
85105W        W85969  25.797   4.748  23.022
85106W        W85970  25.889   7.174  24.471
85107W        W85971  28.501   5.430  22.334
85108W        W85972  28.748   4.149  25.143
85109W        W85973  28.260   6.361  23.040
85110W        W85974  25.534   5.265  25.306
85111W        W85975  28.676   3.791  22.264
85112W        W85976  28.252   6.271  22.510
85113W        W85977  27.425   4.763  22.587
85114W        W85978  28.331   4.013  21.918
85115W        W85979  28.401   4.668  24.264
85116W        W85980  25.760   5.279  23.631
85117W        W85981  26.463   6.292  23.497
85118W        W85982  28.130   4.829  23.083
85119W        W85983  27.110   4.468  23.867
85120W        W85984   0.068   6.219  24.377
85121W        W85985  28.846   4.131  23.909
85122W        W85986  25.537   7.056  23.509
85123W        W85987  25.632   6.147  23.062
85124W        W85988  26.080   4.034  25.526
85125W        W85989  27.245   6.680  25.518
85126W        W85990  28.988   5.655  23.274
85127W        W85991  28.230   5.852  22.205
85128W        W85992  27.760   7.542  24.295
85129W        W85993  28.373   6.018  25.398
85130W        W85994  26.882   3.632  22.745
85131W        W85995  27.918   4.554  23.460
85132W        W85996  25.623   6.357  23.968
85133W        W85997  26.998   4.150  22.641
85134W        W85998  26.746   5.751  25.362
85135W        W85999  27.653   4.639  23.022
85136W        W86000  27.943   6.219  24.243
85137W        W86001  26.108   6.696  24.676
85138W        W86002  26.750   6.691  25.329
85139W        W86003  26.569   4.177  22.331
85140W        W86004  27.957   4.579  22.572
85141W        W86005  27.943   6.725  24.827
85142W        W86006  26.748   5.237  23.696
85143W        W86007  26.407   7.039  24.414
85144W        W86008  28.960   7.142  21.994
85145W        W86009  25.897   5.581  25.116
85146W        W86010  27.939   6.035  23.744
85147W        W86011  26.148   6.038  23.160
85148W        W86012  26.856   6.791  24.528
85149W        W86013  27.180   4.058  23.568
85150W        W86014  25.305   6.109  22.642
85151W        W86015  27.306   4.917  21.914
85152W        W86016  25.722   5.721  23.328
85153W        W86017  27.067   4.329  24.822
85154W        W86018  28.844   4.095  21.898
85155W        W86019  28.882   5.724  25.258
85156W        W86020  27.571   7.047  25.235
85157W        W86021   0.094   6.051  24.892
85158W        W86022  28.583   6.723  25.464
85159W        W86023  26.221   7.198  23.905
85160W        W86024   0.090   5.887  22.803
85161W        W86025  27.854   5.045  23.636
85162W        W86026  27.353   3.720  23.156
85163W        W86027  26.537   6.766  23.203
85164W        W86028  26.886   4.638  24.412
85165W        W86029  26.778   3.794  23.757
85166W        W86030  25.685   6.838  22.318
85167W        W86031  27.515   5.969  23.250
85168W        W86032  26.512   6.942  24.919
85169W        W86033  25.478   5.605  22.811
85170W        W86034  25.768   4.280  23.714
85171W        W86035  27.459   6.192  23.725
85172W        W86036  25.659   3.939  22.667
85173W        W86037  28.372   5.155  24.492
85174W        W86038  28.221   4.464  22.129
85175W        W86039  28.788   6.191  23.944
85176W        W86040  27.359   6.696  23.803
85177W        W86041  26.702   6.897  22.620
85178W        W86042  27.871   3.761  21.868
85179W        W86043  25.704   7.099  23.992
85180W        W86044  27.968   4.779  25.351
85181W        W86045  26.051   4.579  25.611
85182W        W86046  25.642   4.450  22.630
85183W        W86047  27.062   5.045  22.366
85184W        W86048  28.014   5.270  25.192
85185W        W86049  26.568   5.558  24.067
85186W        W86050  27.871   3.757  23.173
85187W        W86051  27.164   7.159  23.690
85188W        W86052  28.263   6.639  24.418
85189W        W86053  28.220   6.647  23.502
85190W        W86054  28.032   5.894  23.261
85191W        W86055  27.351   4.112  22.211
85192W        W86056   0.036   3.810  23.095
85193W        W86057  26.820   5.140  21.883
85194W        W86058  28.829   4.681  23.137
85195W        W86059  27.585   5.796  22.206
85196W        W86060  28.583   6.010  24.910
85197W        W86061  28.244   6.709  22.107
85198W        W86062  26.995   4.643  25.277
85199W        W86063  26.821   5.202  24.443
85200W        W86064  28.799   6.477  24.775
85201W        W86065  27.892   4.389  24.965
85202W        W86066  25.575   4.917  24.884
85203W        W86067  27.496   5.466  24.464
85204W        W86068  25.843   6.193  23.537
85205W        W86069  25.921   5.332  24.190
85206W        W86070  28.315   5.752  24.524
85207W        W86071  28.085   7.158  25.066
85208W        W86072  27.929   4.883  24.825
85209W        W86073  28.125   6.935  23.088
85210W        W86074  27.385   6.793  24.663
85211W        W86075  26.734   7.010  24.003
85212W        W86076  28.548   6.202  24.410
85213W        W86077  27.497   6.203  25.527
85214W        W86078  26.144   6.314  23.927
85215W        W86079  28.473   5.639  23.283
85216W        W86080  28.127   6.917  23.993
85217W        W86081  26.049   6.764  24.166
85218W        W86082  27.467   4.829  25.306
85219W        W86083  27.480   6.897  23.005
85220W        W86084  27.011   6.211  25.372
85221W        W86085  27.003   6.627  22.951
85222W        W86086  26.342   4.857  21.691
85223W        W86087  25.669   7.323  28.819
85224W        W86088  26.010   6.124  28.390
85225W        W86089  28.630   5.898  26.206
85226W        W86090  28.868   6.989  28.191
85227W        W86091  26.877   6.938  25.813
85228W        W86092  26.750   5.150  26.619
85229W        W86093  26.229   4.965  26.806
85230W        W86094  27.276   5.745  26.247
85231W        W86095  27.011   6.908  28.625
85232W        W86096  25.720   4.467  28.485
85233W        W86097  26.370   3.610  28.280
85234W        W86098  28.096   4.078  27.165
85235W        W86099  27.799   4.856  25.851
85236W        W86100  28.330   4.455  28.742
85237W        W86101  25.778   4.152  28.079
85238W        W86102  25.819   6.836  28.941
85239W        W86103  27.378   6.237  26.065
85240W        W86104  25.772   4.876  27.549
85241W        W86105  26.591   4.768  28.769
85242W        W86106  28.864   4.634  27.278
85243W        W86107  28.755   5.819  28.092
85244W        W86108  27.094   5.122  27.092
85245W        W86109  27.746   6.534  27.536
85246W        W86110  26.064   5.843  27.639
85247W        W86111  25.396   5.273  27.442
85248W        W86112  26.704   5.386  28.454
85249W        W86113  28.774   5.116  28.649
85250W        W86114  26.491   6.476  27.175
85251W        W86115  27.558   6.307  28.262
85252W        W86116  26.796   4.850  27.450
85253W        W86117  27.019   5.640  27.172
85254W        W86118  27.973   6.459   0.074
85255W        W86119  27.138   5.643  28.925
85256W        W86120  27.192   5.544  28.366
85257W        W86121  25.578   4.753  28.909
85258W        W86122  28.330   6.463  28.698
85259W        W86123  26.051   3.988  26.697
85260W        W86124  26.462   6.176  27.615
85261W        W86125  28.963   6.191  27.106
85262W        W86126  28.255   4.379  27.534
85263W        W86127  28.775   4.551  25.595
85264W        W86128   0.146   5.225  27.881
85265W        W86129  27.111   6.908  27.731
85266W        W86130  28.720   6.385  26.297
85267W        W86131  26.167   7.431  26.161
85268W        W86132  26.364   7.244  26.620
85269W        W86133  26.302   4.077  28.024
85270W        W86134  28.737   4.973  28.140
85271W        W86135  28.085   5.352  26.718
85272W        W86136  28.035   5.294  25.711
85273W        W86137  27.312   6.391  27.777
85274W        W86138  27.196   4.606  27.059
85275W        W86139  27.663   6.754  28.021
85276W        W86140  28.551   5.465  26.488
85277W        W86141  27.697   4.202  26.427
85278W        W86142  26.256   6.905  26.238
85279W        W86143  25.670   4.305  26.804
85280W        W86144  28.351   4.853  27.334
85281W        W86145  25.913   6.559  27.273
85282W        W86146  27.267   6.754  26.153
85283W        W86147  28.434   4.975  25.519
85284W        W86148  25.688   6.661  27.768
85285W        W86149  26.400   6.409  28.224
85286W        W86150  26.664   5.633  26.792
85287W        W86151  26.778   4.214  27.819
85288W        W86152  28.944   3.682  27.202
85289W        W86153  25.936   5.498  25.632
85290W        W86154  26.003   4.814  26.090
85291W        W86155  26.132   6.429  26.804
85292W        W86156  27.063   5.941  26.696
85293W        W86157  28.455   6.934  28.481
85294W        W86158  27.471   4.635  26.206
85295W        W86159  28.593   7.098  26.980
85296W        W86160  28.306   4.948  28.438
85297W        W86161   0.069   6.415  26.665
85298W        W86162  27.677   5.789  28.223
85299W        W86163  25.455   5.383  26.486
85300W        W86164  26.396   5.926  28.051
85301W        W86165  27.749   5.058  26.415
85302W        W86166  27.674   5.623  26.560
85303W        W86167  26.031   4.981  27.991
85304W        W86168  26.045   4.825  28.688
85305W        W86169  25.997   3.752  27.141
85306W        W86170  27.717   4.233  27.520
85307W        W86171  27.393   4.324  28.692
85308W        W86172  27.896   4.148  25.951
85309W        W86173  28.833   6.693  28.767
85310W        W86174  27.743   3.852  28.649
85311W        W86175  28.734   6.222  28.934
85312W        W86176  28.411   4.493  28.223
85313W        W86177  28.097   4.308  26.702
85314W        W86178  28.396   5.461  28.911
85315W        W86179  26.263   6.916  27.112
85316W        W86180  26.946   4.693  26.215
85317W        W86181  26.419   3.891  28.707
85318W        W86182  28.478   4.579  26.462
85319W        W86183  28.813   5.018  26.398
85320W        W86184  26.674   7.181  28.915
85321W        W86185  26.593   3.740  26.146
85322W        W86186  28.834   4.142  26.999
85323W        W86187   0.066   6.583  25.653
85324W        W86188  25.745   5.624  27.280
85325W        W86189  27.902   4.245  25.445
85326W        W86190  28.921   6.647  27.367
85327W        W86191  28.890   3.827  27.841
85328W        W86192  27.302   5.169  28.713
85329W        W86193  27.813   6.527  26.318
85330W        W86194  27.928   5.588   0.084
85331W        W86195  27.706   3.772  27.253
85332W        W86196  26.282   4.705  27.323
85333W        W86197  25.909   5.705  28.129
85334W        W86198  27.676   6.945  27.076
85335W        W86199  28.687   4.514  27.759
85336W        W86200  27.502   6.976  28.486
85337W        W86201  28.724   5.794  25.729
85338W        W86202  27.179   5.443  26.682
85339W        W86203   0.080   3.835  28.310
85340W        W86204  27.205   5.985  28.082
85341W        W86205  27.312   4.903  27.536
85342W        W86206  28.276   5.046  26.336
85343W        W86207  28.565   4.806  25.996
85344W        W86208  28.332   6.735  26.344
85345W        W86209  28.403   6.163  27.161
85346W        W86210  28.015   5.466  26.201
85347W        W86211  27.477   5.804  27.008
85348W        W86212  28.530   5.339  27.309
85349W        W86213  26.021   4.450  27.710
85350W        W86214  28.492   5.455  28.387
85351W        W86215  28.815   7.117  27.647
85352W        W86216  26.934   6.651  26.974
85353W        W86217  27.987   7.050  28.335
85354W        W86218  27.987   4.343  27.966
85355W        W86219  27.177   7.192  28.159
85356W        W86220  28.703   4.114  26.495
85357W        W86221  28.552   5.400  27.857
85358W        W86222  25.637   4.646  27.990
85359W        W86223  28.446   4.461  27.024
85360W        W86224  28.804   4.614  28.542
85361W        W86225  27.608   6.339  27.050
85362W        W86226  26.996   6.963  26.563
85363W        W86227  26.028   4.263  26.007
85364W        W86228  27.298   3.863  27.553
85365W        W86229  26.376   7.130  25.780
85366W        W86230  26.784   5.575  26.293
85367W        W86231  27.270   6.013  28.592
85368W        W86232  27.237   4.366  26.590
85369W        W86233  28.410   3.869  26.828
85370W        W86234  28.092   7.182  27.251
85371W        W86235  27.582   7.035  27.574
85372W        W86236  26.945   5.950  27.608
85373W        W86237  28.628   6.666  27.845
85374W        W86238  26.399   4.171  26.365
85375W        W86239  26.864   6.491  27.519
85376W        W86240  26.534   4.487  25.446
85377W        W86241  27.231   5.103  28.044
85378W        W86242  28.072   3.843  27.639
85379W        W86243  25.559   5.694  27.772
85380W        W86244  27.104   5.402  25.753
85381W        W86245  26.503   4.121  25.822
85382W        W86246  27.224   4.902  26.628
85383W        W86247  28.164   4.050  28.377
85384W        W86248  26.784   5.922  28.411
85385W        W86249  27.587   5.600  28.710
85386W        W86250  28.066   5.681  28.570
85387W        W86251  27.364   3.935   0.020
85388W        W86252  26.741   4.373  27.256
85389W        W86253  26.277   4.426  26.899
85390W        W86254  25.960   6.910  26.697
85391W        W86255  27.347   6.512  28.686
85392W        W86256  26.339   5.831  26.185
85393W        W86257  27.935   5.565  27.198
85394W        W86258  28.117   5.251  27.581
85395W        W86259  27.450   5.957  27.514
85396W        W86260  27.991   6.225  25.689
85397W        W86261  27.607   4.208  26.972
85398W        W86262  28.963   4.521  26.264
85399W        W86263  25.779   7.002  28.439
85400W        W86264  26.004   6.280  27.895
85401W        W86265  25.729   7.256  26.356
85402W        W86266  27.490   4.564  27.920
85403W        W86267  26.947   6.418  25.843
85404W        W86268  28.699   6.790  25.976
85405W        W86269  27.564   5.303  26.003
85406W        W86270  26.493   4.684  26.468
85407W        W86271  27.498   4.446  25.701
85408W        W86272  27.754   6.094  28.763
85409W        W86273  28.219   3.956  26.330
85410W        W86274  25.682   3.888  25.854
85411W        W86275  26.824   6.291  27.988
85412W        W86276  26.634   5.977  27.172
85413W        W86277  26.545   6.067  25.755
85414W        W86278  25.767   6.726  26.255
85415W        W86279  26.338   5.245  28.814
85416W        W86280  26.899   3.781  28.840
85417W        W86281  27.601   4.151  28.236
85418W        W86282  26.860   3.810  26.679
85419W        W86283  27.726   3.709  26.254
85420W        W86284  25.945   3.928  27.659
85421W        W86285  25.804   4.736  27.045
85422W        W86286  28.541   3.936  27.416
85423W        W86287  26.002   4.492  26.477
85424W        W86288  28.442   4.063  27.927
85425W        W86289  28.890   5.296  25.669
85426W        W86290  26.370   4.142  27.496
85427W        W86291  27.433   4.763  28.408
85428W        W86292  25.584   4.551  25.840
85429W        W86293  26.291   5.699  28.504
85430W        W86294  27.459   5.414  27.374
85431W        W86295  27.449   7.088  25.807
85432W        W86296  25.587   5.848  25.464
85433W        W86297  26.428   6.183  28.710
85434W        W86298  25.990   5.289  28.420
85435W        W86299  26.827   5.616  27.992
85436W        W86300  28.578   3.690  28.279
85437W        W86301  28.999   5.438  28.314
85438W        W86302  28.951   5.498  26.137
85439W        W86303  27.811   5.965  26.167
85440W        W86304  28.407   7.164  25.677
85441W        W86305  27.547   5.239   0.166
85442W        W86306  26.153   5.682   0.036
85443W        W86307   0.105   4.259  28.852
85444W        W86308  28.774   4.999  27.619
85445W        W86309  27.185   7.159   0.032
85446W        W86310  26.975   3.904  25.796
85447W        W86311  28.600   6.301  25.786
85448W        W86312  26.289   4.372  28.641
85449W        W86313  26.843   6.433  28.494
85450W        W86314  28.883   4.277  28.157
85451W        W86315  28.136   7.147  26.099
85452W        W86316  28.331   5.812  27.576
85453W        W86317  26.736   4.004  28.313
85454W        W86318  26.839   5.192  28.952
85455W        W86319  26.327   6.358  26.322
85456W        W86320  28.208   5.847  26.479
85457W        W86321  26.127   4.538  28.199
85458W        W86322  27.458   6.717  26.677
85459W        W86323   0.153   5.097  26.847
85460W        W86324  27.233   3.880  28.472
85461W        W86325  28.241   6.418  27.597
85462W        W86326  28.450   6.837  27.386
85463W        W86327  27.673   6.618  25.814
85464W        W86328  25.682   6.288  28.749
85465W        W86329  26.471   4.660  27.818
85466W        W86330  26.472   3.953  27.015
85467W        W86331  27.880   4.742  27.624
85468W        W86332  27.032   5.907  25.805
85469W        W86333  28.766   5.779  27.303
85470W        W86334  26.089   6.598  28.586
85471W        W86335  28.476   7.218  26.490
85472W        W86336  26.751   4.309  26.732
85473W        W86337  26.241   5.621  27.109
85474W        W86338  26.754   7.324  27.899
85475W        W86339  28.826   7.202  28.707
85476W        W86340  27.835   5.663  27.718
85477W        W86341  25.773   5.022  25.687
85478W        W86342  28.821   6.845  26.515
85479W        W86343  28.577   4.272  26.019
85480W        W86344  26.872   3.516  28.368
85481W        W86345  28.626   6.576  26.926
85482W        W86346  28.597   5.084  26.865
85483W        W86347  26.697   4.774  26.950
85484W        W86348  26.931   4.917  28.409
85485W        W86349  28.052   6.170  28.362
85486W        W86350  26.636   4.511  28.283
85487W        W86351  26.722   7.147  26.984
85488W        W86352  26.179   7.160  28.752
85489W        W86353  26.460   6.604  25.775
85490W        W86354  28.650   6.063  26.708
85491W        W86355  26.401   4.975  28.342
85492W        W86356   0.063   4.896  25.948
85493W        W86357  26.797   6.096  26.237
85494W        W86358  27.637   5.263  28.323
85495W        W86359  27.671   5.171  27.809
85496W        W86360  26.331   5.419  28.042
85497W        W86361  28.405   7.151  27.994
85498W        W86362  28.212   3.961  28.890
85499W        W86363  25.931   3.988  28.551
85500W        W86364  26.377   5.128  27.606
85501W        W86365  26.792   4.938  25.675
85502W        W86366  25.669   6.509  28.262
85503W        W86367  26.968   5.322  27.574
85504W        W86368  26.964   4.429  25.764
85505W        W86369  26.292   5.409  26.513
85506W        W86370  25.776   7.194  27.952
85507W        W86371  28.481   5.354  25.969
85508W        W86372  28.672   4.093  28.596
85509W        W86373  28.215   6.358  26.672
85510W        W86374  25.776   5.242  28.892
85511W        W86375  28.623   3.748  25.959
85512W        W86376  28.238   6.257  26.154
85513W        W86377  27.110   5.186  26.219
85514W        W86378  28.371   4.047  25.594
85515W        W86379  28.318   4.863  27.865
85516W        W86380  26.031   5.170  27.226
85517W        W86381  26.646   6.252  26.729
85518W        W86382  28.146   4.834  26.779
85519W        W86383  27.193   4.374  27.522
85520W        W86384   0.010   6.261  28.004
85521W        W86385   0.000   4.185  27.494
85522W        W86386  25.598   6.944  27.103
85523W        W86387  25.816   6.230  26.431
85524W        W86388  26.043   3.839   0.056
85525W        W86389  27.160   6.659   0.134
85526W        W86390  28.907   5.575  26.855
85527W        W86391  28.231   5.804  25.876
85528W        W86392  27.665   7.289  28.017
85529W        W86393  28.239   5.999  28.957
85530W        W86394  27.095   3.643  26.250
85531W        W86395  27.934   4.562  27.153
85532W        W86396  25.662   6.113  27.414
85533W        W86397  26.899   4.162  26.242
85534W        W86398  26.645   5.716  28.870
85535W        W86399  27.668   4.644  26.707
85536W        W86400  27.877   6.161  27.879
85537W        W86401  26.088   6.785  28.091
85538W        W86402  26.660   6.649  28.944
85539W        W86403  26.472   4.611  25.955
85540W        W86404  27.999   4.597  26.265
85541W        W86405  27.849   6.602  28.571
85542W        W86406  26.593   5.247  27.148
85543W        W86407  26.296   7.140  27.791
85544W        W86408  28.910   7.093  25.607
85545W        W86409  25.789   5.727  28.661
85546W        W86410  27.930   6.070  27.372
85547W        W86411  26.240   5.931  26.689
85548W        W86412  26.662   6.795  27.971
85549W        W86413  27.118   4.085  27.046
85550W        W86414  25.531   5.921  26.018
85551W        W86415  27.283   4.909  25.793
85552W        W86416  25.851   5.417  26.816
85553W        W86417  27.121   4.356  28.266
85554W        W86418  28.890   4.047  25.643
85555W        W86419  28.849   5.667  28.742
85556W        W86420  27.624   6.879  28.990
85557W        W86421   0.004   6.115  28.500
85558W        W86422  28.481   6.705   0.133
85559W        W86423  26.330   7.363  27.346
85560W        W86424   0.082   5.910  26.465
85561W        W86425  27.598   5.211  26.901
85562W        W86426  27.372   3.859  26.635
85563W        W86427  26.511   6.755  26.685
85564W        W86428  26.986   4.679  27.900
85565W        W86429  26.813   3.870  27.398
85566W        W86430  25.836   7.163  25.849
85567W        W86431  27.530   6.140  26.571
85568W        W86432  26.512   6.866  28.467
85569W        W86433  25.851   5.717  26.397
85570W        W86434  25.918   4.254  27.244
85571W        W86435  27.115   6.183  27.160
85572W        W86436  25.681   4.086  26.345
85573W        W86437  28.096   5.281  28.099
85574W        W86438  28.203   4.533  25.759
85575W        W86439  28.724   6.210  27.577
85576W        W86440  27.308   6.655  27.318
85577W        W86441  26.729   6.674  26.229
85578W        W86442  27.931   3.744  25.595
85579W        W86443  25.917   7.035  27.481
85580W        W86444  27.629   4.763  28.913
85581W        W86445  25.920   4.359  28.997
85582W        W86446  25.746   4.948  26.568
85583W        W86447  26.578   5.097  26.133
85584W        W86448  27.936   5.179  28.756
85585W        W86449  26.529   5.626  27.558
85586W        W86450  27.880   3.829  26.754
85587W        W86451  27.170   7.142  27.247
85588W        W86452  28.181   6.621  28.133
85589W        W86453  28.072   6.574  27.132
85590W        W86454  27.941   5.976  26.877
85591W        W86455  27.379   4.069  26.056
85592W        W86456   0.046   3.731  26.684
85593W        W86457  26.588   5.515  25.804
85594W        W86458  28.883   4.643  26.765
85595W        W86459  27.530   5.763  25.793
85596W        W86460  28.502   5.985  28.508
85597W        W86461  28.204   6.685  25.838
85598W        W86462  26.822   4.288  28.750
85599W        W86463  26.725   5.106  27.973
85600W        W86464  28.675   6.489  28.328
85601W        W86465  27.872   4.478  28.524
85602W        W86466  25.611   4.953  28.401
85603W        W86467  27.339   5.564  27.853
85604W        W86468  25.759   5.961  26.881
85605W        W86469  25.932   5.364  27.688
85606W        W86470  28.202   5.766  28.078
85607W        W86471  28.109   6.958  28.851
85608W        W86472  27.881   4.822  28.147
85609W        W86473  28.125   6.940  26.771
85610W        W86474  27.173   6.668  28.189
85611W        W86475  26.671   6.972  27.462
85612W        W86476  28.436   6.197  28.001
85613W        W86477  27.393   6.197   0.119
85614W        W86478  26.135   6.105  27.204
85615W        W86479  28.390   5.689  26.952
85616W        W86480  28.058   6.912  27.713
85617W        W86481  26.279   6.656  27.621
85618W        W86482  27.106   4.715  28.841
85619W        W86483  27.728   7.092  26.420
85620W        W86484  26.910   6.182  28.933
85621W        W86485  27.084   6.422  26.508
85622W        W86486  26.289   5.042  25.680
85623W        W86487  25.563  10.883   3.511
85624W        W86488  25.982   9.819   2.759
85625W        W86489  28.587   9.519   0.790
85626W        W86490  28.951  10.573   2.679
85627W        W86491  26.741  10.633   0.337
85628W        W86492  26.731   8.776   1.167
85629W        W86493  26.353   8.481   1.443
85630W        W86494  27.206   9.451   0.770
85631W        W86495  27.144  10.551   3.135
85632W        W86496  25.603   8.059   2.915
85633W        W86497  26.123   7.352   2.820
85634W        W86498  28.042   7.695   1.847
85635W        W86499  27.782   8.477   0.502
85636W        W86500  28.298   8.023   3.372
85637W        W86501  25.715   7.615   2.603
85638W        W86502  25.849  10.474   3.413
85639W        W86503  27.098   9.858   0.468
85640W        W86504  25.659   8.452   1.989
85641W        W86505  26.742   8.571   3.115
85642W        W86506  28.902   8.251   1.804
85643W        W86507  28.824   9.392   2.676
85644W        W86508  27.176   8.828   1.571
85645W        W86509  27.805  10.108   2.035
85646W        W86510  26.324   9.548   2.057
85647W        W86511  25.538   9.022   1.904
85648W        W86512  26.761   9.071   2.990
85649W        W86513  28.821   8.727   3.258
85650W        W86514  26.399  10.164   1.679
85651W        W86515  27.631   9.940   2.746
85652W        W86516  27.012   8.552   1.962
85653W        W86517  26.943   9.275   1.665
85654W        W86518  27.829  10.237   3.525
85655W        W86519  27.190   9.378   3.532
85656W        W86520  27.267   9.210   2.994
85657W        W86521  25.163   8.276   3.248
85658W        W86522  28.299  10.011   3.322
85659W        W86523  26.027   7.513   1.142
85660W        W86524  26.460  10.013   2.255
85661W        W86525   0.032   9.751   1.658
85662W        W86526  28.503   7.900   1.933
85663W        W86527  28.749   8.052   0.234
85664W        W86528   0.117   8.886   2.495
85665W        W86529  27.111  10.492   2.212
85666W        W86530  28.881   9.940   0.814
85667W        W86531  26.041  10.938   0.662
85668W        W86532  26.325  10.785   1.063
85669W        W86533  26.226   7.583   2.380
85670W        W86534  28.742   8.602   2.710
85671W        W86535  28.125   8.954   1.380
85672W        W86536  28.126   8.687   0.157
85673W        W86537  27.372   9.980   2.257
85674W        W86538  27.373   8.360   1.662
85675W        W86539  27.750  10.372   2.504
85676W        W86540  28.665   9.099   1.069
85677W        W86541  27.641   7.783   1.092
85678W        W86542  26.294  10.451   0.656
85679W        W86543  25.696   7.864   1.274
85680W        W86544  28.407   8.418   1.866
85681W        W86545  25.840  10.164   1.669
85682W        W86546  27.125  10.366   0.593
85683W        W86547  28.596   8.500   0.025
85684W        W86548  25.587  10.231   2.115
85685W        W86549  26.494   9.945   2.782
85686W        W86550  26.617   9.289   1.263
85687W        W86551  26.666   7.781   2.078
85688W        W86552   0.070   7.322   1.760
85689W        W86553  26.120   9.194   0.164
85690W        W86554  26.021   8.310   0.541
85691W        W86555  26.051  10.049   1.223
85692W        W86556  26.995   9.649   1.252
85693W        W86557  28.498  10.521   2.969
85694W        W86558  27.452   8.170   0.798
85695W        W86559  28.660  10.763   1.530
85696W        W86560  28.347   8.631   3.033
85697W        W86561   0.098  10.080   1.266
85698W        W86562  27.750   9.439   2.836
85699W        W86563  25.411   8.969   1.194
85700W        W86564  26.599   9.541   2.474
85701W        W86565  27.796   8.652   0.975
85702W        W86566  27.644   9.104   1.132
85703W        W86567  25.976   8.482   2.402
85704W        W86568  26.025   8.407   2.927
85705W        W86569  25.866   7.447   1.612
85706W        W86570  27.680   7.718   2.240
85707W        W86571  27.411   7.902   3.322
85708W        W86572  27.928   7.740   0.525
85709W        W86573   0.002  10.499   3.184
85710W        W86574  27.837   7.420   3.140
85711W        W86575  28.800   9.851   3.462
85712W        W86576  28.337   7.963   2.859
85713W        W86577  28.031   7.952   1.394
85714W        W86578  28.464   9.016   3.511
85715W        W86579  26.125  10.581   1.497
85716W        W86580  26.955   8.318   0.817
85717W        W86581  26.370   7.639   3.180
85718W        W86582  28.476   8.264   1.001
85719W        W86583  28.805   8.644   0.883
85720W        W86584  26.760  10.871   3.181
85721W        W86585  26.634   7.313   0.715
85722W        W86586  28.870   7.760   1.604
85723W        W86587  28.924  10.216   0.383
85724W        W86588  25.854   9.419   1.895
85725W        W86589  27.894   7.827  28.948
85726W        W86590  28.975  10.196   1.899
85727W        W86591  28.881   7.446   2.416
85728W        W86592  27.539   8.784   3.151
85729W        W86593  27.523   9.911   0.760
85730W        W86594  28.039   9.227   3.714
85731W        W86595  27.614   7.384   1.844
85732W        W86596  26.105   8.270   1.864
85733W        W86597  26.092   9.402   2.487
85734W        W86598  27.719  10.514   1.536
85735W        W86599  28.584   8.186   2.355
85736W        W86600  27.590  10.658   2.916
85737W        W86601  28.668   9.426   0.263
85738W        W86602  27.122   9.138   1.166
85739W        W86603   0.027   7.426   2.904
85740W        W86604  27.311   9.573   2.585
85741W        W86605  27.557   8.190   2.111
85742W        W86606  28.297   8.753   0.923
85743W        W86607  28.479   8.445   0.522
85744W        W86608  28.455  10.152   0.982
85745W        W86609  28.504   9.795   1.734
85746W        W86610  27.949   8.969   0.576
85747W        W86611  27.461   9.257   1.607
85748W        W86612  28.422   8.956   1.850
85749W        W86613  25.843   7.990   2.267
85750W        W86614  28.566   9.087   2.995
85751W        W86615  28.960  10.648   2.136
85752W        W86616  26.881  10.134   1.484
85753W        W86617  28.072  10.739   2.726
85754W        W86618  27.731   8.102   2.593
85755W        W86619  27.134  10.866   2.688
85756W        W86620  28.701   7.786   1.097
85757W        W86621  28.688   9.091   2.288
85758W        W86622  25.454   8.273   2.409
85759W        W86623  28.501   8.099   1.476
85760W        W86624  28.711   8.253   3.103
85761W        W86625  27.717   9.932   1.542
85762W        W86626  27.082  10.559   1.240
85763W        W86627  26.105   7.782   0.504
85764W        W86628  27.184   7.514   2.143
85765W        W86629  26.232  10.681   0.204
85766W        W86630  26.484   9.094   0.785
85767W        W86631  27.353   9.688   3.121
85768W        W86632  27.195   8.004   1.275
85769W        W86633  28.400   7.569   1.478
85770W        W86634  28.143  10.811   1.702
85771W        W86635  27.591  10.587   2.048
85772W        W86636  27.003   9.551   2.139
85773W        W86637  28.735  10.236   2.370
85774W        W86638  26.493   7.672   1.053
85775W        W86639  26.914  10.054   2.003
85776W        W86640  26.581   8.033   0.090
85777W        W86641  27.265   8.457   2.422
85778W        W86642  28.061   7.350   2.229
85779W        W86643  25.605   9.330   2.349
85780W        W86644  27.111   8.933   0.221
85781W        W86645  26.532   7.559   0.277
85782W        W86646  27.282   8.622   1.100
85783W        W86647  28.000   7.632   2.661
85784W        W86648  26.886   9.581   2.908
85785W        W86649  27.655   9.260   3.351
85786W        W86650  28.139   9.322   3.191
85787W        W86651  27.441   7.527   3.680
85788W        W86652  26.604   8.230   1.827
85789W        W86653  26.215   7.952   1.446
85790W        W86654  25.899  10.497   0.990
85791W        W86655  27.477  10.178   3.165
85792W        W86656  26.125   9.444   0.626
85793W        W86657  27.902   9.098   1.840
85794W        W86658  28.058   8.672   2.142
85795W        W86659  27.537   9.453   2.107
85796W        W86660  27.793   9.736   0.314
85797W        W86661  27.593   7.890   1.660
85798W        W86662  28.947   8.138   0.809
85799W        W86663  25.822  10.558   2.899
85800W        W86664  25.917   9.848   2.230
85801W        W86665  25.519  10.846   0.863
85802W        W86666  27.217   7.937   2.448
85803W        W86667  26.665  10.140   0.437
85804W        W86668  28.591  10.561   0.647
85805W        W86669  27.435   8.950   0.672
85806W        W86670  26.588   8.162   1.127
85807W        W86671  27.564   8.056   0.291
85808W        W86672  27.847   9.764   3.253
85809W        W86673  28.179   7.656   1.005
85810W        W86674  25.668   7.438   0.327
85811W        W86675  26.933   9.937   2.512
85812W        W86676  26.679   9.701   1.716
85813W        W86677  26.441   9.693   0.314
85814W        W86678  25.491  10.247   0.754
85815W        W86679  26.302   8.836   3.025
85816W        W86680  26.878   7.617   3.402
85817W        W86681  27.510   7.648   2.766
85818W        W86682  26.862   7.371   1.268
85819W        W86683  27.785   7.338   0.871
85820W        W86684  25.776   7.513   2.111
85821W        W86685  25.848   8.339   1.403
85822W        W86686  28.584   7.383   1.967
85823W        W86687  26.102   8.021   0.960
85824W        W86688  28.424   7.686   2.385
85825W        W86689  28.870   8.917   0.152
85826W        W86690  26.181   7.763   1.909
85827W        W86691  27.395   8.277   2.951
85828W        W86692  25.628   7.972   0.363
85829W        W86693  26.380   9.436   2.926
85830W        W86694  27.550   8.709   2.018
85831W        W86695  27.427  10.745   0.399
85832W        W86696  25.657   9.376   0.381
85833W        W86697  26.563   9.915   3.291
85834W        W86698  25.943   8.923   2.676
85835W        W86699  26.966   9.201   2.541
85836W        W86700  28.494   7.426   2.836
85837W        W86701   0.094   9.071   2.973
85838W        W86702  28.932   9.152   0.608
85839W        W86703  27.721   9.413   0.722
85840W        W86704  28.428  10.856   0.250
85841W        W86705  27.596   8.801   3.692
85842W        W86706  26.077   9.724   3.253
85843W        W86707   0.216   7.824   3.448
85844W        W86708  28.794   8.607   2.177
85845W        W86709  27.096  10.803   3.585
85846W        W86710  27.021   7.468   0.408
85847W        W86711  28.461   9.909   0.471
85848W        W86712  26.488   8.123   3.025
85849W        W86713  26.969  10.080   3.016
85850W        W86714  28.803   7.871   2.691
85851W        W86715  28.188  10.929   0.688
85852W        W86716  28.368   9.481   2.186
85853W        W86717  26.627   7.826   2.606
85854W        W86718  27.095   8.879   3.380
85855W        W86719  26.303   9.939   0.777
85856W        W86720  28.161   9.271   0.977
85857W        W86721  26.102   7.910   2.765
85858W        W86722  27.325  10.090   1.229
85859W        W86723   0.095   8.791   1.313
85860W        W86724  27.313   7.420   3.181
85861W        W86725  28.306  10.015   2.146
85862W        W86726  28.535  10.458   1.932
85863W        W86727  27.524  10.212   0.316
85864W        W86728  25.656  10.068   3.110
85865W        W86729  26.325   8.110   2.303
85866W        W86730  26.385   7.452   1.521
85867W        W86731  28.080   8.081   2.193
85868W        W86732  26.877   9.384   0.366
85869W        W86733  28.764   9.360   1.866
85870W        W86734  26.167  10.208   3.093
85871W        W86735  28.557  10.949   1.049
85872W        W86736  26.737   7.838   1.520
85873W        W86737  26.295   9.201   1.673
85874W        W86738  26.773  10.896   2.280
85875W        W86739  28.691  10.865   3.299
85876W        W86740  27.935   9.164   2.355
85877W        W86741  25.855   8.898   0.501
85878W        W86742  28.857  10.514   1.103
85879W        W86743  28.438   7.911   0.638
85880W        W86744  26.648   7.350   2.842
85881W        W86745  28.644  10.223   1.478
85882W        W86746  28.581   8.700   1.408
85883W        W86747  26.908   8.394   1.455
85884W        W86748  27.138   8.740   2.829
85885W        W86749  28.128   9.834   2.851
85886W        W86750  26.923   8.249   2.768
85887W        W86751  26.647  10.670   1.548
85888W        W86752  26.009  10.947   3.220
85889W        W86753  26.170  10.157   0.203
85890W        W86754  28.707   9.732   1.253
85891W        W86755  26.458   8.489   2.647
85892W        W86756   0.003   8.482   0.423
85893W        W86757  26.686   9.584   0.806
85894W        W86758  27.939   8.963   2.873
85895W        W86759  27.730   8.626   2.540
85896W        W86760  26.444   9.029   2.562
85897W        W86761  28.509  10.724   2.436
85898W        W86762  28.298   7.501   3.342
85899W        W86763  25.796   7.608   3.106
85900W        W86764  26.413   8.625   2.121
85901W        W86765  26.749   8.464   0.343
85902W        W86766  25.628  10.162   2.608
85903W        W86767  27.168   9.049   2.077
85904W        W86768  27.044   8.004   0.377
85905W        W86769  26.222   8.932   1.213
85906W        W86770  25.781  10.646   2.389
85907W        W86771  28.462   8.973   0.475
85908W        W86772  28.737   7.751   3.191
85909W        W86773  28.202   9.847   1.328
85910W        W86774  25.781   8.890   3.169
85911W        W86775  28.729   7.483   0.564
85912W        W86776  28.074   9.787   0.826
85913W        W86777  26.929   8.833   0.695
85914W        W86778  28.351   7.712   0.173
85915W        W86779  28.184   8.384   2.598
85916W        W86780  25.992   8.756   1.709
85917W        W86781  26.515   9.816   1.244
85918W        W86782  28.130   8.450   1.323
85919W        W86783  27.098   8.013   1.914
85920W        W86784   0.083   9.827   2.566
85921W        W86785  28.974   7.887   2.161
85922W        W86786  25.620  10.615   1.398
85923W        W86787  25.787   9.775   0.872
85924W        W86788  25.905   7.593   3.625
85925W        W86789  27.306  10.314   3.628
85926W        W86790  28.985   9.288   1.422
85927W        W86791  28.196   9.426   0.482
85928W        W86792  27.639  10.896   2.460
85929W        W86793  28.416   9.539   3.563
85930W        W86794  27.147   7.235   0.832
85931W        W86795  27.897   8.323   1.756
85932W        W86796  25.510   9.789   1.837
85933W        W86797  26.966   7.762   0.861
85934W        W86798  26.694   9.420   3.363
85935W        W86799  27.651   8.264   1.264
85936W        W86800  27.927   9.704   2.388
85937W        W86801  26.134  10.272   2.578
85938W        W86802  26.812  10.360   3.486
85939W        W86803  26.555   8.021   0.621
85940W        W86804  27.986   8.145   0.869
85941W        W86805  27.961  10.298   3.013
85942W        W86806  26.659   8.821   1.685
85943W        W86807  26.309  10.707   2.397
85944W        W86808  28.904  10.684   0.168
85945W        W86809  25.859   9.355   2.953
85946W        W86810  28.006   9.652   1.871
85947W        W86811  26.144   9.470   1.146
85948W        W86812  26.714  10.415   2.572
85949W        W86813  27.180   7.596   1.624
85950W        W86814  25.358   9.780   0.572
85951W        W86815  27.270   8.494   0.437
85952W        W86816  25.819   9.159   1.442
85953W        W86817  27.025   7.751   2.915
85954W        W86818  28.848   7.553   0.084
85955W        W86819  28.885   9.288   3.385
85956W        W86820  27.604  10.696   3.438
85957W        W86821   0.077   9.651   3.053
85958W        W86822  28.623  10.358   3.506
85959W        W86823  26.256  10.868   1.916
85960W        W86824   0.080   9.489   0.967
85961W        W86825  27.681   8.737   1.498
85962W        W86826  27.408   7.329   1.260
85963W        W86827  26.480  10.319   1.186
85964W        W86828  26.810   8.230   2.291
85965W        W86829  26.783   7.352   1.834
85966W        W86830  25.774  10.554   0.474
85967W        W86831  27.497   9.595   1.186
85968W        W86832  26.345  10.653   2.905
85969W        W86833  25.749   9.226   0.907
85970W        W86834  25.700   7.951   1.771
85971W        W86835  27.238   9.729   1.704
85972W        W86836  25.687   7.675   0.794
85973W        W86837  28.325   8.870   2.555
85974W        W86838  28.116   8.161   0.294
85975W        W86839  28.803   9.777   2.143
85976W        W86840  27.339  10.231   1.765
85977W        W86841  26.751  10.579   0.850
85978W        W86842  27.946   7.351   0.163
85979W        W86843  25.755  10.681   1.879
85980W        W86844  27.861   8.331   3.517
85981W        W86845  26.033   8.022   3.294
85982W        W86846  25.806   8.672   0.983
85983W        W86847  26.453   8.546   0.777
85984W        W86848  28.006   8.825   3.374
85985W        W86849  26.648   9.142   2.098
85986W        W86850  27.882   7.461   1.405
85987W        W86851  27.161  10.720   1.730
85988W        W86852  28.262  10.265   2.589
85989W        W86853  28.151  10.234   1.677
85990W        W86854  27.920   9.428   1.421
85991W        W86855  27.430   7.662   0.639
85992W        W86856   0.020   7.369   1.246
85993W        W86857  26.586   8.959   0.276
85994W        W86858  28.905   8.324   1.287
85995W        W86859  27.429   9.343   0.291
85996W        W86860  28.556   9.612   3.066
85997W        W86861  27.980  10.535   0.402
85998W        W86862  26.953   8.122   3.264
85999W        W86863  26.836   8.736   2.403
86000W        W86864  28.788  10.081   2.953
86001W        W86865  27.858   7.934   3.066
86002W        W86866  25.543   8.569   2.818
86003W        W86867  27.461   9.064   2.530
86004W        W86868  25.717   9.660   1.385
86005W        W86869  26.038   9.000   2.164
86006W        W86870  28.270   9.371   2.685
86007W        W86871  28.153  10.650   3.354
86008W        W86872  27.881   8.439   3.008
86009W        W86873  28.267  10.557   1.260
86010W        W86874  27.263  10.323   2.674
86011W        W86875  26.612  10.477   2.034
86012W        W86876  28.543   9.807   2.575
86013W        W86877  27.524   9.780   3.631
86014W        W86878  26.162   9.718   1.610
86015W        W86879  28.434   9.351   1.467
86016W        W86880  28.096  10.525   2.162
86017W        W86881  26.104  10.355   2.069
86018W        W86882  27.340   8.406   3.464
86019W        W86883  27.508  10.498   0.913
86020W        W86884  27.042   9.883   3.492
86021W        W86885  26.872  10.064   0.937
86022W        W86886  26.194   8.636   0.181
86023W        W86887  25.692  10.988   6.875
86024W        W86888  25.861   9.915   6.341
86025W        W86889  28.707   9.573   4.334
86026W        W86890  28.955  10.677   6.313
86027W        W86891  26.915  10.599   4.020
86028W        W86892  26.946   8.718   4.942
86029W        W86893  26.624   8.378   5.174
86030W        W86894  27.442   9.339   4.447
86031W        W86895  27.116  10.571   6.747
86032W        W86896  25.667   8.013   6.665
86033W        W86897  26.214   7.084   6.568
86034W        W86898  28.178   7.645   5.275
86035W        W86899  27.773   8.435   4.043
86036W        W86900  28.324   8.132   7.067
86037W        W86901  25.777   7.666   6.254
86038W        W86902  25.816  10.549   7.100
86039W        W86903  27.278   9.652   4.053
86040W        W86904  25.697   8.310   5.690
86041W        W86905  26.864   8.559   6.909
86042W        W86906  28.970   8.079   5.331
86043W        W86907  28.765   9.417   6.229
86044W        W86908  27.366   8.769   5.253
86045W        W86909  27.813  10.123   5.698
86046W        W86910  26.178   9.460   5.860
86047W        W86911  25.511   8.777   5.523
86048W        W86912  26.649   9.142   6.472
86049W        W86913  28.757   8.857   6.884
86050W        W86914  26.431  10.139   5.394
86051W        W86915  27.586   9.934   6.385
86052W        W86916  27.143   8.412   5.610
86053W        W86917  27.203   9.253   5.422
86054W        W86918  27.908  10.196   7.106
86055W        W86919  27.290   9.347   7.158
86056W        W86920  27.146   9.235   6.612
86057W        W86921  25.332   8.378   7.071
86058W        W86922  28.379  10.272   6.892
86059W        W86923  26.007   7.497   4.730
86060W        W86924  26.420   9.958   5.930
86061W        W86925   0.032   9.748   5.225
86062W        W86926  28.493   7.963   5.534
86063W        W86927  28.754   8.088   3.622
86064W        W86928  28.963   8.904   6.157
86065W        W86929  27.138  10.494   5.861
86066W        W86930  28.835  10.073   4.361
86067W        W86931  26.082  10.969   4.306
86068W        W86932  26.406  10.933   4.719
86069W        W86933  26.254   7.516   6.295
86070W        W86934  28.702   8.481   6.337
86071W        W86935  28.241   8.987   4.886
86072W        W86936  28.141   8.744   3.881
86073W        W86937  27.352   9.994   5.937
86074W        W86938  27.613   8.289   5.345
86075W        W86939  27.712  10.378   6.137
86076W        W86940  28.692   9.163   4.639
86077W        W86941  27.721   7.749   4.560
86078W        W86942  26.234  10.501   4.491
86079W        W86943  25.698   7.853   4.918
86080W        W86944  28.610   8.451   5.309
86081W        W86945  25.904  10.229   5.422
86082W        W86946  27.250  10.390   4.376
86083W        W86947  28.426   8.497   3.521
86084W        W86948  25.721  10.372   5.923
86085W        W86949  26.449   9.956   6.454
86086W        W86950  26.749   9.311   5.205
86087W        W86951  26.583   7.714   5.947
86088W        W86952   0.149   7.314   5.291
86089W        W86953  26.178   9.217   3.347
86090W        W86954  26.099   8.016   3.829
86091W        W86955  25.949  10.298   4.916
86092W        W86956  27.044   9.755   5.288
86093W        W86957  28.518  10.675   6.603
86094W        W86958  27.473   8.153   4.355
86095W        W86959  28.678  10.634   5.098
86096W        W86960  28.320   8.585   6.731
86097W        W86961   0.169  10.010   4.795
86098W        W86962  27.755   9.451   6.318
86099W        W86963  25.512   9.010   4.617
86100W        W86964  26.639   9.517   6.106
86101W        W86965  27.895   8.651   4.522
86102W        W86966  27.739   9.085   4.781
86103W        W86967  26.111   8.508   5.961
86104W        W86968  25.950   8.586   6.431
86105W        W86969  25.995   7.380   5.270
86106W        W86970  27.814   7.861   5.583
86107W        W86971  27.498   7.840   6.848
86108W        W86972  27.879   7.780   4.070
86109W        W86973  28.990  10.612   6.827
86110W        W86974  27.836   7.396   6.837
86111W        W86975  28.720   9.867   7.024
86112W        W86976  28.423   8.060   6.557
86113W        W86977  28.141   7.866   4.801
86114W        W86978  28.436   9.135   7.180
86115W        W86979  26.228  10.630   5.245
86116W        W86980  27.034   8.328   4.592
86117W        W86981  26.362   7.514   6.804
86118W        W86982  28.580   8.267   4.518
86119W        W86983  28.920   8.638   4.382
86120W        W86984  26.753  10.936   6.830
86121W        W86985  26.454   7.236   4.204
86122W        W86986  28.754   7.613   5.164
86123W        W86987   0.066  10.156   3.861
86124W        W86988  25.747   9.412   5.560
86125W        W86989  27.883   7.782   3.553
86126W        W86990   0.021  10.318   5.525
86127W        W86991  28.975   7.455   6.106
86128W        W86992  27.611   8.604   6.548
86129W        W86993  27.377   9.872   4.503
86130W        W86994  27.817   9.428   7.225
86131W        W86995  27.714   7.385   5.389
86132W        W86996  26.194   8.278   5.488
86133W        W86997  25.668   9.525   6.063
86134W        W86998  27.685  10.463   5.179
86135W        W86999  28.882   8.124   5.838
86136W        W87000  27.592  10.654   6.557
86137W        W87001  28.837   9.483   3.851
86138W        W87002  27.229   9.126   4.891
86139W        W87003   0.093   7.581   6.594
86140W        W87004  27.247   9.578   6.256
86141W        W87005  27.550   8.210   5.853
86142W        W87006  28.387   8.759   4.419
86143W        W87007  28.592   8.494   4.012
86144W        W87008  28.502  10.284   4.721
86145W        W87009  28.317   9.762   5.388
86146W        W87010  27.993   9.114   4.248
86147W        W87011  27.711   9.215   5.406
86148W        W87012  28.616   8.964   5.274
86149W        W87013  26.100   7.989   5.908
86150W        W87014  28.527   8.988   6.438
86151W        W87015  28.948  10.771   5.774
86152W        W87016  26.910  10.252   5.194
86153W        W87017  28.064  10.754   6.344
86154W        W87018  27.929   7.937   6.083
86155W        W87019  27.160  10.830   6.285
86156W        W87020  28.703   7.738   4.594
86157W        W87021  28.548   9.083   5.880
86158W        W87022  25.713   8.183   6.190
86159W        W87023  28.557   8.047   5.004
86160W        W87024  28.764   8.335   6.827
86161W        W87025  27.812   9.915   5.225
86162W        W87026  27.194  10.579   4.867
86163W        W87027  26.076   7.579   4.133
86164W        W87028  27.276   7.328   5.681
86165W        W87029  26.058  10.894   3.750
86166W        W87030  26.721   9.142   4.725
86167W        W87031  27.316   9.696   6.760
86168W        W87032  27.268   7.891   4.786
86169W        W87033  28.387   7.416   4.869
86170W        W87034  28.067  10.770   5.395
86171W        W87035  27.618  10.623   5.676
86172W        W87036  27.038   9.584   5.788
86173W        W87037  28.758  10.317   5.999
86174W        W87038  26.470   7.611   4.533
86175W        W87039  26.877  10.074   5.685
86176W        W87040  26.531   7.990   3.538
86177W        W87041  27.271   8.509   6.139
86178W        W87042  28.098   7.459   5.763
86179W        W87043  25.412   9.120   5.876
86180W        W87044  27.131   9.005   3.910
86181W        W87045  26.419   7.486   3.688
86182W        W87046  27.429   8.642   4.749
86183W        W87047  28.139   7.530   6.280
86184W        W87048  26.821   9.622   6.588
86185W        W87049  27.621   9.240   6.769
86186W        W87050  28.115   9.302   6.802
86187W        W87051  27.505   7.488   7.238
86188W        W87052  26.711   8.115   5.610
86189W        W87053  26.180   7.996   5.052
86190W        W87054  25.932  10.781   4.811
86191W        W87055  27.479  10.196   6.807
86192W        W87056  26.572   9.651   4.559
86193W        W87057  28.233   9.254   5.472
86194W        W87058  28.262   8.750   5.574
86195W        W87059  27.501   9.329   5.876
86196W        W87060  28.032   9.834   3.755
86197W        W87061  27.690   7.810   5.090
86198W        W87062   0.067   8.125   4.397
86199W        W87063  25.841  10.616   6.547
86200W        W87064  25.928   9.912   5.829
86201W        W87065  25.609  11.006   4.490
86202W        W87066  27.470   7.709   5.954
86203W        W87067  27.016  10.087   3.998
86204W        W87068  28.657  10.496   4.119
86205W        W87069  27.532   8.866   4.228
86206W        W87070  26.603   8.060   4.737
86207W        W87071  27.519   8.046   3.819
86208W        W87072  27.822   9.753   6.813
86209W        W87073  28.251   7.560   4.364
86210W        W87074  25.601   7.342   3.989
86211W        W87075  26.900   9.951   6.190
86212W        W87076  26.586   9.655   5.553
86213W        W87077  26.814   9.584   3.849
86214W        W87078  25.699  10.473   4.463
86215W        W87079  26.164   9.024   6.615
86216W        W87080  26.834   7.429   6.953
86217W        W87081  27.630   7.571   6.412
86218W        W87082  26.887   7.486   4.813
86219W        W87083  27.757   7.304   4.281
86220W        W87084  26.016   7.501   5.825
86221W        W87085  25.730   8.286   5.186
86222W        W87086  28.572   7.360   5.575
86223W        W87087  26.104   7.974   4.533
86224W        W87088  28.534   7.686   5.976
86225W        W87089  28.905   8.871   3.769
86226W        W87090  26.346   7.772   5.496
86227W        W87091  27.523   8.102   6.378
86228W        W87092  25.467   7.852   3.932
86229W        W87093  26.207   9.485   6.371
86230W        W87094  27.753   8.735   5.580
86231W        W87095  27.464  10.683   3.960
86232W        W87096  25.420   9.042   3.599
86233W        W87097  26.534   9.949   6.972
86234W        W87098  25.831   9.074   6.229
86235W        W87099  27.010   9.149   6.100
86236W        W87100  28.600   7.507   6.480
86237W        W87101   0.014   9.185   6.596
86238W        W87102  28.986   9.150   4.217
86239W        W87103  27.794   9.646   4.198
86240W        W87104  28.459  10.812   3.750
86241W        W87105  27.607   8.974   7.326
86242W        W87106  26.074   9.790   6.788
86243W        W87107   0.240   7.968   7.114
86244W        W87108  28.707   8.598   5.809
86245W        W87109  27.078  10.795   7.200
86246W        W87110  26.921   7.486   3.909
86247W        W87111  28.566   9.947   3.912
86248W        W87112  26.519   8.208   6.741
86249W        W87113  26.963  10.090   6.714
86250W        W87114  28.844   7.945   6.310
86251W        W87115  28.210  10.817   4.198
86252W        W87116  28.407   9.568   5.855
86253W        W87117  26.645   7.798   6.461
86254W        W87118  27.325   8.839   6.901
86255W        W87119  26.595  10.147   4.335
86256W        W87120  28.248   9.441   4.586
86257W        W87121  26.150   8.021   6.423
86258W        W87122  27.366  10.065   4.987
86259W        W87123   0.107   8.732   5.138
86260W        W87124  27.296   7.372   6.757
86261W        W87125  28.323  10.091   5.788
86262W        W87126  28.537  10.516   5.578
86263W        W87127  27.562  10.109   4.033
86264W        W87128  25.669  10.126   6.809
86265W        W87129  26.545   8.212   6.105
86266W        W87130  26.439   7.545   5.053
86267W        W87131  28.035   8.319   5.732
86268W        W87132  26.948   9.353   4.311
86269W        W87133  28.737   9.415   5.497
86270W        W87134  26.182  10.298   6.776
86271W        W87135  28.580  10.797   4.575
86272W        W87136  26.849   7.891   5.148
86273W        W87137  26.240   9.212   5.422
86274W        W87138  26.766  10.862   5.960
86275W        W87139  28.686  10.987   6.997
86276W        W87140  27.994   9.113   5.922
86277W        W87141  25.662   8.409   3.309
86278W        W87142  28.966  10.470   4.702
86279W        W87143  28.642   7.969   4.114
86280W        W87144  26.714   7.230   6.477
86281W        W87145  28.659  10.118   5.206
86282W        W87146  28.679   8.703   4.841
86283W        W87147  27.168   8.291   5.102
86284W        W87148  27.011   8.771   6.472
86285W        W87149  28.288   9.847   6.626
86286W        W87150  26.945   8.249   6.448
86287W        W87151  26.728  10.727   5.080
86288W        W87152  26.284  10.776   6.990
86289W        W87153  26.358  10.608   3.417
86290W        W87154  28.707   9.802   4.789
86291W        W87155  26.500   8.630   6.413
86292W        W87156   0.100   8.410   3.926
86293W        W87157  27.027   9.586   4.792
86294W        W87158  27.984   8.961   6.431
86295W        W87159  27.764   8.643   6.066
86296W        W87160  26.337   9.005   6.082
86297W        W87161  28.503  10.810   6.061
86298W        W87162  28.310   7.573   6.931
86299W        W87163  25.848   7.521   6.756
86300W        W87164  26.408   8.742   5.613
86301W        W87165  26.836   8.470   3.624
86302W        W87166  25.489  10.297   6.362
86303W        W87167  27.296   8.872   5.775
86304W        W87168  27.015   7.980   3.768
86305W        W87169  26.469   8.877   5.106
86306W        W87170  25.772  10.994   6.173
86307W        W87171  28.510   9.076   4.033
86308W        W87172  28.761   7.831   6.883
86309W        W87173  28.219   9.895   4.902
86310W        W87174  25.624   8.939   6.681
86311W        W87175  28.735   7.458   4.138
86312W        W87176  28.325   9.929   4.382
86313W        W87177  27.064   8.854   4.445
86314W        W87178  28.335   7.679   3.826
86315W        W87179  28.408   8.176   6.047
86316W        W87180  25.988   8.723   5.296
86317W        W87181  26.606   9.803   5.048
86318W        W87182  28.237   8.438   4.841
86319W        W87183  27.265   7.916   5.506
86320W        W87184   0.066   9.903   6.144
86321W        W87185  28.963   7.671   5.637
86322W        W87186  25.686  10.651   5.229
86323W        W87187  26.146   9.847   4.828
86324W        W87188  25.898   7.559   7.326
86325W        W87189  27.160  10.285   7.188
86326W        W87190   0.007   9.239   5.083
86327W        W87191  28.281   9.522   4.066
86328W        W87192  27.647  10.934   6.116
86329W        W87193  28.252   9.691   7.125
86330W        W87194  26.961   7.253   4.362
86331W        W87195  28.096   8.160   5.241
86332W        W87196  25.537   9.884   5.509
86333W        W87197  26.937   7.807   4.395
86334W        W87198  26.846   9.082   6.985
86335W        W87199  27.742   8.231   4.811
86336W        W87200  28.039   9.883   6.159
86337W        W87201  26.147  10.318   6.246
86338W        W87202  26.688  10.445   7.000
86339W        W87203  26.543   7.822   4.055
86340W        W87204  28.066   8.165   4.388
86341W        W87205  27.942  10.241   6.587
86342W        W87206  26.885   8.821   5.434
86343W        W87207  26.257  10.799   6.116
86344W        W87208  28.967  10.666   3.724
86345W        W87209  25.744   9.446   6.579
86346W        W87210  27.927   9.607   5.718
86347W        W87211  26.296   9.375   4.946
86348W        W87212  26.655  10.385   6.078
86349W        W87213  27.251   7.532   5.170
86350W        W87214  25.657   9.945   4.632
86351W        W87215  27.251   8.481   3.982
86352W        W87216  25.804   9.164   5.091
86353W        W87217  27.147   7.727   6.385
86354W        W87218  28.827   7.559   3.655
86355W        W87219  28.929   9.345   7.079
86356W        W87220  27.555  10.652   7.073
86357W        W87221   0.020   9.721   6.633
86358W        W87222  28.781  10.351   7.212
86359W        W87223  26.351  10.960   5.639
86360W        W87224   0.124   9.508   4.660
86361W        W87225  27.855   8.675   5.080
86362W        W87226  27.374   7.384   4.666
86363W        W87227  26.480  10.294   4.894
86364W        W87228  27.058   8.043   5.984
86365W        W87229  26.837   7.548   5.516
86366W        W87230  25.632  10.772   4.020
86367W        W87231  27.485   9.545   5.034
86368W        W87232  26.511  10.607   6.524
86369W        W87233  25.849   9.442   4.647
86370W        W87234  25.844   7.853   5.451
86371W        W87235  27.474   9.701   5.531
86372W        W87236  25.665   7.734   4.407
86373W        W87237  28.277   8.683   6.094
86374W        W87238  28.200   8.174   3.876
86375W        W87239  28.780   9.888   5.690
86376W        W87240  27.345  10.204   5.475
86377W        W87241  26.779  10.583   4.557
86378W        W87242  27.943   7.315   3.771
86379W        W87243  25.871  10.789   5.687
86380W        W87244  27.844   8.290   6.902
86381W        W87245  26.109   7.939   6.936
86382W        W87246  25.710   8.320   4.657
86383W        W87247  26.550   8.580   4.667
86384W        W87248  27.893   8.819   6.930
86385W        W87249  26.672   9.181   5.718
86386W        W87250  27.875   7.354   4.893
86387W        W87251  27.178  10.687   5.368
86388W        W87252  28.327  10.322   6.272
86389W        W87253  28.170  10.269   5.313
86390W        W87254  27.998   9.452   5.053
86391W        W87255  27.371   7.647   4.179
86392W        W87256   0.004   7.306   4.779
86393W        W87257  26.586   8.914   3.468
86394W        W87258  28.970   8.304   4.868
86395W        W87259  27.574   9.277   3.898
86396W        W87260  28.588   9.443   6.722
86397W        W87261  28.223  10.352   3.839
86398W        W87262  26.990   7.907   6.839
86399W        W87263  26.802   8.681   5.963
86400W        W87264  28.772  10.200   6.559
86401W        W87265  27.967   7.872   6.631
86402W        W87266  25.443   8.485   6.542
86403W        W87267  27.471   9.013   6.282
86404W        W87268  25.704   9.682   5.083
86405W        W87269  25.932   8.960   5.751
86406W        W87270  28.258   9.413   6.312
86407W        W87271  28.041  10.674   6.849
86408W        W87272  28.020   8.337   6.391
86409W        W87273  28.167  10.620   4.914
86410W        W87274  27.240  10.312   6.333
86411W        W87275  26.697  10.552   5.563
86412W        W87276  28.567   9.881   6.209
86413W        W87277  27.502   9.862   7.224
86414W        W87278  26.119   9.728   5.365
86415W        W87279  28.507   9.418   5.045
86416W        W87280  28.101  10.552   5.857
86417W        W87281  26.235  10.433   5.757
86418W        W87282  27.307   8.313   6.818
86419W        W87283  27.679  10.617   4.675
86420W        W87284  26.993   9.787   7.153
86421W        W87285  26.936  10.094   4.707
86422W        W87286  26.312   8.455   3.387
86423W        W87287  25.530  11.006  10.716
86424W        W87288  26.019   9.848  10.255
86425W        W87289  28.710   9.521   8.060
86426W        W87290  28.952  10.647   9.910
86427W        W87291  26.626  10.668   7.469
86428W        W87292  27.182   8.581   8.664
86429W        W87293  26.405   8.037   8.841
86430W        W87294  27.563   9.274   8.166
86431W        W87295  27.052  10.588  10.396
86432W        W87296  25.587   8.047  10.365
86433W        W87297  26.211   7.408  10.082
86434W        W87298  28.182   7.785   8.989
86435W        W87299  27.684   8.622   7.746
86436W        W87300  28.181   8.229  10.677
86437W        W87301  25.756   7.689   9.956
86438W        W87302  25.761  10.560  10.819
86439W        W87303  27.197   9.999   7.631
86440W        W87304  25.692   8.394   9.425
86441W        W87305  26.689   8.574  10.608
86442W        W87306  28.860   8.401   9.027
86443W        W87307  28.801   9.406   9.947
86444W        W87308  27.371   8.809   9.083
86445W        W87309  27.764  10.197   9.377
86446W        W87310  26.160   9.428   9.471
86447W        W87311  25.338   8.758   9.263
86448W        W87312  26.662   8.999  10.330
86449W        W87313  28.765   8.790  10.595
86450W        W87314  26.482  10.303   9.018
86451W        W87315  27.638   9.927  10.126
86452W        W87316  27.068   8.474   9.355
86453W        W87317  27.201   9.298   9.126
86454W        W87318  27.831  10.253  10.849
86455W        W87319  27.229   9.398  10.864
86456W        W87320  27.142   9.225  10.375
86457W        W87321  25.517   8.402  10.739
86458W        W87322  28.302  10.058  10.649
86459W        W87323  25.849   7.331   8.502
86460W        W87324  26.586   9.954   9.542
86461W        W87325   0.086   9.764   8.931
86462W        W87326  28.540   8.037   9.258
86463W        W87327  28.788   8.127   7.311
86464W        W87328   0.001   8.936   9.749
86465W        W87329  27.361  10.499   9.559
86466W        W87330  28.984   9.973   8.053
86467W        W87331  26.033  10.986   7.994
86468W        W87332  26.378  10.828   8.366
86469W        W87333  26.378   7.573   9.627
86470W        W87334  28.735   8.611  10.049
86471W        W87335  28.241   8.886   8.620
86472W        W87336  28.072   8.744   7.420
86473W        W87337  27.442   9.901   9.645
86474W        W87338  27.406   8.113   8.793
86475W        W87339  27.772  10.351   9.862
86476W        W87340  28.754   9.049   8.379
86477W        W87341  27.838   7.629   8.144
86478W        W87342  26.124  10.476   8.077
86479W        W87343  25.403   7.893   8.811
86480W        W87344  28.344   8.474   8.998
86481W        W87345  25.940  10.298   9.066
86482W        W87346  27.081  10.517   7.662
86483W        W87347  28.537   8.583   7.250
86484W        W87348  25.743  10.306   9.553
86485W        W87349  26.478  10.038  10.054
86486W        W87350  26.651   9.372   9.025
86487W        W87351  26.888   7.656   9.713
86488W        W87352   0.177   7.338   8.932
86489W        W87353  26.435   9.424   6.851
86490W        W87354  25.678   8.027   7.195
86491W        W87355  26.100  10.281   8.568
86492W        W87356  26.817   9.916   8.433
86493W        W87357  28.438  10.481  10.364
86494W        W87358  27.617   8.075   7.886
86495W        W87359  28.756  10.793   8.756
86496W        W87360  28.318   8.638  10.363
86497W        W87361   0.180  10.090   8.512
86498W        W87362  27.776   9.445  10.014
86499W        W87363  25.327   8.965   8.408
86500W        W87364  26.508   9.550   9.847
86501W        W87365  27.920   8.843   8.210
86502W        W87366  27.976   9.307   8.485
86503W        W87367  25.983   8.513   9.839
86504W        W87368  25.986   8.495  10.491
86505W        W87369  25.828   7.409   8.999
86506W        W87370  27.660   7.870   9.215
86507W        W87371  27.364   7.878  10.556
86508W        W87372  27.896   7.740   7.638
86509W        W87373  28.953  10.535  10.405
86510W        W87374  27.758   7.486  10.550
86511W        W87375  28.748   9.794  10.805
86512W        W87376  28.301   8.146  10.177
86513W        W87377  28.203   7.840   8.461
86514W        W87378  28.433   9.129  10.782
86515W        W87379  26.187  10.692   8.847
86516W        W87380  27.134   7.858   7.851
86517W        W87381  26.435   7.647  10.562
86518W        W87382  28.583   8.227   8.167
86519W        W87383  28.950   8.624   8.165
86520W        W87384  26.625  10.856  10.593
86521W        W87385  26.411   7.321   7.848
86522W        W87386  28.998   7.758   8.702
86523W        W87387   0.226  10.262   7.440
86524W        W87388  25.701   9.251   9.210
86525W        W87389  27.914   7.819   7.143
86526W        W87390   0.006  10.248   9.155
86527W        W87391  28.920   7.504   9.651
86528W        W87392  27.499   8.819  10.461
86529W        W87393  27.625  10.005   7.919
86530W        W87394  27.732   9.486  11.032
86531W        W87395  27.741   7.382   9.107
86532W        W87396  26.169   8.282   9.245
86533W        W87397  25.984   9.414   9.961
86534W        W87398  27.697  10.664   8.734
86535W        W87399  28.882   8.251   9.560
86536W        W87400  27.604  10.676  10.249
86537W        W87401  28.723   9.412   7.540
86538W        W87402  27.566   9.023   8.640
86539W        W87403   0.049   7.635  10.158
86540W        W87404  27.271   9.549   9.987
86541W        W87405  27.590   8.386   9.288
86542W        W87406  28.420   8.710   8.128
86543W        W87407  28.400   8.253   7.632
86544W        W87408  28.541  10.154   8.235
86545W        W87409  28.547   9.851   8.967
86546W        W87410  28.299   9.211   8.089
86547W        W87411  27.722   9.202   9.116
86548W        W87412  28.657   8.916   8.927
86549W        W87413  26.030   7.981   9.634
86550W        W87414  28.532   9.088  10.261
86551W        W87415  28.990  10.715   9.380
86552W        W87416  26.958  10.266   8.812
86553W        W87417  28.099  10.741  10.046
86554W        W87418  27.962   7.936   9.850
86555W        W87419  27.200  10.824   9.938
86556W        W87420  28.695   7.735   8.256
86557W        W87421  28.562   9.173   9.550
86558W        W87422  25.586   8.168   9.864
86559W        W87423  28.572   8.066   8.730
86560W        W87424  28.690   8.303  10.492
86561W        W87425  27.753  10.021   8.885
86562W        W87426  27.164  10.618   8.453
86563W        W87427  25.756   7.661   7.854
86564W        W87428  27.263   7.438   9.400
86565W        W87429  26.118  10.839   7.476
86566W        W87430  27.061   9.582   8.727
86567W        W87431  27.301   9.728  10.464
86568W        W87432  27.363   7.709   8.350
86569W        W87433  28.535   7.519   8.680
86570W        W87434  28.159  10.935   9.043
86571W        W87435  27.709  10.725   9.254
86572W        W87436  26.986   9.580   9.509
86573W        W87437  28.721  10.298   9.615
86574W        W87438  26.163   7.633   8.231
86575W        W87439  27.046  10.132   9.402
86576W        W87440  26.588   7.870   7.143
86577W        W87441  27.331   8.556   9.790
86578W        W87442  28.071   7.594   9.465
86579W        W87443  25.560   9.277   9.715
86580W        W87444  27.333   9.060   7.745
86581W        W87445  26.425   7.414   7.319
86582W        W87446  27.680   8.533   8.554
86583W        W87447  28.166   7.617  10.211
86584W        W87448  26.820   9.609  10.261
86585W        W87449  27.619   9.313  10.530
86586W        W87450  28.105   9.346  10.429
86587W        W87451  27.382   7.540  10.932
86588W        W87452  26.622   7.974   9.365
86589W        W87453  25.924   7.837   8.747
86590W        W87454  25.867  10.729   8.454
86591W        W87455  27.450  10.228  10.504
86592W        W87456  26.767   9.868   7.895
86593W        W87457  28.238   9.143   9.106
86594W        W87458  28.135   8.708   9.412
86595W        W87459  27.485   9.367   9.560
86596W        W87460  27.933   9.856   7.518
86597W        W87461  27.753   7.711   8.709
86598W        W87462   0.087   8.150   8.033
86599W        W87463  25.791  10.711  10.326
86600W        W87464  26.088   9.895   9.737
86601W        W87465  25.563  11.038   8.176
86602W        W87466  27.488   8.052   9.685
86603W        W87467  26.599  10.362   7.889
86604W        W87468  28.830  10.402   7.766
86605W        W87469  27.862   9.108   7.765
86606W        W87470  27.295   8.241   8.263
86607W        W87471  27.477   7.975   7.398
86608W        W87472  27.824   9.795  10.604
86609W        W87473  28.276   7.861   7.954
86610W        W87474  25.575   7.229   7.630
86611W        W87475  26.961   9.937   9.881
86612W        W87476  26.771   9.861   9.067
86613W        W87477  26.734  10.149   7.436
86614W        W87478  25.599  10.386   8.157
86615W        W87479  26.225   8.957  10.621
86616W        W87480  26.911   7.547  10.726
86617W        W87481  27.545   7.660  10.073
86618W        W87482  26.994   7.385   8.577
86619W        W87483  27.754   7.129   8.078
86620W        W87484  25.862   7.447   9.514
86621W        W87485  25.734   8.284   8.917
86622W        W87486  28.725   7.546   9.157
86623W        W87487  25.614   7.776   8.350
86624W        W87488  28.481   7.820   9.760
86625W        W87489  28.913   8.926   7.388
86626W        W87490  26.178   7.750   9.193
86627W        W87491  27.379   8.220  10.172
86628W        W87492  25.395   7.716   7.476
86629W        W87493  26.346   9.402  10.326
86630W        W87494  27.646   8.858   9.517
86631W        W87495  27.501  10.846   7.588
86632W        W87496  25.241   9.247   7.166
86633W        W87497  26.461   9.868  10.540
86634W        W87498  25.945   8.920  10.164
86635W        W87499  26.899   9.199   9.926
86636W        W87500  28.597   7.394  10.051
86637W        W87501   0.046   9.078  10.261
86638W        W87502  28.946   9.099   7.898
86639W        W87503  27.942   9.582   7.984
86640W        W87504  28.372  10.671   7.256
86641W        W87505  27.547   8.980  10.947
86642W        W87506  25.994   9.948  10.778
86643W        W87507   0.064   7.951  10.616
86644W        W87508  28.660   8.690   9.410
86645W        W87509  27.061  10.805  10.858
86646W        W87510  26.959   7.350   7.722
86647W        W87511  28.820   9.931   7.539
86648W        W87512  26.381   8.162  10.510
86649W        W87513  26.926  10.101  10.365
86650W        W87514  28.846   8.102  10.046
86651W        W87515  28.173  10.858   7.704
86652W        W87516  28.313   9.594   9.385
86653W        W87517  26.521   7.834  10.082
86654W        W87518  27.063   8.901  10.752
86655W        W87519  26.354  10.010   8.204
86656W        W87520  28.299   9.691   8.340
86657W        W87521  26.052   8.101  10.132
86658W        W87522  27.330  10.008   8.560
86659W        W87523   0.111   8.736   8.725
86660W        W87524  27.274   7.375  10.424
86661W        W87525  28.302  10.104   9.378
86662W        W87526  28.542  10.544   9.168
86663W        W87527  27.577  10.327   7.496
86664W        W87528  25.670  10.199  10.438
86665W        W87529  26.454   8.247   9.786
86666W        W87530  26.310   7.497   8.747
86667W        W87531  28.054   8.164   9.380
86668W        W87532  27.037   9.505   7.601
86669W        W87533  28.738   9.401   9.133
86670W        W87534  26.159  10.365  10.494
86671W        W87535  28.572  10.900   8.252
86672W        W87536  26.783   7.698   8.936
86673W        W87537  26.120   9.451   8.943
86674W        W87538  26.806  10.973   9.618
86675W        W87539  28.648  10.853  10.653
86676W        W87540  27.998   9.221   9.567
86677W        W87541  25.537   8.825   7.183
86678W        W87542  28.933  10.500   8.297
86679W        W87543  28.757   7.895   7.761
86680W        W87544  26.757   7.384  10.242
86681W        W87545  28.723  10.273   8.720
86682W        W87546  28.643   8.564   8.572
86683W        W87547  26.900   8.213   8.938
86684W        W87548  27.071   8.719  10.224
86685W        W87549  28.152   9.836  10.205
86686W        W87550  26.799   8.280  10.204
86687W        W87551  26.733  10.727   8.794
86688W        W87552  26.133  10.874  10.689
86689W        W87553  26.265  10.342   7.290
86690W        W87554  28.781   9.765   8.513
86691W        W87555  26.380   8.592  10.172
86692W        W87556  28.840   8.506   7.683
86693W        W87557  27.231   9.716   8.094
86694W        W87558  27.903   8.957  10.140
86695W        W87559  27.864   8.458   9.792
86696W        W87560  26.368   9.047   9.904
86697W        W87561  28.545  10.825   9.631
86698W        W87562  28.206   7.701  10.716
86699W        W87563  25.944   7.686  10.430
86700W        W87564  26.375   8.680   9.522
86701W        W87565  27.036   8.212   7.256
86702W        W87566  25.603  10.026   9.952
86703W        W87567  27.136   8.974   9.530
86704W        W87568  27.047   7.690   7.339
86705W        W87569  26.274   9.018   9.160
86706W        W87570  25.850  10.847   9.832
86707W        W87571  28.484   8.946   7.672
86708W        W87572  28.616   7.804  10.405
86709W        W87573  28.226  10.099   8.657
86710W        W87574  25.679   8.888  10.620
86711W        W87575  28.725   7.387   7.809
86712W        W87576  28.384   9.836   7.823
86713W        W87577  27.408   8.755   8.174
86714W        W87578  28.367   7.747   7.433
86715W        W87579  28.398   8.348   9.716
86716W        W87580  25.825   8.765   9.092
86717W        W87581  26.367   9.871   8.725
86718W        W87582  28.182   8.377   8.492
86719W        W87583  27.145   7.938   9.300
86720W        W87584   0.056   9.854   9.849
86721W        W87585   0.066   7.949   9.185
86722W        W87586  25.642  10.695   8.927
86723W        W87587  25.374   9.912   8.312
86724W        W87588  26.024   7.599  10.923
86725W        W87589  27.103  10.301  10.866
86726W        W87590   0.048   9.253   8.757
86727W        W87591  28.216   9.410   7.570
86728W        W87592  27.684  10.859   9.757
86729W        W87593  28.254   9.596  10.862
86730W        W87594  27.239   7.232   8.135
86731W        W87595  27.905   8.202   8.884
86732W        W87596  25.713   9.737   9.418
86733W        W87597  26.759   7.540   8.155
86734W        W87598  26.734   9.339  10.698
86735W        W87599  27.769   8.082   8.370
86736W        W87600  27.985   9.858   9.728
86737W        W87601  26.037  10.364   9.990
86738W        W87602  26.622  10.335  10.712
86739W        W87603  26.643   7.753   7.663
86740W        W87604  28.049   8.346   7.998
86741W        W87605  27.950  10.298  10.345
86742W        W87606  26.839   8.877   9.110
86743W        W87607  26.372  10.732   9.764
86744W        W87608  28.983  10.784   7.407
86745W        W87609  25.855   9.355  10.480
86746W        W87610  27.792   9.681   9.292
86747W        W87611  25.880   9.841   8.391
86748W        W87612  26.836  10.450   9.762
86749W        W87613  27.300   7.610   8.917
86750W        W87614  25.121   9.649   7.924
86751W        W87615  27.519   8.476   7.258
86752W        W87616  25.657   9.372   8.675
86753W        W87617  27.038   7.812  10.179
86754W        W87618  28.857   7.608   7.343
86755W        W87619  28.914   9.295  10.707
86756W        W87620  27.548  10.681  10.777
86757W        W87621   0.045   9.639  10.334
86758W        W87622  28.716  10.329  10.806
86759W        W87623  26.465  10.801   9.256
86760W        W87624   0.159   9.462   8.306
86761W        W87625  27.881   8.731   8.976
86762W        W87626  27.516   7.225   8.604
86763W        W87627  26.632  10.392   8.418
86764W        W87628  26.980   8.159   9.751
86765W        W87629  26.762   7.366   9.310
86766W        W87630  25.641  10.760   7.722
86767W        W87631  27.582   9.544   8.752
86768W        W87632  26.568  10.520  10.206
86769W        W87633  25.518   9.424   8.178
86770W        W87634  25.686   7.888   9.252
86771W        W87635  27.321   9.818   9.117
86772W        W87636  25.443   7.344   8.154
86773W        W87637  28.314   8.848   9.862
86774W        W87638  27.926   8.234   7.460
86775W        W87639  28.806   9.832   9.399
86776W        W87640  27.391  10.361   9.055
86777W        W87641  26.822  10.773   8.083
86778W        W87642  27.972   7.323   7.354
86779W        W87643  25.954  10.739   9.337
86780W        W87644  27.683   8.459  10.839
86781W        W87645  25.928   8.094  10.808
86782W        W87646  25.334   8.224   8.379
86783W        W87647  27.239   8.371   7.708
86784W        W87648  27.974   8.879  10.654
86785W        W87649  26.640   9.169   9.493
86786W        W87650  28.040   7.326   8.538
86787W        W87651  27.236  10.850   8.909
86788W        W87652  28.284  10.267   9.918
86789W        W87653  28.061  10.419   9.028
86790W        W87654  28.094   9.614   8.886
86791W        W87655  27.475   7.489   7.759
86792W        W87656   0.011   7.310   8.424
86793W        W87657  27.107   8.769   7.358
86794W        W87658   0.025   8.243   8.528
86795W        W87659  27.543   9.538   7.656
86796W        W87660  28.549   9.581  10.391
86797W        W87661  28.355  10.134   7.391
86798W        W87662  26.854   8.035  10.653
86799W        W87663  26.794   8.676   9.806
86800W        W87664  28.721  10.061  10.249
86801W        W87665  27.839   7.968  10.378
86802W        W87666  25.556   8.545  10.226
86803W        W87667  27.417   9.042   9.973
86804W        W87668  25.803   9.841   8.892
86805W        W87669  25.950   8.966   9.585
86806W        W87670  28.282   9.399   9.941
86807W        W87671  28.093  10.682  10.700
86808W        W87672  27.839   8.467  10.318
86809W        W87673  28.287  10.640   8.620
86810W        W87674  27.283  10.304  10.024
86811W        W87675  26.944  10.611   9.257
86812W        W87676  28.522   9.830   9.819
86813W        W87677  27.426   9.897  10.941
86814W        W87678  26.203   9.882   9.220
86815W        W87679  28.490   9.357   8.684
86816W        W87680  28.114  10.567   9.528
86817W        W87681  26.253  10.334   9.484
86818W        W87682  27.200   8.413  10.622
86819W        W87683  27.479  10.514   8.001
86820W        W87684  26.919   9.818  10.794
86821W        W87685  27.061  10.236   8.110
86822W        W87686  25.820   8.450   6.907
86823W        W87687  25.545  11.007  14.384
86824W        W87688  26.001   9.940  13.917
86825W        W87689  28.622   9.556  11.671
86826W        W87690  28.883  10.675  13.662
86827W        W87691  26.594  10.701  11.076
86828W        W87692  26.913   8.799  11.935
86829W        W87693  26.349   8.222  12.067
86830W        W87694  27.194   9.239  11.741
86831W        W87695  27.055  10.560  14.095
86832W        W87696  25.727   8.168  13.919
86833W        W87697  26.193   7.340  13.676
86834W        W87698  28.003   7.675  12.533
86835W        W87699  27.849   8.698  11.397
86836W        W87700  28.253   8.186  14.293
86837W        W87701  25.803   7.748  13.508
86838W        W87702  25.773  10.579  14.547
86839W        W87703  26.987  10.002  11.286
86840W        W87704  25.816   8.417  12.876
86841W        W87705  26.680   8.665  14.144
86842W        W87706  28.721   8.152  12.782
86843W        W87707  28.783   9.443  13.530
86844W        W87708  27.237   8.793  12.712
86845W        W87709  27.799  10.154  13.054
86846W        W87710  26.140   9.460  13.266
86847W        W87711  25.411   8.750  12.742
86848W        W87712  26.622   9.070  13.819
86849W        W87713  28.856   8.808  14.158
86850W        W87714  26.427  10.164  12.702
86851W        W87715  27.599   9.972  13.668
86852W        W87716  26.950   8.389  12.935
86853W        W87717  27.018   9.294  12.655
86854W        W87718  27.863  10.176  14.443
86855W        W87719  27.246   9.351  14.461
86856W        W87720  27.127   9.169  13.953
86857W        W87721  25.471   8.451  14.455
86858W        W87722  28.328  10.111  14.171
86859W        W87723  25.959   7.468  11.995
86860W        W87724  26.499   9.844  13.145
86861W        W87725   0.016   9.814  12.539
86862W        W87726  28.251   7.948  12.897
86863W        W87727  28.625   8.181  10.990
86864W        W87728   0.157   8.904  13.405
86865W        W87729  27.162  10.530  13.185
86866W        W87730  28.811  10.025  11.711
86867W        W87731  26.025  10.924  11.686
86868W        W87732  26.362  10.827  12.078
86869W        W87733  26.359   7.653  13.292
86870W        W87734  28.797   8.588  13.675
86871W        W87735  28.081   9.017  12.217
86872W        W87736  28.037   9.086  11.117
86873W        W87737  27.376   9.899  13.208
86874W        W87738  27.093   8.066  12.526
86875W        W87739  27.680  10.465  13.455
86876W        W87740  28.540   9.133  11.954
86877W        W87741  27.538   7.859  11.848
86878W        W87742  26.202  10.440  11.770
86879W        W87743  25.596   7.776  12.190
86880W        W87744  28.328   8.479  12.679
86881W        W87745  25.920  10.187  12.723
86882W        W87746  27.001  10.541  11.340
86883W        W87747  28.368   8.645  10.939
86884W        W87748  25.651  10.266  13.164
86885W        W87749  26.437   9.945  13.641
86886W        W87750  26.889   9.283  12.139
86887W        W87751  26.877   7.718  13.377
86888W        W87752  28.905   7.266  12.695
86889W        W87753  26.252   9.473  10.842
86890W        W87754  26.020   8.224  11.322
86891W        W87755  26.013  10.212  12.207
86892W        W87756  26.866   9.808  12.180
86893W        W87757  28.455  10.576  13.954
86894W        W87758  27.558   8.267  11.415
86895W        W87759  28.697  10.715  12.365
86896W        W87760  28.396   8.631  14.072
86897W        W87761   0.116  10.070  12.112
86898W        W87762  27.757   9.481  13.692
86899W        W87763  25.696   8.973  11.957
86900W        W87764  26.625   9.467  13.469
86901W        W87765  27.748   8.759  11.914
86902W        W87766  27.665   9.284  11.959
86903W        W87767  26.120   8.559  13.310
86904W        W87768  25.894   8.604  14.192
86905W        W87769  25.872   7.392  12.504
86906W        W87770  27.714   7.883  12.930
86907W        W87771  27.457   7.905  14.158
86908W        W87772  27.857   7.850  11.427
86909W        W87773  28.950  10.538  14.148
86910W        W87774  27.765   7.477  14.024
86911W        W87775  28.731   9.834  14.387
86912W        W87776  28.406   8.183  13.795
86913W        W87777  27.986   7.961  12.094
86914W        W87778  28.458   9.078  14.384
86915W        W87779  26.177  10.600  12.526
86916W        W87780  27.053   8.204  11.488
86917W        W87781  26.453   7.736  14.301
86918W        W87782  28.505   8.271  11.913
86919W        W87783  28.774   8.689  11.740
86920W        W87784  26.615  10.825  14.267
86921W        W87785  26.523   7.362  11.528
86922W        W87786  28.796   7.714  12.456
86923W        W87787   0.074  10.136  11.127
86924W        W87788  25.774   9.321  12.679
86925W        W87789  27.764   7.929  10.898
86926W        W87790  28.976  10.291  12.802
86927W        W87791  28.914   7.565  13.432
86928W        W87792  27.510   8.745  14.056
86929W        W87793  27.344   9.758  11.829
86930W        W87794  27.757   9.441  14.584
86931W        W87795  27.605   7.415  12.718
86932W        W87796  26.252   8.164  12.661
86933W        W87797  25.758   9.485  13.648
86934W        W87798  27.601  10.533  12.431
86935W        W87799   0.009   8.019  13.182
86936W        W87800  27.551  10.668  13.918
86937W        W87801  28.696   9.400  11.157
86938W        W87802  27.319   8.985  12.196
86939W        W87803   0.016   7.597  13.931
86940W        W87804  27.263   9.499  13.543
86941W        W87805  27.460   8.337  12.783
86942W        W87806  28.265   8.719  11.802
86943W        W87807  28.451   8.442  11.415
86944W        W87808  28.496  10.276  12.097
86945W        W87809  28.168   9.723  12.763
86946W        W87810  28.034   9.128  11.652
86947W        W87811  27.538   9.187  12.611
86948W        W87812  28.510   8.966  12.703
86949W        W87813  26.056   8.021  13.113
86950W        W87814  28.541   9.081  13.855
86951W        W87815  28.958  10.767  13.062
86952W        W87816  26.903  10.228  12.534
86953W        W87817  28.038  10.784  13.709
86954W        W87818  28.013   8.149  13.466
86955W        W87819  27.259  10.895  13.556
86956W        W87820  28.755   7.807  11.947
86957W        W87821  28.640   8.979  13.332
86958W        W87822  25.709   8.256  13.403
86959W        W87823  28.389   8.043  12.392
86960W        W87824  28.801   8.295  14.118
86961W        W87825  27.721   9.955  12.576
86962W        W87826  27.081  10.570  12.183
86963W        W87827  26.155   7.715  11.404
86964W        W87828  27.243   7.418  13.088
86965W        W87829  26.102  10.852  11.192
86966W        W87830  26.687   9.170  11.611
86967W        W87831  27.292   9.671  14.032
86968W        W87832  27.107   7.748  12.118
86969W        W87833  28.349   7.574  12.159
86970W        W87834  27.990  10.870  12.682
86971W        W87835  27.606  10.650  12.943
86972W        W87836  26.980   9.562  13.111
86973W        W87837  28.735  10.327  13.294
86974W        W87838  26.406   7.718  11.884
86975W        W87839  26.927  10.086  13.027
86976W        W87840  26.396   7.977  10.996
86977W        W87841  27.264   8.672  13.249
86978W        W87842  28.039   7.492  13.049
86979W        W87843  25.644   9.303  13.181
86980W        W87844  27.098   9.076  11.251
86981W        W87845  26.513   7.471  11.038
86982W        W87846  27.162   8.509  12.293
86983W        W87847  28.058   7.628  13.566
86984W        W87848  26.770   9.590  13.935
86985W        W87849  27.614   9.242  14.119
86986W        W87850  28.115   9.358  14.095
86987W        W87851  27.476   7.568  14.545
86988W        W87852  26.708   7.916  12.854
86989W        W87853  26.116   7.835  12.297
86990W        W87854  25.865  10.704  12.116
86991W        W87855  27.449  10.183  14.113
86992W        W87856  26.364   9.610  11.469
86993W        W87857  28.032   9.179  12.752
86994W        W87858  28.196   8.819  13.094
86995W        W87859  27.339   9.184  13.094
86996W        W87860  28.003   9.914  11.187
86997W        W87861  27.536   7.833  12.395
86998W        W87862   0.076   8.234  11.807
86999W        W87863  25.767  10.689  14.003
87000W        W87864  25.948   9.916  13.401
87001W        W87865  25.519  10.804  11.728
87002W        W87866  27.532   8.211  13.290
87003W        W87867  26.557  10.294  11.408
87004W        W87868  28.719  10.439  11.414
87005W        W87869  27.586   9.149  11.425
87006W        W87870  26.862   8.183  11.986
87007W        W87871  27.278   8.088  11.012
87008W        W87872  27.784   9.758  14.151
87009W        W87873  28.299   7.853  11.708
87010W        W87874  25.659   7.371  11.220
87011W        W87875  26.938   9.899  13.516
87012W        W87876  26.727   9.745  12.681
87013W        W87877  26.485   9.921  11.054
87014W        W87878  25.683  10.323  11.819
87015W        W87879  26.273   9.024  14.197
87016W        W87880  26.996   7.697  14.356
87017W        W87881  27.522   7.784  13.636
87018W        W87882  26.766   7.371  12.039
87019W        W87883  27.670   7.402  11.585
87020W        W87884  25.889   7.528  13.060
87021W        W87885  25.802   8.251  12.280
87022W        W87886  28.407   7.406  12.648
87023W        W87887  25.953   7.966  11.814
87024W        W87888  28.485   7.863  13.384
87025W        W87889  28.847   8.885  11.089
87026W        W87890  26.285   7.640  12.763
87027W        W87891  27.452   8.288  13.799
87028W        W87892  25.641   7.874  11.255
87029W        W87893  26.245   9.454  13.830
87030W        W87894  27.688   8.819  12.958
87031W        W87895  27.405  10.849  11.273
87032W        W87896  25.793   9.210  11.006
87033W        W87897  26.470   9.972  14.149
87034W        W87898  25.973   9.037  13.501
87035W        W87899  26.974   9.080  13.450
87036W        W87900  28.512   7.506  13.795
87037W        W87901   0.067   9.158  13.847
87038W        W87902  28.906   9.151  11.564
87039W        W87903  27.781   9.609  11.566
87040W        W87904  28.439  10.855  11.125
87041W        W87905  27.574   8.933  14.560
87042W        W87906  26.043   9.962  14.449
87043W        W87907   0.125   7.921  14.352
87044W        W87908  28.873   8.544  13.136
87045W        W87909  27.067  10.790  14.557
87046W        W87910  27.005   7.349  11.289
87047W        W87911  28.562   9.914  11.261
87048W        W87912  26.250   8.212  14.129
87049W        W87913  26.951  10.072  14.007
87050W        W87914  28.893   8.036  13.683
87051W        W87915  28.171  11.043  11.530
87052W        W87916  28.381   9.370  13.090
87053W        W87917  26.510   7.790  13.771
87054W        W87918  27.098   8.852  14.388
87055W        W87919  26.488   9.990  11.821
87056W        W87920  28.169   9.511  11.951
87057W        W87921  26.158   8.137  13.623
87058W        W87922  27.313  10.075  12.266
87059W        W87923  28.907   8.604  12.607
87060W        W87924  27.261   7.444  13.976
87061W        W87925  28.314  10.126  13.060
87062W        W87926  28.517  10.559  12.847
87063W        W87927  27.468  10.330  11.231
87064W        W87928  25.656  10.213  14.195
87065W        W87929  26.541   8.153  13.273
87066W        W87930  26.349   7.388  12.322
87067W        W87931  27.937   8.372  13.012
87068W        W87932  26.792   9.494  11.185
87069W        W87933  28.760   9.428  12.749
87070W        W87934  26.161  10.405  14.197
87071W        W87935  28.521  10.807  11.849
87072W        W87936  26.639   7.832  12.345
87073W        W87937  26.497   9.342  12.460
87074W        W87938  26.808  10.912  13.281
87075W        W87939  28.681  10.928  14.262
87076W        W87940  27.871   9.200  13.266
87077W        W87941  25.817   8.671  11.070
87078W        W87942  28.911  10.505  11.930
87079W        W87943  28.734   8.013  11.475
87080W        W87944  26.744   7.401  14.008
87081W        W87945  28.545  10.078  12.589
87082W        W87946  28.568   8.691  12.235
87083W        W87947  26.683   8.361  12.468
87084W        W87948  27.070   8.664  13.780
87085W        W87949  28.103   9.865  13.772
87086W        W87950  26.644   8.295  13.770
87087W        W87951  26.672  10.729  12.477
87088W        W87952  26.102  10.907  14.339
87089W        W87953  26.195  10.368  11.023
87090W        W87954  28.626   9.777  12.153
87091W        W87955  26.260   8.666  13.802
87092W        W87956  28.971   8.445  11.337
87093W        W87957  26.866   9.656  11.674
87094W        W87958  27.963   8.998  13.761
87095W        W87959  27.783   8.638  13.435
87096W        W87960  26.441   9.003  13.330
87097W        W87961  28.497  10.811  13.344
87098W        W87962  28.225   7.483  14.245
87099W        W87963  26.021   7.744  13.971
87100W        W87964  26.458   8.576  12.922
87101W        W87965  26.787   8.342  11.056
87102W        W87966  25.631  10.261  13.672
87103W        W87967  26.840   8.927  12.984
87104W        W87968  26.863   7.833  11.157
87105W        W87969  26.444   8.989  12.071
87106W        W87970  25.794  10.794  13.493
87107W        W87971  28.453   8.981  11.396
87108W        W87972  28.619   7.821  14.198
87109W        W87973  28.148   9.929  12.277
87110W        W87974  25.808   9.071  13.974
87111W        W87975  28.695   7.512  11.408
87112W        W87976  28.284   9.949  11.706
87113W        W87977  27.327   8.730  11.617
87114W        W87978  28.316   7.816  11.196
87115W        W87979  28.420   8.337  13.192
87116W        W87980  25.854   8.841  12.476
87117W        W87981  26.359   9.840  12.314
87118W        W87982  28.100   8.467  12.199
87119W        W87983  27.200   7.927  13.012
87120W        W87984   0.035   9.923  13.459
87121W        W87985  28.714   7.659  12.967
87122W        W87986  25.647  10.648  12.569
87123W        W87987  26.012   9.759  11.895
87124W        W87988  25.940   7.693  14.473
87125W        W87989  27.135  10.263  14.512
87126W        W87990  28.891   9.103  12.372
87127W        W87991  28.234   9.493  11.362
87128W        W87992  27.739  10.972  13.317
87129W        W87993  28.214   9.705  14.468
87130W        W87994  27.200   7.341  11.772
87131W        W87995  27.894   8.180  12.550
87132W        W87996  25.675   9.772  12.928
87133W        W87997  26.874   7.731  11.661
87134W        W87998  26.760   9.238  14.307
87135W        W87999  27.599   8.299  12.119
87136W        W88000  28.015   9.736  13.279
87137W        W88001  26.129  10.377  13.663
87138W        W88002  26.648  10.351  14.439
87139W        W88003  26.525   8.090  11.504
87140W        W88004  27.995   8.292  11.703
87141W        W88005  27.921  10.320  13.935
87142W        W88006  26.795   8.872  12.452
87143W        W88007  26.314  10.758  13.359
87144W        W88008  28.954  10.719  11.051
87145W        W88009  25.832   9.535  14.181
87146W        W88010  27.684   9.565  12.924
87147W        W88011  26.465   9.495  11.963
87148W        W88012  26.699  10.360  13.421
87149W        W88013  27.049   7.567  12.618
87150W        W88014  25.720   9.446  11.485
87151W        W88015  27.250   8.588  11.126
87152W        W88016  26.039   9.304  12.228
87153W        W88017  27.024   7.899  13.859
87154W        W88018  28.740   7.672  10.920
87155W        W88019  28.906   9.326  14.296
87156W        W88020  27.541  10.593  14.438
87157W        W88021   0.020   9.692  13.945
87158W        W88022  28.622  10.368  14.508
87159W        W88023  26.363  10.936  12.882
87160W        W88024   0.048   9.568  11.964
87161W        W88025  27.696   8.697  12.450
87162W        W88026  27.366   7.335  12.268
87163W        W88027  26.526  10.332  12.196
87164W        W88028  27.048   8.211  13.442
87165W        W88029  26.713   7.391  12.997
87166W        W88030  25.751  10.501  11.338
87167W        W88031  27.327   9.518  12.276
87168W        W88032  26.590  10.430  13.912
87169W        W88033  26.111   9.211  11.721
87170W        W88034  25.796   7.890  12.673
87171W        W88035  27.242   9.759  12.712
87172W        W88036  25.561   7.559  11.685
87173W        W88037  28.293   8.654  13.572
87174W        W88038  28.042   8.268  11.173
87175W        W88039  28.765   9.860  13.019
87176W        W88040  27.356  10.240  12.792
87177W        W88041  26.730  10.608  11.794
87178W        W88042  27.882   7.457  11.071
87179W        W88043  25.926  10.665  12.991
87180W        W88044  27.776   8.423  14.413
87181W        W88045  25.913   8.208  14.549
87182W        W88046  25.766   8.479  11.774
87183W        W88047  26.825   8.679  11.441
87184W        W88048  27.982   8.876  14.255
87185W        W88049  26.542   9.343  12.963
87186W        W88050  27.821   7.482  12.080
87187W        W88051  27.132  10.684  12.691
87188W        W88052  28.263  10.325  13.541
87189W        W88053  28.071  10.343  12.648
87190W        W88054  27.868   9.501  12.382
87191W        W88055  27.328   7.750  11.398
87192W        W88056   0.016   7.365  12.089
87193W        W88057  26.618   8.926  11.012
87194W        W88058  28.862   8.222  12.280
87195W        W88059  27.291   9.573  11.344
87196W        W88060  28.522   9.633  13.963
87197W        W88061  28.291  10.350  11.092
87198W        W88062  26.768   8.144  14.242
87199W        W88063  26.743   8.612  13.379
87200W        W88064  28.740  10.142  13.845
87201W        W88065  27.932   7.963  13.941
87202W        W88066  25.734   8.640  13.711
87203W        W88067  27.474   9.022  13.596
87204W        W88068  25.858   9.760  12.403
87205W        W88069  26.054   8.986  12.977
87206W        W88070  28.256   9.395  13.582
87207W        W88071  28.104  10.629  14.338
87208W        W88072  27.936   8.473  13.909
87209W        W88073  28.197  10.676  12.256
87210W        W88074  27.212  10.338  13.653
87211W        W88075  26.683  10.537  12.945
87212W        W88076  28.506   9.863  13.465
87213W        W88077  27.433   9.848  14.523
87214W        W88078  26.183   9.676  12.781
87215W        W88079  28.385   9.390  12.407
87216W        W88080  28.079  10.601  13.134
87217W        W88081  26.231  10.284  13.161
87218W        W88082  27.240   8.358  14.304
87219W        W88083  27.341  10.586  11.734
87220W        W88084  26.925   9.765  14.408
87221W        W88085  26.991  10.165  11.806
87222W        W88086  26.287   8.487  10.923
87223W        W88087  25.621  10.915  18.123
87224W        W88088  25.945   9.827  17.472
87225W        W88089  28.600   9.574  15.230
87226W        W88090  28.836  10.601  17.226
87227W        W88091  26.618  10.718  14.821
87228W        W88092  26.824   8.762  15.625
87229W        W88093  26.337   8.462  15.899
87230W        W88094  27.275   9.281  15.370
87231W        W88095  26.994  10.583  17.480
87232W        W88096  25.644   8.103  17.574
87233W        W88097  26.185   7.375  17.418
87234W        W88098  28.091   7.932  16.262
87235W        W88099  27.855   8.635  14.908
87236W        W88100  28.211   8.218  17.955
87237W        W88101  25.821   7.719  17.207
87238W        W88102  25.828  10.437  18.175
87239W        W88103  27.017   9.951  14.913
87240W        W88104  25.756   8.487  16.589
87241W        W88105  26.704   8.570  17.802
87242W        W88106  28.809   8.450  16.291
87243W        W88107  28.813   9.363  17.262
87244W        W88108  27.315   8.642  16.198
87245W        W88109  27.779  10.108  16.637
87246W        W88110  26.271   9.376  16.749
87247W        W88111  25.499   9.044  16.589
87248W        W88112  26.695   9.017  17.477
87249W        W88113  28.827   8.783  17.883
87250W        W88114  26.428  10.216  16.238
87251W        W88115  27.605   9.917  17.324
87252W        W88116  26.948   8.550  16.561
87253W        W88117  27.032   9.388  16.211
87254W        W88118  27.867  10.131  18.157
87255W        W88119  27.361   9.264  18.119
87256W        W88120  27.186   9.139  17.599
87257W        W88121  25.449   8.371  17.976
87258W        W88122  28.338  10.053  17.817
87259W        W88123  26.032   7.459  15.730
87260W        W88124  26.562   9.809  16.808
87261W        W88125  28.960   9.679  16.054
87262W        W88126  28.557   7.972  16.489
87263W        W88127  28.681   8.144  14.606
87264W        W88128  28.988   8.880  17.074
87265W        W88129  27.144  10.577  16.703
87266W        W88130  28.819  10.058  15.250
87267W        W88131  25.979  10.922  15.346
87268W        W88132  26.373  10.841  15.695
87269W        W88133  26.366   7.596  16.952
87270W        W88134  28.765   8.447  17.271
87271W        W88135  28.202   9.023  15.828
87272W        W88136  28.064   9.063  14.726
87273W        W88137  27.405   9.821  16.824
87274W        W88138  27.280   8.133  16.115
87275W        W88139  27.779  10.364  17.119
87276W        W88140  28.613   9.144  15.533
87277W        W88141  27.735   7.842  15.443
87278W        W88142  26.222  10.447  15.395
87279W        W88143  25.767   7.885  15.790
87280W        W88144  28.287   8.436  16.325
87281W        W88145  25.928  10.236  16.353
87282W        W88146  27.041  10.477  14.992
87283W        W88147  28.302   8.619  14.586
87284W        W88148  25.785  10.254  16.896
87285W        W88149  26.477   9.840  17.325
87286W        W88150  26.899   9.282  15.737
87287W        W88151  26.868   7.737  16.979
87288W        W88152   0.090   7.346  16.270
87289W        W88153  26.340   9.525  14.349
87290W        W88154  26.138   8.380  14.988
87291W        W88155  26.088  10.210  15.849
87292W        W88156  26.868   9.812  15.830
87293W        W88157  28.511  10.511  17.648
87294W        W88158  27.611   8.255  15.149
87295W        W88159  28.755  10.685  16.158
87296W        W88160  28.436   8.575  17.642
87297W        W88161   0.072  10.043  15.695
87298W        W88162  27.816   9.438  17.382
87299W        W88163  25.770   8.901  15.794
87300W        W88164  26.649   9.399  17.112
87301W        W88165  27.825   8.711  15.429
87302W        W88166  27.727   9.186  15.625
87303W        W88167  26.062   8.534  17.006
87304W        W88168  25.987   8.489  17.706
87305W        W88169  25.963   7.373  16.236
87306W        W88170  27.613   7.842  16.468
87307W        W88171  27.390   7.879  17.845
87308W        W88172  27.849   7.766  14.945
87309W        W88173  28.924  10.357  17.898
87310W        W88174  27.870   7.420  17.748
87311W        W88175  28.770   9.841  18.057
87312W        W88176  28.391   8.049  17.495
87313W        W88177  28.136   7.961  15.734
87314W        W88178  28.415   9.096  18.161
87315W        W88179  26.149  10.658  16.134
87316W        W88180  27.116   8.244  15.230
87317W        W88181  26.469   7.635  17.830
87318W        W88182  28.555   8.267  15.512
87319W        W88183  28.849   8.687  15.335
87320W        W88184  26.662  10.765  17.850
87321W        W88185  26.660   7.352  15.175
87322W        W88186  28.888   7.788  16.100
87323W        W88187   0.033  10.145  14.751
87324W        W88188  25.847   9.379  16.427
87325W        W88189  27.900   7.837  14.436
87326W        W88190   0.005  10.241  16.452
87327W        W88191  28.876   7.535  17.006
87328W        W88192  27.558   8.656  17.611
87329W        W88193  27.374   9.895  15.319
87330W        W88194  27.897   9.215  18.231
87331W        W88195  27.700   7.397  16.183
87332W        W88196  26.179   8.271  16.381
87333W        W88197  26.149   9.388  17.265
87334W        W88198  27.565  10.546  15.904
87335W        W88199  28.858   8.147  16.865
87336W        W88200  27.510  10.589  17.496
87337W        W88201  28.661   9.421  14.734
87338W        W88202  27.288   8.957  15.788
87339W        W88203   0.095   7.507  17.490
87340W        W88204  27.324   9.489  17.220
87341W        W88205  27.430   8.315  16.601
87342W        W88206  28.340   8.714  15.417
87343W        W88207  28.496   8.426  15.021
87344W        W88208  28.455  10.294  15.540
87345W        W88209  28.157   9.921  16.309
87346W        W88210  28.101   9.121  15.260
87347W        W88211  27.514   9.196  16.197
87348W        W88212  28.495   8.932  16.293
87349W        W88213  26.020   8.030  16.815
87350W        W88214  28.548   9.079  17.594
87351W        W88215  28.829  10.661  16.687
87352W        W88216  26.941  10.263  16.165
87353W        W88217  28.049  10.717  17.497
87354W        W88218  27.821   8.075  17.143
87355W        W88219  27.254  10.850  17.116
87356W        W88220  28.692   7.788  15.608
87357W        W88221  28.569   9.125  16.807
87358W        W88222  25.628   8.253  17.070
87359W        W88223  28.523   8.129  16.001
87360W        W88224  28.836   8.267  17.760
87361W        W88225  27.706  10.003  16.087
87362W        W88226  27.059  10.582  15.751
87363W        W88227  26.080   7.850  14.942
87364W        W88228  27.282   7.429  16.643
87365W        W88229  26.125  10.885  14.850
87366W        W88230  26.771   9.159  15.242
87367W        W88231  27.416   9.591  17.706
87368W        W88232  27.242   7.917  15.638
87369W        W88233  28.405   7.601  16.010
87370W        W88234  28.301  10.821  16.401
87371W        W88235  27.636  10.692  16.716
87372W        W88236  27.003   9.497  16.710
87373W        W88237  28.715  10.188  16.900
87374W        W88238  26.470   7.715  15.558
87375W        W88239  26.998  10.087  16.661
87376W        W88240  26.417   8.131  14.622
87377W        W88241  27.303   8.666  16.948
87378W        W88242  28.159   7.460  16.787
87379W        W88243  25.721   9.335  16.980
87380W        W88244  27.156   9.041  14.886
87381W        W88245  26.570   7.707  14.831
87382W        W88246  27.210   8.442  15.709
87383W        W88247  28.077   7.640  17.293
87384W        W88248  26.901   9.564  17.537
87385W        W88249  27.670   9.128  17.755
87386W        W88250  28.136   9.304  17.773
87387W        W88251  27.438   7.522  18.262
87388W        W88252  26.653   8.133  16.499
87389W        W88253  26.242   7.955  15.971
87390W        W88254  25.796  10.651  15.749
87391W        W88255  27.444  10.113  17.786
87392W        W88256  26.442   9.612  15.098
87393W        W88257  28.006   9.105  16.317
87394W        W88258  28.178   8.755  16.699
87395W        W88259  27.503   9.302  16.781
87396W        W88260  27.854   9.876  14.859
87397W        W88261  27.675   7.850  15.952
87398W        W88262   0.021   8.182  15.314
87399W        W88263  25.748  10.706  17.671
87400W        W88264  26.059   9.798  16.968
87401W        W88265  25.453  10.786  15.357
87402W        W88266  27.392   7.840  16.955
87403W        W88267  26.586  10.241  15.057
87404W        W88268  28.654  10.558  15.131
87405W        W88269  27.642   9.098  15.049
87406W        W88270  26.749   8.178  15.608
87407W        W88271  27.501   8.070  14.675
87408W        W88272  27.892   9.759  17.794
87409W        W88273  28.233   7.709  15.295
87410W        W88274  25.703   7.384  14.849
87411W        W88275  26.969   9.821  17.098
87412W        W88276  26.734   9.800  16.329
87413W        W88277  26.513   9.907  14.678
87414W        W88278  25.739  10.215  15.475
87415W        W88279  26.286   8.910  17.785
87416W        W88280  26.959   7.546  18.014
87417W        W88281  27.557   7.660  17.394
87418W        W88282  26.920   7.490  15.715
87419W        W88283  27.697   7.372  15.256
87420W        W88284  25.908   7.521  16.740
87421W        W88285  25.810   8.344  16.042
87422W        W88286  28.632   7.439  16.520
87423W        W88287  26.114   8.068  15.433
87424W        W88288  28.460   7.839  17.005
87425W        W88289  28.900   8.921  14.658
87426W        W88290  26.300   7.762  16.463
87427W        W88291  27.366   8.184  17.405
87428W        W88292  25.536   7.873  14.844
87429W        W88293  26.426   9.435  17.689
87430W        W88294  27.665   8.795  16.569
87431W        W88295  27.457  10.764  14.925
87432W        W88296  25.553   9.039  14.416
87433W        W88297  26.587   9.923  17.818
87434W        W88298  25.960   8.907  17.381
87435W        W88299  27.048   9.089  17.069
87436W        W88300  28.559   7.478  17.425
87437W        W88301   0.109   9.096  17.572
87438W        W88302  28.921   9.190  15.128
87439W        W88303  27.780   9.556  15.268
87440W        W88304  28.449  10.825  14.707
87441W        W88305  27.584   8.782  18.125
87442W        W88306  26.111   9.779  17.958
87443W        W88307   0.156   7.970  18.059
87444W        W88308  28.661   8.610  16.756
87445W        W88309  27.156  10.772  18.008
87446W        W88310  27.036   7.496  14.830
87447W        W88311  28.519   9.935  14.842
87448W        W88312  26.370   8.155  17.746
87449W        W88313  27.000  10.069  17.523
87450W        W88314  28.872   7.944  17.335
87451W        W88315  28.211  10.856  15.158
87452W        W88316  28.239   9.481  16.576
87453W        W88317  26.511   7.831  17.369
87454W        W88318  27.088   8.841  18.016
87455W        W88319  26.476   9.961  15.482
87456W        W88320  28.211   9.493  15.576
87457W        W88321  26.091   8.136  17.323
87458W        W88322  27.290  10.108  15.808
87459W        W88323   0.160   8.718  15.998
87460W        W88324  27.341   7.378  17.748
87461W        W88325  28.251   9.999  16.812
87462W        W88326  28.470  10.344  16.445
87463W        W88327  27.488  10.234  14.885
87464W        W88328  25.646  10.041  17.870
87465W        W88329  26.496   8.202  16.991
87466W        W88330  26.438   7.488  16.056
87467W        W88331  27.945   8.259  16.672
87468W        W88332  26.852   9.458  14.812
87469W        W88333  28.764   9.389  16.429
87470W        W88334  26.071  10.298  17.736
87471W        W88335  28.535  10.909  15.577
87472W        W88336  26.787   7.886  16.040
87473W        W88337  26.500   9.343  16.255
87474W        W88338  26.785  10.895  16.885
87475W        W88339  28.707  10.909  17.909
87476W        W88340  27.957   9.136  16.935
87477W        W88341  25.853   8.729  14.696
87478W        W88342  28.896  10.539  15.621
87479W        W88343  28.647   7.937  15.079
87480W        W88344  26.706   7.348  17.368
87481W        W88345  28.699  10.193  16.011
87482W        W88346  28.650   8.683  15.841
87483W        W88347  26.834   8.405  16.073
87484W        W88348  27.086   8.665  17.437
87485W        W88349  28.157   9.862  17.340
87486W        W88350  26.817   8.233  17.422
87487W        W88351  26.670  10.710  16.135
87488W        W88352  26.144  10.801  18.001
87489W        W88353  26.218  10.383  14.724
87490W        W88354  28.607   9.807  15.685
87491W        W88355  26.399   8.560  17.393
87492W        W88356  28.991   8.464  14.882
87493W        W88357  26.905   9.654  15.334
87494W        W88358  28.014   8.935  17.431
87495W        W88359  27.819   8.613  17.051
87496W        W88360  26.366   8.963  17.065
87497W        W88361  28.417  10.826  16.936
87498W        W88362  28.279   7.701  17.883
87499W        W88363  25.991   7.752  17.702
87500W        W88364  26.425   8.630  16.643
87501W        W88365  26.818   8.478  14.627
87502W        W88366  25.667  10.270  17.400
87503W        W88367  27.179   9.003  16.549
87504W        W88368  26.992   8.016  14.771
87505W        W88369  26.419   8.990  15.861
87506W        W88370  25.819  10.717  17.152
87507W        W88371  28.498   8.951  14.977
87508W        W88372  28.775   7.759  17.809
87509W        W88373  28.134   9.966  15.797
87510W        W88374  25.709   8.887  17.874
87511W        W88375  28.634   7.426  15.084
87512W        W88376  28.211   9.918  15.266
87513W        W88377  27.326   8.746  15.298
87514W        W88378  28.327   7.722  14.720
87515W        W88379  28.291   8.337  17.058
87516W        W88380  26.051   8.782  16.227
87517W        W88381  26.364   9.784  15.962
87518W        W88382  28.155   8.473  15.825
87519W        W88383  27.106   7.921  16.541
87520W        W88384   0.036   9.814  17.081
87521W        W88385   0.047   7.781  16.581
87522W        W88386  25.610  10.684  16.236
87523W        W88387  26.013   9.750  15.579
87524W        W88388  26.001   7.637  18.212
87525W        W88389  27.335  10.245  18.265
87526W        W88390  28.872   9.160  15.983
87527W        W88391  28.190   9.505  14.940
87528W        W88392  27.749  10.967  17.172
87529W        W88393  28.295   9.639  18.133
87530W        W88394  27.168   7.310  15.291
87531W        W88395  27.763   8.328  16.194
87532W        W88396  25.710   9.839  16.598
87533W        W88397  26.893   7.784  15.270
87534W        W88398  26.855   9.301  17.976
87535W        W88399  27.691   8.289  15.682
87536W        W88400  27.887   9.660  16.934
87537W        W88401  26.161  10.239  17.239
87538W        W88402  26.928  10.317  17.951
87539W        W88403  26.602   8.174  15.101
87540W        W88404  28.088   8.251  15.310
87541W        W88405  27.907  10.247  17.614
87542W        W88406  26.853   8.914  16.149
87543W        W88407  26.352  10.634  16.999
87544W        W88408  28.966  10.703  14.742
87545W        W88409  25.886   9.349  17.718
87546W        W88410  27.727   9.620  16.447
87547W        W88411  26.451   9.449  15.588
87548W        W88412  26.715  10.269  17.074
87549W        W88413  27.225   7.610  16.137
87550W        W88414  26.108  10.032  15.106
87551W        W88415  27.312   8.541  14.807
87552W        W88416  26.067   9.348  15.960
87553W        W88417  27.036   7.746  17.483
87554W        W88418  28.832   7.625  14.654
87555W        W88419  28.853   9.308  17.958
87556W        W88420  27.632  10.572  17.992
87557W        W88421   0.037   9.666  17.626
87558W        W88422  28.544  10.303  18.224
87559W        W88423  26.381  10.894  16.548
87560W        W88424   0.013   9.529  15.544
87561W        W88425  27.755   8.785  15.958
87562W        W88426  27.454   7.441  15.709
87563W        W88427  26.590  10.356  15.773
87564W        W88428  27.039   8.222  16.959
87565W        W88429  26.799   7.540  16.433
87566W        W88430  25.819  10.522  15.061
87567W        W88431  27.364   9.561  15.821
87568W        W88432  26.547  10.356  17.557
87569W        W88433  26.000   9.227  15.458
87570W        W88434  25.813   7.892  16.345
87571W        W88435  27.261   9.836  16.288
87572W        W88436  25.757   7.682  15.310
87573W        W88437  28.424   8.819  17.171
87574W        W88438  28.087   8.187  14.788
87575W        W88439  28.650   9.873  16.436
87576W        W88440  27.416  10.332  16.356
87577W        W88441  26.711  10.648  15.356
87578W        W88442  27.933   7.343  14.668
87579W        W88443  25.944  10.663  16.639
87580W        W88444  27.705   8.308  17.963
87581W        W88445  25.921   8.127  18.059
87582W        W88446  25.729   8.420  15.531
87583W        W88447  26.850   8.660  15.107
87584W        W88448  28.055   8.770  17.928
87585W        W88449  26.692   9.073  16.671
87586W        W88450  27.979   7.460  15.713
87587W        W88451  27.176  10.772  16.217
87588W        W88452  28.306  10.358  17.204
87589W        W88453  27.928  10.455  16.272
87590W        W88454  27.900   9.514  15.984
87591W        W88455  27.365   7.779  15.095
87592W        W88456  28.974   7.345  15.750
87593W        W88457  26.663   8.962  14.722
87594W        W88458  28.982   8.251  15.819
87595W        W88459  27.365   9.542  14.933
87596W        W88460  28.525   9.601  17.645
87597W        W88461  28.195  10.368  14.820
87598W        W88462  26.834   8.017  17.892
87599W        W88463  26.769   8.654  17.038
87600W        W88464  27.882   7.948  17.646
87601W        W88465  25.553   8.585  17.470
87602W        W88466  27.540   9.019  17.237
87603W        W88467  25.833   9.792  16.080
87604W        W88468  25.990   8.950  16.712
87605W        W88469  28.302   9.362  17.228
87606W        W88470  28.140  10.521  17.997
87607W        W88471  27.988   8.416  17.500
87608W        W88472  28.302  10.595  15.935
87609W        W88473  27.259  10.275  17.113
87610W        W88474  26.669  10.478  16.594
87611W        W88475  28.606   9.639  16.890
87612W        W88476  27.526   9.753  18.193
87613W        W88477  26.201   9.781  16.442
87614W        W88478  28.419   9.475  16.061
87615W        W88479  28.099  10.494  16.751
87616W        W88480  26.265  10.212  16.732
87617W        W88481  27.201   8.367  17.887
87618W        W88482  27.405  10.444  15.379
87619W        W88483  27.053   9.810  17.987
87620W        W88484  26.947  10.177  15.422
87621W        W88485  26.315   8.606  14.503
87622W        W88486  25.561  10.966  21.627
87623W        W88487  26.004   9.872  21.162
87624W        W88488  28.619   9.510  18.925
87625W        W88489  28.870  10.765  20.980
87626W        W88490  26.811  10.592  18.373
87627W        W88491  26.888   8.811  19.377
87628W        W88492  26.219   8.467  19.547
87629W        W88493  27.442   9.147  19.004
87630W        W88494  27.099  10.577  21.371
87631W        W88495  25.587   8.046  21.221
87632W        W88496  26.223   7.278  21.105
87633W        W88497  28.085   7.725  19.878
87634W        W88498  27.745   8.404  18.471
87635W        W88499  28.206   8.069  21.640
87636W        W88500  25.720   7.739  20.822
87637W        W88501  25.772  10.515  21.787
87638W        W88502  27.359   9.924  18.683
87639W        W88503  25.686   8.404  20.256
87640W        W88504  26.749   8.657  21.417
87641W        W88505  28.847   8.269  20.026
87642W        W88506  28.797   9.427  20.867
87643W        W88507  27.173   8.607  19.794
87644W        W88508  27.877  10.204  20.299
87645W        W88509  26.167   9.367  20.440
87646W        W88510  25.520   8.878  20.084
87647W        W88511  26.689   9.032  21.060
87648W        W88512  28.796   8.808  21.489
87649W        W88513  26.488  10.148  19.964
87650W        W88514  27.649   9.974  20.944
87651W        W88515  26.889   8.360  20.170
87652W        W88516  27.039   9.276  19.945
87653W        W88517  27.844  10.205  21.720
87654W        W88518  27.301   9.381  21.697
87655W        W88519  27.176   9.227  21.168
87656W        W88520  25.493   8.416  21.571
87657W        W88521  28.301  10.101  21.496
87658W        W88522  25.968   7.523  19.396
87659W        W88523  26.558   9.835  20.430
87660W        W88524  28.936   9.732  19.845
87661W        W88525  28.458   7.941  20.175
87662W        W88526  28.651   8.092  18.219
87663W        W88527   0.453   8.959  20.812
87664W        W88528  27.202  10.539  20.459
87665W        W88529  28.743  10.006  19.003
87666W        W88530  26.111  10.938  18.911
87667W        W88531  26.432  10.853  19.314
87668W        W88532  26.224   7.678  20.735
87669W        W88533  28.772   8.421  20.942
87670W        W88534  28.181   8.967  19.579
87671W        W88535  28.100   8.783  18.472
87672W        W88536  27.438   9.936  20.473
87673W        W88537  27.156   8.088  19.739
87674W        W88538  27.697  10.469  20.706
87675W        W88539  28.633   9.115  19.264
87676W        W88540  27.703   7.823  19.115
87677W        W88541  26.262  10.456  19.032
87678W        W88542  25.754   7.977  19.403
87679W        W88543  28.318   8.423  20.027
87680W        W88544  25.968  10.188  20.037
87681W        W88545  27.140  10.401  18.723
87682W        W88546  28.491   8.581  18.198
87683W        W88547  25.755  10.230  20.502
87684W        W88548  26.482   9.961  20.925
87685W        W88549  27.206   9.255  19.454
87686W        W88550  26.691   7.711  20.485
87687W        W88551  28.969   7.312  19.913
87688W        W88552  26.220   9.281  18.138
87689W        W88553  26.027   8.179  18.572
87690W        W88554  25.987  10.246  19.538
87691W        W88555  27.069   9.750  19.570
87692W        W88556  28.468  10.519  21.198
87693W        W88557  27.510   8.256  18.902
87694W        W88558  28.585  10.659  19.664
87695W        W88559  28.475   8.429  21.383
87696W        W88560   0.072  10.008  19.403
87697W        W88561  27.774   9.477  20.983
87698W        W88562  25.656   9.031  19.249
87699W        W88563  26.613   9.436  20.729
87700W        W88564  27.781   8.684  19.075
87701W        W88565  27.765   9.166  19.384
87702W        W88566  26.049   8.524  20.640
87703W        W88567  26.023   8.514  21.342
87704W        W88568  25.970   7.395  19.890
87705W        W88569  27.654   7.823  20.147
87706W        W88570  27.384   7.870  21.496
87707W        W88571  27.814   7.902  18.628
87708W        W88572  28.965  10.549  21.449
87709W        W88573  27.788   7.381  21.353
87710W        W88574  28.736   9.868  21.678
87711W        W88575  28.371   8.004  21.102
87712W        W88576  28.086   7.973  19.417
87713W        W88577  28.463   9.178  21.691
87714W        W88578  26.242  10.620  19.821
87715W        W88579  27.020   8.220  18.790
87716W        W88580  26.404   7.660  21.420
87717W        W88581  28.506   8.271  19.197
87718W        W88582  28.853   8.663  19.143
87719W        W88583  26.678  10.835  21.497
87720W        W88584  26.559   7.301  18.811
87721W        W88585  28.980   7.797  19.655
87722W        W88586   0.015  10.177  18.419
87723W        W88587  25.846   9.324  20.009
87724W        W88588  27.844   7.831  18.134
87725W        W88589  28.891  10.197  20.127
87726W        W88590  28.915   7.544  20.662
87727W        W88591  27.605   8.686  21.273
87728W        W88592  27.713  10.060  19.094
87729W        W88593  27.815   9.397  21.838
87730W        W88594  27.669   7.393  19.841
87731W        W88595  26.232   8.236  20.043
87732W        W88596  25.890   9.428  20.900
87733W        W88597  27.743  10.472  19.757
87734W        W88598  28.855   8.098  20.535
87735W        W88599  27.564  10.680  21.167
87736W        W88600  28.721   9.416  18.436
87737W        W88601  27.408   8.790  19.393
87738W        W88602   0.087   7.453  21.160
87739W        W88603  27.319   9.529  20.778
87740W        W88604  27.416   8.313  20.146
87741W        W88605  28.305   8.742  19.103
87742W        W88606  28.582   8.516  18.711
87743W        W88607  28.343  10.323  19.100
87744W        W88608  28.398   9.800  19.924
87745W        W88609  27.985   9.111  18.893
87746W        W88610  27.544   9.232  19.847
87747W        W88611  28.460   8.917  20.044
87748W        W88612  25.983   8.028  20.456
87749W        W88613  28.510   9.079  21.164
87750W        W88614  28.939  10.733  20.453
87751W        W88615  26.959  10.248  19.751
87752W        W88616  28.055  10.751  20.975
87753W        W88617  27.932   8.045  20.809
87754W        W88618  27.281  10.923  20.815
87755W        W88619  28.645   7.771  19.240
87756W        W88620  28.550   9.070  20.564
87757W        W88621  25.621   8.240  20.742
87758W        W88622  28.510   8.071  19.678
87759W        W88623  28.957   8.282  21.425
87760W        W88624  27.813   9.952  19.856
87761W        W88625  27.241  10.622  19.490
87762W        W88626  26.250   7.711  18.663
87763W        W88627  27.357   7.396  20.288
87764W        W88628  26.249  10.637  18.504
87765W        W88629  26.929   9.190  19.008
87766W        W88630  27.324   9.708  21.269
87767W        W88631  27.209   7.828  19.248
87768W        W88632  28.527   7.534  19.696
87769W        W88633  28.128  10.805  19.937
87770W        W88634  27.654  10.689  20.216
87771W        W88635  26.999   9.564  20.377
87772W        W88636  28.724  10.331  20.709
87773W        W88637  26.383   7.677  19.161
87774W        W88638  26.964  10.082  20.254
87775W        W88639  26.404   7.982  18.227
87776W        W88640  27.310   8.515  20.630
87777W        W88641  28.052   7.507  20.367
87778W        W88642  25.637   9.275  20.476
87779W        W88643  27.122   9.041  18.528
87780W        W88644  26.542   7.489  18.309
87781W        W88645  27.122   8.344  19.299
87782W        W88646  28.091   7.580  20.957
87783W        W88647  26.826   9.603  21.162
87784W        W88648  27.637   9.182  21.380
87785W        W88649  28.108   9.356  21.364
87786W        W88650  27.357   7.478  21.836
87787W        W88651  26.685   7.931  19.949
87788W        W88652  26.230   7.958  19.602
87789W        W88653  25.927  10.722  19.381
87790W        W88654  27.447  10.189  21.392
87791W        W88655  26.818   9.710  18.821
87792W        W88656  27.980   9.079  20.057
87793W        W88657  28.155   8.740  20.432
87794W        W88658  27.409   9.248  20.347
87795W        W88659  27.862   9.841  18.586
87796W        W88660  27.605   7.838  19.617
87797W        W88661  28.988   8.149  19.045
87798W        W88662  25.834  10.667  21.248
87799W        W88663  26.062   9.840  20.630
87800W        W88664  25.603  11.013  19.069
87801W        W88665  27.468   8.011  20.588
87802W        W88666  26.882  10.057  18.417
87803W        W88667  28.664  10.453  18.718
87804W        W88668  27.610   8.878  18.617
87805W        W88669  26.624   8.384  19.158
87806W        W88670  27.385   8.062  18.321
87807W        W88671  27.794   9.759  21.462
87808W        W88672  28.195   7.742  18.964
87809W        W88673  25.666   7.416  18.558
87810W        W88674  26.974   9.910  20.761
87811W        W88675  26.714   9.682  19.955
87812W        W88676  26.595   9.648  18.251
87813W        W88677  25.751  10.327  19.069
87814W        W88678  26.301   8.962  21.413
87815W        W88679  26.872   7.471  21.607
87816W        W88680  27.580   7.614  20.927
87817W        W88681  26.833   7.436  19.316
87818W        W88682  27.649   7.418  18.784
87819W        W88683  25.848   7.507  20.386
87820W        W88684  25.748   8.351  19.758
87821W        W88685  28.556   7.424  20.226
87822W        W88686  26.148   8.137  19.095
87823W        W88687  28.453   7.748  20.645
87824W        W88688  28.870   8.913  18.383
87825W        W88689  26.281   7.713  20.177
87826W        W88690  27.494   8.213  21.067
87827W        W88691  25.607   7.922  18.449
87828W        W88692  26.338   9.436  21.162
87829W        W88693  27.637   8.775  20.317
87830W        W88694  27.413  10.738  18.449
87831W        W88695  25.693   9.250  18.250
87832W        W88696  26.471   9.887  21.430
87833W        W88697  25.976   8.917  20.993
87834W        W88698  27.020   9.113  20.678
87835W        W88699  28.585   7.504  21.088
87836W        W88700   0.099   9.147  21.191
87837W        W88701  28.965   9.130  18.843
87838W        W88702  27.777   9.560  19.025
87839W        W88703  28.415  10.802  18.337
87840W        W88704  27.674   8.852  21.782
87841W        W88705  26.019   9.842  21.706
87842W        W88706   0.194   7.931  21.715
87843W        W88707  28.679   8.594  20.402
87844W        W88708  27.056  10.782  21.853
87845W        W88709  27.005   7.391  18.508
87846W        W88710  28.558   9.888  18.540
87847W        W88711  26.451   8.208  21.346
87848W        W88712  26.926  10.100  21.255
87849W        W88713  28.903   7.927  21.028
87850W        W88714  28.165  10.732  18.785
87851W        W88715  28.301   9.434  20.281
87852W        W88716  26.614   7.876  20.986
87853W        W88717  27.203   8.883  21.562
87854W        W88718  26.696   9.916  19.273
87855W        W88719  28.215   9.416  19.263
87856W        W88720  26.076   8.114  20.991
87857W        W88721  27.431  10.127  19.559
87858W        W88722   0.214   8.769  19.543
87859W        W88723  27.273   7.389  21.300
87860W        W88724  28.394  10.115  20.342
87861W        W88725  28.542  10.588  20.175
87862W        W88726  27.691  10.343  18.627
87863W        W88727  25.623  10.108  21.504
87864W        W88728  26.459   8.202  20.593
87865W        W88729  26.464   7.528  19.708
87866W        W88730  27.888   8.289  20.356
87867W        W88731  27.088   9.555  18.427
87868W        W88732  28.794   9.288  20.119
87869W        W88733  26.124  10.291  21.448
87870W        W88734  28.518  10.865  19.131
87871W        W88735  26.740   7.938  19.427
87872W        W88736  26.350   9.275  19.904
87873W        W88737  26.817  10.914  20.541
87874W        W88738  28.676  10.951  21.489
87875W        W88739  27.903   9.198  20.550
87876W        W88740  25.797   8.582  18.294
87877W        W88741  28.827  10.460  19.249
87878W        W88742  28.596   7.991  18.748
87879W        W88743  26.768   7.377  21.091
87880W        W88744  28.649  10.154  19.646
87881W        W88745  28.607   8.671  19.606
87882W        W88746  26.713   8.387  19.678
87883W        W88747  27.132   8.735  21.062
87884W        W88748  28.128   9.840  21.100
87885W        W88749  26.883   8.302  21.073
87886W        W88750  26.763  10.733  19.685
87887W        W88751  26.178  10.796  21.611
87888W        W88752  26.431  10.355  18.095
87889W        W88753  28.635   9.698  19.408
87890W        W88754  26.417   8.579  21.006
87891W        W88755   0.100   8.524  18.711
87892W        W88756  27.255   9.619  19.086
87893W        W88757  27.975   8.998  21.023
87894W        W88758  27.802   8.566  20.786
87895W        W88759  26.370   8.958  20.665
87896W        W88760  28.495  10.925  20.644
87897W        W88761  28.248   7.566  21.484
87898W        W88762  25.882   7.613  21.307
87899W        W88763  26.459   8.644  20.267
87900W        W88764  26.787   8.370  18.269
87901W        W88765  25.615  10.232  21.002
87902W        W88766  27.099   8.832  20.254
87903W        W88767  26.895   7.885  18.402
87904W        W88768  26.378   8.961  19.483
87905W        W88769  25.739  10.727  20.744
87906W        W88770  28.480   9.035  18.715
87907W        W88771  28.684   7.855  21.498
87908W        W88772  28.164   9.942  19.465
87909W        W88773  25.720   8.916  21.456
87910W        W88774  28.606   7.476  18.775
87911W        W88775  28.224   9.845  18.956
87912W        W88776  27.216   8.696  18.930
87913W        W88777  28.294   7.708  18.418
87914W        W88778  28.353   8.253  20.597
87915W        W88779  25.914   8.878  19.730
87916W        W88780  26.325   9.788  19.605
87917W        W88781  28.126   8.470  19.501
87918W        W88782  27.134   7.860  20.200
87919W        W88783   0.035   9.883  20.780
87920W        W88784  28.957   7.764  20.167
87921W        W88785  25.704  10.609  19.859
87922W        W88786  25.945   9.844  19.229
87923W        W88787  25.955   7.639  21.876
87924W        W88788  27.133  10.271  21.793
87925W        W88789  28.988   9.242  19.616
87926W        W88790  28.210   9.459  18.600
87927W        W88791  27.751  11.008  20.601
87928W        W88792  28.261   9.658  21.751
87929W        W88793  27.174   7.280  18.965
87930W        W88794  27.872   8.203  19.856
87931W        W88795  25.698   9.759  20.242
87932W        W88796  26.814   7.746  18.895
87933W        W88797  26.803   9.224  21.518
87934W        W88798  27.634   8.304  19.404
87935W        W88799  28.020   9.794  20.596
87936W        W88800  26.098  10.331  20.902
87937W        W88801  26.645  10.325  21.647
87938W        W88802  26.527   8.151  18.699
87939W        W88803  28.035   8.249  18.972
87940W        W88804  27.921  10.312  21.220
87941W        W88805  26.719   8.871  19.871
87942W        W88806  26.341  10.712  20.651
87943W        W88807  28.914  10.674  18.318
87944W        W88808  25.890   9.405  21.422
87945W        W88809  27.788   9.567  20.199
87946W        W88810  26.703   9.374  19.523
87947W        W88811  26.745  10.370  20.669
87948W        W88812  27.165   7.568  19.704
87949W        W88813  25.564   9.624  18.615
87950W        W88814  27.241   8.542  18.433
87951W        W88815  25.996   9.353  19.501
87952W        W88816  27.126   7.824  21.024
87953W        W88817  28.810   7.625  18.324
87954W        W88818  28.930   9.347  21.623
87955W        W88819  27.536  10.632  21.693
87956W        W88820   0.052   9.679  21.261
87957W        W88821  28.608  10.385  21.774
87958W        W88822  26.391  10.938  20.198
87959W        W88823   0.082   9.533  19.183
87960W        W88824  27.731   8.705  19.787
87961W        W88825  27.508   7.396  19.344
87962W        W88826  26.498  10.336  19.482
87963W        W88827  26.969   8.122  20.615
87964W        W88828  26.864   7.424  20.085
87965W        W88829  25.741  10.684  18.633
87966W        W88830  27.574   9.638  19.502
87967W        W88831  26.524  10.439  21.162
87968W        W88832  25.886   9.398  18.965
87969W        W88833  25.838   7.884  19.973
87970W        W88834  27.336   9.723  20.001
87971W        W88835  25.810   7.759  18.931
87972W        W88836  28.323   8.653  20.919
87973W        W88837  28.216   8.222  18.478
87974W        W88838  28.745   9.732  20.352
87975W        W88839  27.404  10.248  20.063
87976W        W88840  26.848  10.552  19.159
87977W        W88841  27.934   7.348  18.332
87978W        W88842  25.970  10.646  20.284
87979W        W88843  27.709   8.264  21.647
87980W        W88844  26.011   8.047  21.541
87981W        W88845  25.786   8.511  19.265
87982W        W88846  26.762   8.666  18.692
87983W        W88847  28.125   8.824  21.484
87984W        W88848  26.666   9.160  20.296
87985W        W88849  28.021   7.463  19.423
87986W        W88850  27.204  10.729  19.979
87987W        W88851  28.191  10.267  20.791
87988W        W88852  28.214  10.295  19.884
87989W        W88853  28.007   9.484  19.734
87990W        W88854  27.302   7.779  18.738
87991W        W88855  28.946   7.341  19.384
87992W        W88856  26.618   8.894  18.217
87993W        W88857  28.951   8.303  19.521
87994W        W88858  27.564   9.405  18.582
87995W        W88859  28.547   9.596  21.289
87996W        W88860  28.192  10.248  18.591
87997W        W88861  26.873   7.960  21.463
87998W        W88862  26.800   8.634  20.658
87999W        W88863  28.743  10.089  21.197
88000W        W88864  27.857   7.890  21.292
88001W        W88865  25.584   8.586  21.092
88002W        W88866  27.504   9.005  20.819
88003W        W88867  25.824   9.776  19.739
88004W        W88868  25.998   8.897  20.276
88005W        W88869  28.272   9.407  20.848
88006W        W88870  28.131  10.639  21.570
88007W        W88871  28.000   8.371  21.220
88008W        W88872  28.128  10.607  19.454
88009W        W88873  27.261  10.313  20.918
88010W        W88874  26.737  10.551  20.173
88011W        W88875  28.519   9.859  20.788
88012W        W88876  27.458   9.860  21.836
88013W        W88877  26.193   9.735  20.097
88014W        W88878  28.491   9.333  19.726
88015W        W88879  28.113  10.649  20.444
88016W        W88880  26.293  10.263  20.425
88017W        W88881  27.218   8.374  21.474
88018W        W88882  27.512  10.544  19.068
88019W        W88883  26.968   9.778  21.650
88020W        W88884  27.155  10.122  19.144
88021W        W88885  26.293   8.490  18.138
88022W        W88886  25.543  11.039  25.337
88023W        W88887  26.027   9.901  24.828
88024W        W88888  28.630   9.497  22.561
88025W        W88889  28.916  10.622  24.558
88026W        W88890  26.608  10.620  22.068
88027W        W88891  26.891   9.008  23.205
88028W        W88892  26.267   8.579  23.524
88029W        W88893  27.459   9.241  22.684
88030W        W88894  27.102  10.618  25.004
88031W        W88895  25.690   8.128  24.932
88032W        W88896  26.236   7.373  24.802
88033W        W88897  28.039   7.710  23.553
88034W        W88898  27.917   8.623  22.329
88035W        W88899  28.292   8.121  25.300
88036W        W88900  25.855   7.727  24.578
88037W        W88901  25.768  10.580  25.487
88038W        W88902  27.097   9.962  22.205
88039W        W88903  25.463   8.343  23.965
88040W        W88904  26.681   8.614  25.182
88041W        W88905  28.793   8.285  23.678
88042W        W88906  28.791   9.443  24.540
88043W        W88907  27.208   8.765  23.550
88044W        W88908  27.786  10.141  23.945
88045W        W88909  26.094   9.421  24.088
88046W        W88910  25.461   8.845  23.762
88047W        W88911  26.687   9.010  24.853
88048W        W88912  28.732   8.746  25.114
88049W        W88913  26.511  10.216  23.588
88050W        W88914  27.595   9.991  24.582
88051W        W88915  26.873   8.442  23.981
88052W        W88916  27.011   9.288  23.644
88053W        W88917  27.823  10.241  25.371
88054W        W88918  27.257   9.391  25.373
88055W        W88919  27.158   9.208  24.887
88056W        W88920  25.543   8.447  25.336
88057W        W88921  28.387  10.180  25.066
88058W        W88922  25.940   7.463  23.051
88059W        W88923  26.637   9.967  24.118
88060W        W88924  28.966   9.690  23.412
88061W        W88925  28.487   7.838  23.823
88062W        W88926  28.647   8.143  21.925
88063W        W88927   0.053   8.794  24.342
88064W        W88928  27.188  10.646  24.064
88065W        W88929  28.779  10.003  22.527
88066W        W88930  25.943  10.719  22.667
88067W        W88931  26.376  10.732  23.031
88068W        W88932  26.271   7.527  24.314
88069W        W88933  28.688   8.436  24.601
88070W        W88934  28.235   8.992  23.213
88071W        W88935  28.122   8.975  22.003
88072W        W88936  27.443   9.815  24.119
88073W        W88937  27.240   8.142  23.362
88074W        W88938  27.786  10.442  24.375
88075W        W88939  28.624   9.098  22.880
88076W        W88940  27.728   7.779  22.730
88077W        W88941  26.281  10.337  22.702
88078W        W88942  25.636   7.837  23.282
88079W        W88943  28.280   8.344  23.778
88080W        W88944  25.943  10.249  23.681
88081W        W88945  27.063  10.488  22.286
88082W        W88946  28.478   8.630  21.866
88083W        W88947  25.782  10.266  24.188
88084W        W88948  26.526  10.034  24.615
88085W        W88949  27.232   9.394  23.147
88086W        W88950  26.624   7.863  24.146
88087W        W88951   0.124   7.303  23.536
88088W        W88952  26.368   9.442  21.685
88089W        W88953  25.966   8.122  22.051
88090W        W88954  26.155  10.237  23.207
88091W        W88955  26.947   9.839  23.153
88092W        W88956  28.560  10.667  24.943
88093W        W88957  27.552   8.231  22.477
88094W        W88958  28.758  10.588  23.276
88095W        W88959  28.286   8.531  24.970
88096W        W88960   0.047  10.151  23.193
88097W        W88961  27.780   9.517  24.613
88098W        W88962  25.539   9.060  22.865
88099W        W88963  26.500   9.554  24.397
88100W        W88964  27.810   8.691  22.838
88101W        W88965  27.775   9.154  23.061
88102W        W88966  26.014   8.611  24.395
88103W        W88967  25.993   8.529  25.092
88104W        W88968  25.860   7.464  23.581
88105W        W88969  27.558   7.819  23.772
88106W        W88970  27.380   7.932  25.209
88107W        W88971  27.843   7.585  22.265
88108W        W88972   0.072  10.621  25.050
88109W        W88973  27.744   7.547  25.163
88110W        W88974  28.765   9.885  25.310
88111W        W88975  28.333   8.049  24.786
88112W        W88976  28.089   7.910  23.063
88113W        W88977  28.430   9.164  25.386
88114W        W88978  26.259  10.653  23.542
88115W        W88979  27.063   8.070  22.407
88116W        W88980  26.464   7.686  25.150
88117W        W88981  28.501   8.215  22.862
88118W        W88982  28.835   8.624  22.899
88119W        W88983  26.665  10.814  25.217
88120W        W88984  26.461   7.338  22.458
88121W        W88985  28.870   7.741  23.422
88122W        W88986  28.967  10.165  22.060
88123W        W88987  25.723   9.337  23.700
88124W        W88988  27.833   7.707  21.769
88125W        W88989  28.971  10.323  23.700
88126W        W88990  28.809   7.561  24.204
88127W        W88991  27.577   8.772  24.966
88128W        W88992  27.524   9.962  22.517
88129W        W88993  27.794   9.443  25.514
88130W        W88994  27.631   7.367  23.517
88131W        W88995  25.964   8.428  23.918
88132W        W88996  25.933   9.450  24.573
88133W        W88997  27.724  10.684  23.326
88134W        W88998  28.715   8.125  24.168
88135W        W88999  27.609  10.706  24.801
88136W        W89000  28.739   9.503  22.064
88137W        W89001  27.356   8.855  23.038
88138W        W89002   0.011   7.446  24.721
88139W        W89003  27.290   9.514  24.497
88140W        W89004  27.383   8.353  23.821
88141W        W89005  28.325   8.682  22.783
88142W        W89006  28.408   8.410  22.339
88143W        W89007  28.520  10.269  22.902
88144W        W89008  28.192   9.853  23.675
88145W        W89009  28.061   9.084  22.611
88146W        W89010  27.513   9.202  23.523
88147W        W89011  28.496   8.981  23.683
88148W        W89012  26.099   8.006  24.194
88149W        W89013  28.517   9.129  24.858
88150W        W89014  28.923  10.778  24.053
88151W        W89015  27.002  10.245  23.453
88152W        W89016  28.111  10.763  24.683
88153W        W89017  27.898   8.017  24.498
88154W        W89018  27.267  10.972  24.521
88155W        W89019  28.701   7.756  22.911
88156W        W89020  28.620   9.105  24.191
88157W        W89021  25.678   8.208  24.409
88158W        W89022  28.449   8.060  23.367
88159W        W89023  28.746   8.224  25.067
88160W        W89024  27.741   9.958  23.438
88161W        W89025  27.205  10.619  23.106
88162W        W89026  26.043   7.665  22.389
88163W        W89027  27.265   7.505  24.075
88164W        W89028  26.103  10.761  22.119
88165W        W89029  26.995   9.198  22.478
88166W        W89030  27.312   9.722  24.963
88167W        W89031  27.259   7.891  22.883
88168W        W89032  28.420   7.531  23.269
88169W        W89033  28.127  10.864  23.621
88170W        W89034  27.692  10.695  23.899
88171W        W89035  26.972   9.587  24.087
88172W        W89036  28.779  10.285  24.197
88173W        W89037  26.379   7.708  22.829
88174W        W89038  27.084  10.145  23.948
88175W        W89039  26.457   7.994  21.818
88176W        W89040  27.300   8.536  24.312
88177W        W89041  28.179   7.435  24.001
88178W        W89042  25.573   9.316  24.198
88179W        W89043  27.246   9.003  22.065
88180W        W89044  26.464   7.483  21.920
88181W        W89045  27.177   8.403  22.816
88182W        W89046  28.046   7.601  24.758
88183W        W89047  26.840   9.611  24.780
88184W        W89048  27.633   9.282  25.047
88185W        W89049  28.120   9.409  25.000
88186W        W89050  27.442   7.573  25.579
88187W        W89051  26.430   8.212  23.834
88188W        W89052  26.127   8.046  23.421
88189W        W89053  25.888  10.672  23.183
88190W        W89054  27.449  10.228  25.015
88191W        W89055  26.738   9.656  22.403
88192W        W89056  27.987   9.096  23.669
88193W        W89057  28.143   8.782  24.041
88194W        W89058  27.391   9.307  24.024
88195W        W89059  27.918   9.861  22.110
88196W        W89060  27.624   7.809  23.259
88197W        W89061   0.003   8.172  22.686
88198W        W89062  25.797  10.656  24.967
88199W        W89063  26.125   9.895  24.311
88200W        W89064  25.498  10.954  22.634
88201W        W89065  27.464   7.999  24.239
88202W        W89066  26.638  10.191  22.355
88203W        W89067  28.611  10.476  22.363
88204W        W89068  27.705   9.115  22.251
88205W        W89069  26.796   8.049  23.032
88206W        W89070  27.466   7.963  22.031
88207W        W89071  27.804   9.813  25.072
88208W        W89072  28.232   7.662  22.630
88209W        W89073  25.633   7.347  22.206
88210W        W89074  27.046   9.961  24.444
88211W        W89075  26.787   9.781  23.653
88212W        W89076  26.565   9.874  21.946
88213W        W89077  25.766  10.255  22.843
88214W        W89078  26.279   8.958  25.197
88215W        W89079  26.929   7.643  25.363
88216W        W89080  27.525   7.739  24.718
88217W        W89081  26.806   7.538  23.144
88218W        W89082  27.673   7.246  22.642
88219W        W89083  25.821   7.573  24.091
88220W        W89084  25.678   8.373  23.484
88221W        W89085  28.639   7.364  23.736
88222W        W89086  25.914   7.960  22.862
88223W        W89087  28.351   7.778  24.348
88224W        W89088  28.843   8.970  21.985
88225W        W89089  26.262   7.709  23.817
88226W        W89090  27.400   8.249  24.755
88227W        W89091  25.547   7.842  22.226
88228W        W89092  26.352   9.399  24.882
88229W        W89093  27.589   8.838  23.923
88230W        W89094  27.470  10.813  22.232
88231W        W89095  25.686   9.221  21.866
88232W        W89096  26.503   9.856  25.090
88233W        W89097  25.999   8.978  24.762
88234W        W89098  26.890   9.208  24.427
88235W        W89099  28.509   7.400  24.681
88236W        W89100   0.044   9.069  24.770
88237W        W89101  28.971   9.117  22.457
88238W        W89102  27.843   9.548  22.527
88239W        W89103  28.450  10.826  21.954
88240W        W89104  27.559   8.939  25.468
88241W        W89105  26.066   9.866  25.361
88242W        W89106   0.051   7.886  25.377
88243W        W89107  28.644   8.614  24.062
88244W        W89108  27.100  10.835  25.492
88245W        W89109  26.926   7.381  22.193
88246W        W89110  28.461   9.977  22.110
88247W        W89111  26.383   8.194  25.096
88248W        W89112  26.950  10.125  24.918
88249W        W89113  28.795   7.906  24.611
88250W        W89114  28.188  10.809  22.412
88251W        W89115  28.290   9.422  23.937
88252W        W89116  26.520   7.846  24.655
88253W        W89117  27.072   8.910  25.300
88254W        W89118  26.563   9.906  22.799
88255W        W89119  28.233   9.454  22.917
88256W        W89120  26.116   8.178  24.676
88257W        W89121  27.381  10.124  23.092
88258W        W89122   0.056   8.658  23.386
88259W        W89123  27.269   7.442  25.049
88260W        W89124  28.286  10.198  24.051
88261W        W89125  28.529  10.567  23.755
88262W        W89126  27.535  10.303  22.125
88263W        W89127  25.703  10.163  25.182
88264W        W89128  26.485   8.307  24.349
88265W        W89129  26.332   7.561  23.344
88266W        W89130  28.003   7.950  24.003
88267W        W89131  26.887   9.394  21.996
88268W        W89132  28.786   9.406  23.796
88269W        W89133  26.203  10.329  25.092
88270W        W89134  28.558  10.802  22.820
88271W        W89135  26.686   7.891  23.519
88272W        W89136  26.227   9.370  23.588
88273W        W89137  26.811  10.959  24.267
88274W        W89138  28.806  11.002  25.268
88275W        W89139  27.874   9.216  24.188
88276W        W89140  25.867   8.615  21.853
88277W        W89141  28.980  10.479  22.799
88278W        W89142  28.618   7.937  22.406
88279W        W89143  26.767   7.397  24.857
88280W        W89144  28.560  10.130  23.416
88281W        W89145  28.550   8.588  23.331
88282W        W89146  26.798   8.394  23.469
88283W        W89147  27.103   8.691  24.817
88284W        W89148  28.142   9.878  24.696
88285W        W89149  26.772   8.303  24.782
88286W        W89150  26.773  10.705  23.387
88287W        W89151  26.166  10.831  25.291
88288W        W89152  26.225  10.278  21.957
88289W        W89153  28.665   9.777  22.998
88290W        W89154  26.375   8.623  24.758
88291W        W89155  28.903   8.589  22.379
88292W        W89156  27.159   9.661  22.702
88293W        W89157  27.928   9.033  24.679
88294W        W89158  27.790   8.402  24.131
88295W        W89159  26.368   9.055  24.423
88296W        W89160  28.524  10.920  24.377
88297W        W89161  28.233   7.603  25.290
88298W        W89162  25.951   7.703  25.085
88299W        W89163  26.400   8.708  24.039
88300W        W89164  26.864   8.341  21.845
88301W        W89165  25.612  10.259  24.681
88302W        W89166  27.061   8.921  24.031
88303W        W89167  26.965   7.836  21.956
88304W        W89168  26.363   9.017  23.250
88305W        W89169  25.799  10.783  24.454
88306W        W89170  28.494   8.949  22.364
88307W        W89171  28.680   7.715  25.064
88308W        W89172  28.173   9.928  23.136
88309W        W89173  25.716   8.962  25.175
88310W        W89174  28.614   7.408  22.363
88311W        W89175  28.266   9.869  22.594
88312W        W89176  27.429   8.750  22.496
88313W        W89177  28.316   7.704  22.018
88314W        W89178  28.267   8.319  24.312
88315W        W89179  25.867   8.903  23.448
88316W        W89180  26.428   9.786  23.287
88317W        W89181  28.103   8.416  23.169
88318W        W89182  27.059   7.960  23.875
88319W        W89183   0.071   9.856  24.374
88320W        W89184   0.063   7.900  23.880
88321W        W89185  25.569  10.652  23.575
88322W        W89186  26.065   9.825  22.907
88323W        W89187  26.150   7.541  25.542
88324W        W89188  27.180  10.314  25.438
88325W        W89189  28.879   9.156  23.342
88326W        W89190  28.238   9.430  22.221
88327W        W89191  27.765  10.975  24.349
88328W        W89192  28.253   9.757  25.349
88329W        W89193  27.129   7.190  22.666
88330W        W89194  27.819   8.206  23.547
88331W        W89195  25.768   9.804  23.921
88332W        W89196  26.871   7.635  22.650
88333W        W89197  26.763   9.351  25.228
88334W        W89198  27.637   8.246  23.012
88335W        W89199  28.013   9.769  24.216
88336W        W89200  26.117  10.367  24.582
88337W        W89201  26.676  10.304  25.329
88338W        W89202  26.555   7.828  22.300
88339W        W89203  28.032   8.227  22.659
88340W        W89204  27.929  10.305  24.858
88341W        W89205  26.696   8.862  23.657
88342W        W89206  26.354  10.733  24.315
88343W        W89207  28.955  10.710  22.055
88344W        W89208  25.882   9.441  25.095
88345W        W89209  27.772   9.573  23.811
88346W        W89210  26.741   9.425  22.918
88347W        W89211  26.787  10.412  24.339
88348W        W89212  27.172   7.635  23.482
88349W        W89213  25.574   9.598  22.183
88350W        W89214  27.373   8.482  21.998
88351W        W89215  25.877   9.352  23.172
88352W        W89216  27.023   7.847  24.831
88353W        W89217  28.843   7.659  21.981
88354W        W89218  28.879   9.327  25.179
88355W        W89219  27.562  10.687  25.311
88356W        W89220   0.075   9.704  24.881
88357W        W89221  28.775  10.415  25.404
88358W        W89222  26.337  11.028  23.900
88359W        W89223   0.052   9.411  22.878
88360W        W89224  27.729   8.721  23.389
88361W        W89225  27.385   7.415  23.048
88362W        W89226  26.660  10.303  23.086
88363W        W89227  26.994   8.121  24.376
88364W        W89228  26.794   7.504  23.833
88365W        W89229  25.851  10.352  22.318
88366W        W89230  27.639   9.674  22.985
88367W        W89231  26.610  10.509  24.810
88368W        W89232  25.753   9.480  22.652
88369W        W89233  25.768   7.959  23.781
88370W        W89234  27.302   9.731  23.605
88371W        W89235  25.601   7.593  22.679
88372W        W89236  28.345   8.798  24.508
88373W        W89237  27.973   8.103  22.137
88374W        W89238  28.676   9.899  23.862
88375W        W89239  27.458  10.346  23.613
88376W        W89240  26.828  10.649  22.734
88377W        W89241  27.869   7.153  21.958
88378W        W89242  25.942  10.691  23.947
88379W        W89243  27.849   8.458  25.354
88380W        W89244  25.958   8.101  25.428
88381W        W89245  25.715   8.452  22.963
88382W        W89246  26.976   8.594  22.309
88383W        W89247  28.023   8.927  25.178
88384W        W89248  26.587   9.246  23.981
88385W        W89249  27.933   7.417  23.081
88386W        W89250  27.272  10.834  23.575
88387W        W89251  28.374  10.346  24.543
88388W        W89252  28.072  10.352  23.583
88389W        W89253  27.967   9.503  23.357
88390W        W89254  27.340   7.620  22.414
88391W        W89255  28.989   7.337  23.031
88392W        W89256  26.779   8.863  21.891
88393W        W89257  28.909   8.199  23.188
88394W        W89258  27.370   9.512  22.227
88395W        W89259  28.549   9.672  24.911
88396W        W89260  28.158  10.410  22.065
88397W        W89261  26.888   8.138  25.253
88398W        W89262  26.782   8.708  24.420
88399W        W89263  28.800  10.133  24.756
88400W        W89264  27.851   8.058  25.008
88401W        W89265  25.606   8.609  24.762
88402W        W89266  27.434   9.014  24.474
88403W        W89267  25.923   9.799  23.422
88404W        W89268  25.930   8.944  23.986
88405W        W89269  28.275   9.396  24.483
88406W        W89270  28.108  10.649  25.199
88407W        W89271  27.884   8.509  24.640
88408W        W89272  28.235  10.617  23.177
88409W        W89273  27.269  10.418  24.544
88410W        W89274  26.676  10.609  23.883
88411W        W89275  28.533   9.853  24.368
88412W        W89276  27.466   9.870  25.455
88413W        W89277  26.266   9.830  23.807
88414W        W89278  28.471   9.483  23.397
88415W        W89279  28.159  10.698  24.114
88416W        W89280  26.282  10.314  24.052
88417W        W89281  27.310   8.446  25.262
88418W        W89282  27.431  10.470  22.650
88419W        W89283  26.963   9.830  25.338
88420W        W89284  27.019  10.157  22.712
88421W        W89285  26.368   8.518  21.745
88422W        W89286  25.605  10.976  28.851
88423W        W89287  25.995   9.815  28.469
88424W        W89288  28.642   9.486  26.134
88425W        W89289  28.856  10.615  28.308
88426W        W89290  26.643  10.680  25.712
88427W        W89291  26.753   8.801  26.570
88428W        W89292  26.271   8.613  26.788
88429W        W89293  27.210   9.305  26.273
88430W        W89294  27.013  10.613  28.512
88431W        W89295  25.794   8.107  28.494
88432W        W89296  26.227   7.277  28.262
88433W        W89297  28.046   7.718  27.220
88434W        W89298  27.744   8.590  25.856
88435W        W89299  28.274   8.160  28.809
88436W        W89300  25.847   7.729  28.048
88437W        W89301  25.789  10.510  28.975
88438W        W89302  27.061   9.964  25.838
88439W        W89303  25.663   8.466  27.558
88440W        W89304  26.570   8.487  28.838
88441W        W89305  28.846   8.283  27.334
88442W        W89306  28.757   9.558  28.157
88443W        W89307  27.342   8.665  27.113
88444W        W89308  27.622  10.111  27.466
88445W        W89309  26.173   9.426  27.756
88446W        W89310  25.514   8.928  27.410
88447W        W89311  26.639   9.015  28.345
88448W        W89312  28.792   8.797  28.658
88449W        W89313  26.432  10.261  27.214
88450W        W89314  27.650  10.014  28.271
88451W        W89315  26.968   8.430  27.462
88452W        W89316  26.931   9.393  27.120
88453W        W89317  27.951  10.169   0.046
88454W        W89318  27.086   9.363  28.895
88455W        W89319  27.115   9.184  28.410
88456W        W89320  25.621   8.359  28.956
88457W        W89321  28.342  10.101  28.742
88458W        W89322  26.017   7.619  26.638
88459W        W89323  26.540   9.858  27.761
88460W        W89324  28.926   9.740  27.077
88461W        W89325  28.407   7.997  27.463
88462W        W89326  28.677   8.165  25.660
88463W        W89327   0.062   8.840  27.915
88464W        W89328  27.119  10.569  27.815
88465W        W89329  28.798   9.959  26.204
88466W        W89330  25.996  11.128  26.170
88467W        W89331  26.320  10.825  26.516
88468W        W89332  26.323   7.665  27.795
88469W        W89333  28.612   8.684  28.170
88470W        W89334  28.214   9.170  26.859
88471W        W89335  28.027   8.991  25.686
88472W        W89336  27.383   9.894  27.854
88473W        W89337  27.212   8.175  27.052
88474W        W89338  27.619  10.376  27.914
88475W        W89339  28.681   9.136  26.502
88476W        W89340  27.637   7.633  26.466
88477W        W89341  26.199  10.457  26.169
88478W        W89342  25.709   8.011  26.674
88479W        W89343  28.336   8.523  27.263
88480W        W89344  25.933  10.170  27.146
88481W        W89345  27.074  10.488  25.913
88482W        W89346  28.383   8.635  25.497
88483W        W89347  25.740  10.178  27.666
88484W        W89348  26.458   9.914  28.276
88485W        W89349  26.818   9.300  26.631
88486W        W89350  26.813   7.823  27.786
88487W        W89351  28.972   7.384  27.215
88488W        W89352  26.308   9.414  25.454
88489W        W89353  25.988   8.376  25.910
88490W        W89354  26.046  10.296  26.644
88491W        W89355  26.801   9.815  26.749
88492W        W89356  28.383  10.519  28.451
88493W        W89357  27.495   8.296  26.214
88494W        W89358  28.710  10.787  27.009
88495W        W89359  28.305   8.640  28.611
88496W        W89360   0.032  10.004  26.650
88497W        W89361  27.743   9.518  28.285
88498W        W89362  25.611   9.008  26.523
88499W        W89363  26.605   9.440  28.045
88500W        W89364  27.633   8.751  26.408
88501W        W89365  27.684   9.258  26.489
88502W        W89366  26.145   8.531  27.869
88503W        W89367  26.058   8.496  28.703
88504W        W89368  25.940   7.310  27.033
88505W        W89369  27.727   7.897  27.569
88506W        W89370  27.397   7.940  28.790
88507W        W89371  27.864   7.949  26.076
88508W        W89372  28.805  10.329  28.762
88509W        W89373  27.762   7.391  28.673
88510W        W89374  28.724   9.879   0.023
88511W        W89375  28.368   7.968  28.337
88512W        W89376  27.981   8.023  26.604
88513W        W89377  28.404   9.074  28.940
88514W        W89378  26.184  10.640  26.983
88515W        W89379  26.991   8.309  26.141
88516W        W89380  26.483   7.622  28.758
88517W        W89381  28.445   8.332  26.504
88518W        W89382  28.870   8.669  26.415
88519W        W89383  26.604  10.885  28.901
88520W        W89384  26.688   7.230  26.207
88521W        W89385  28.761   7.830  27.085
88522W        W89386   0.003  10.072  25.731
88523W        W89387  25.975   9.319  27.287
88524W        W89388  27.859   7.902  25.513
88525W        W89389   0.018  10.255  27.465
88526W        W89390  28.996   7.448  28.003
88527W        W89391  27.340   8.820  28.713
88528W        W89392  27.351   9.815  26.276
88529W        W89393  27.918   9.241   0.110
88530W        W89394  27.588   7.458  27.280
88531W        W89395  26.168   8.392  27.288
88532W        W89396  25.858   9.414  28.177
88533W        W89397  27.606  10.746  26.768
88534W        W89398  28.537   8.219  27.903
88535W        W89399  27.519  10.662  28.366
88536W        W89400  28.783   9.438  25.656
88537W        W89401  27.247   8.990  26.701
88538W        W89402   0.086   7.612  28.499
88539W        W89403  27.335   9.404  28.001
88540W        W89404  27.490   8.365  27.531
88541W        W89405  28.278   8.828  26.406
88542W        W89406  28.512   8.515  26.027
88543W        W89407  28.484  10.133  26.585
88544W        W89408  28.247  10.080  27.077
88545W        W89409  27.394   9.181  27.170
88546W        W89410  28.457   9.055  27.314
88547W        W89411  25.990   8.066  27.660
88548W        W89412  28.518   9.140  28.423
88549W        W89413  28.888  10.775  27.495
88550W        W89414  26.921  10.227  27.082
88551W        W89415  28.012  10.805  28.228
88552W        W89416  28.087   7.932  27.921
88553W        W89417  27.168  10.993  28.103
88554W        W89418  28.623   7.823  26.552
88555W        W89419  28.623   9.132  27.878
88556W        W89420  25.716   8.284  28.027
88557W        W89421  28.349   8.095  26.954
88558W        W89422  28.743   8.307  28.522
88559W        W89423  27.729  10.009  26.971
88560W        W89424  27.074  10.546  26.694
88561W        W89425  26.093   7.883  25.906
88562W        W89426  27.243   7.427  27.699
88563W        W89427  26.148  10.817  25.800
88564W        W89428  26.724   9.166  26.131
88565W        W89429  27.287   9.707  28.494
88566W        W89430  27.276   7.970  26.557
88567W        W89431  28.368   7.542  26.879
88568W        W89432  28.217  10.909  27.246
88569W        W89433  27.522  10.691  27.509
88570W        W89434  27.003   9.568  27.628
88571W        W89435  28.603  10.379  27.870
88572W        W89436  26.447   7.779  26.432
88573W        W89437  26.980  10.104  27.605
88574W        W89438  26.471   8.004  25.550
88575W        W89439  27.260   8.689  28.082
88576W        W89440  28.049   7.456  27.696
88577W        W89441  25.679   9.297  27.721
88578W        W89442  27.114   9.090  25.785
88579W        W89443  26.551   7.627  25.882
88580W        W89444  27.118   8.458  26.626
88581W        W89445  28.077   7.543  28.249
88582W        W89446  26.783   9.574  28.526
88583W        W89447  27.562   9.313  28.737
88584W        W89448  28.081   9.349  28.624
88585W        W89449  27.474   7.563   0.129
88586W        W89450  26.776   7.991  27.267
88587W        W89451  26.243   8.078  26.849
88588W        W89452  25.819  10.745  26.519
88589W        W89453  27.400  10.205  28.687
88590W        W89454  26.375   9.564  26.000
88591W        W89455  27.937   9.204  27.335
88592W        W89456  28.193   8.871  27.716
88593W        W89457  27.539   9.521  27.529
88594W        W89458  27.952   9.900  25.742
88595W        W89459  27.614   7.851  26.945
88596W        W89460  28.892   8.167  26.284
88597W        W89461  25.729  10.617  28.469
88598W        W89462  26.037   9.873  27.954
88599W        W89463  25.420  10.975  26.305
88600W        W89464  27.653   8.194  28.008
88601W        W89465  26.625  10.226  25.943
88602W        W89466  28.746  10.475  25.950
88603W        W89467  27.583   9.067  25.984
88604W        W89468  26.577   8.325  26.493
88605W        W89469  27.464   8.156  25.691
88606W        W89470  27.795   9.791  28.733
88607W        W89471  28.147   7.598  26.364
88608W        W89472  25.667   7.638  25.734
88609W        W89473  26.944   9.820  28.097
88610W        W89474  26.690   9.813  27.271
88611W        W89475  26.519   9.878  25.601
88612W        W89476  25.703  10.235  26.267
88613W        W89477  26.302   8.944  28.747
88614W        W89478  26.958   7.663  28.953
88615W        W89479  27.550   7.725  28.281
88616W        W89480  26.890   7.473  26.617
88617W        W89481  27.738   7.452  26.007
88618W        W89482  25.887   7.546  27.559
88619W        W89483  25.702   8.312  27.079
88620W        W89484  28.495   7.472  27.391
88621W        W89485  26.086   8.148  26.359
88622W        W89486  28.515   7.662  27.874
88623W        W89487  28.847   8.897  25.600
88624W        W89488  26.297   7.872  27.325
88625W        W89489  27.282   8.214  28.380
88626W        W89490  25.543   8.135  25.757
88627W        W89491  26.301   9.397  28.467
88628W        W89492  27.822   8.714  27.359
88629W        W89493  27.503  10.775  25.833
88630W        W89494  25.687   9.294  25.576
88631W        W89495  26.401   9.854  28.791
88632W        W89496  26.024   8.932  28.298
88633W        W89497  26.940   9.087  27.887
88634W        W89498  28.602   7.477  28.340
88635W        W89499   0.022   9.145  28.333
88636W        W89500  28.993   9.095  26.065
88637W        W89501  27.825   9.521  26.072
88638W        W89502  28.462  10.794  25.597
88639W        W89503  27.609   8.831   0.173
88640W        W89504  25.980   9.682   0.044
88641W        W89505   0.163   7.915  28.918
88642W        W89506  28.662   8.650  27.648
88643W        W89507  27.112  10.778  28.989
88644W        W89508  27.022   7.450  25.852
88645W        W89509  28.530   9.881  25.772
88646W        W89510  26.336   8.082  28.608
88647W        W89511  26.872  10.092  28.573
88648W        W89512  28.851   7.926  28.182
88649W        W89513  28.147  10.892  26.029
88650W        W89514  28.279   9.448  27.627
88651W        W89515  26.505   7.716  28.260
88652W        W89516  26.827   8.930  28.807
88653W        W89517  26.435  10.004  26.362
88654W        W89518  28.211   9.343  26.378
88655W        W89519  26.197   8.098  28.125
88656W        W89520  27.270  10.057  26.732
88657W        W89521   0.040   8.755  26.998
88658W        W89522  27.254   7.434  28.607
88659W        W89523  28.126  10.158  27.581
88660W        W89524  28.465  10.481  27.375
88661W        W89525  27.524  10.228  25.831
88662W        W89526  25.676  10.029  28.790
88663W        W89527  26.506   8.217  27.673
88664W        W89528  26.502   7.621  26.937
88665W        W89529  28.046   8.354  27.654
88666W        W89530  26.832   9.499  25.728
88667W        W89531  28.771   9.480  27.488
88668W        W89532  26.130  10.285  28.676
88669W        W89533  28.483  10.910  26.528
88670W        W89534  26.816   7.978  26.758
88671W        W89535  26.411   9.452  27.034
88672W        W89536  26.673  10.857  27.986
88673W        W89537  28.666  10.849  28.738
88674W        W89538  27.836   9.232  27.856
88675W        W89539  25.863   8.778  25.617
88676W        W89540  28.883  10.516  26.583
88677W        W89541  28.406   7.995  26.111
88678W        W89542  26.761   7.319  28.430
88679W        W89543  28.738  10.229  27.017
88680W        W89544  28.550   8.761  26.849
88681W        W89545  26.728   8.452  26.998
88682W        W89546  26.915   8.570  28.451
88683W        W89547  28.130   9.870  28.348
88684W        W89548  26.711   8.169  28.172
88685W        W89549  26.703  10.706  27.062
88686W        W89550  26.125  10.830  28.708
88687W        W89551  26.230  10.340  25.611
88688W        W89552  28.599   9.633  26.650
88689W        W89553  26.400   8.556  28.327
88690W        W89554   0.027   8.520  25.924
88691W        W89555  26.834   9.669  26.236
88692W        W89556  27.590   9.033  28.286
88693W        W89557  27.749   8.695  27.905
88694W        W89558  26.391   8.985  27.911
88695W        W89559  28.443  10.880  27.746
88696W        W89560  28.275   7.451  28.731
88697W        W89561  26.000   7.642  28.540
88698W        W89562  26.511   8.721  27.480
88699W        W89563  26.780   8.438  25.661
88700W        W89564  25.636  10.151  28.258
88701W        W89565  26.976   8.941  27.380
88702W        W89566  26.970   7.968  25.749
88703W        W89567  26.309   9.000  26.415
88704W        W89568  25.681  10.604  27.954
88705W        W89569  28.483   9.024  25.955
88706W        W89570  28.669   7.837  28.721
88707W        W89571  28.106   9.736  26.711
88708W        W89572  25.778   8.864  28.931
88709W        W89573  28.582   7.492  26.077
88710W        W89574  28.256   9.826  26.206
88711W        W89575  27.139   8.799  26.221
88712W        W89576  28.182   7.631  25.806
88713W        W89577  28.132   8.414  28.166
88714W        W89578  25.907   8.822  27.080
88715W        W89579  26.306   9.916  26.864
88716W        W89580  28.077   8.539  26.798
88717W        W89581  27.229   7.895  27.482
88718W        W89582  28.938   9.974  27.908
88719W        W89583  28.930   7.870  27.641
88720W        W89584  25.659  10.570  26.979
88721W        W89585  25.952   9.819  26.468
88722W        W89586  26.065   7.573   0.044
88723W        W89587  27.064  10.267   0.083
88724W        W89588  28.814   9.243  26.984
88725W        W89589  28.249   9.454  25.789
88726W        W89590  28.230   9.674   0.030
88727W        W89591  27.268   7.307  26.270
88728W        W89592  27.887   8.225  27.177
88729W        W89593  25.661   9.728  27.428
88730W        W89594  26.900   7.804  26.233
88731W        W89595  26.557   9.362  28.934
88732W        W89596  27.602   8.353  26.748
88733W        W89597  27.898   9.776  27.860
88734W        W89598  26.115  10.340  28.174
88735W        W89599  26.578  10.354  28.925
88736W        W89600  26.518   8.137  26.031
88737W        W89601  28.008   8.411  26.261
88738W        W89602  27.901  10.346  28.555
88739W        W89603  26.587   8.974  27.026
88740W        W89604  26.169  10.768  27.883
88741W        W89605   0.022  10.847  25.700
88742W        W89606  25.842   9.317  28.692
88743W        W89607  27.967   9.734  27.340
88744W        W89608  26.376   9.518  26.518
88745W        W89609  26.694  10.308  28.031
88746W        W89610  27.136   7.654  27.031
88747W        W89611  25.593   9.729  26.080
88748W        W89612  27.247   8.608  25.756
88749W        W89613  26.011   9.235  26.770
88750W        W89614  27.030   7.744  28.249
88751W        W89615  28.681   7.598  25.580
88752W        W89616  28.858   9.307  28.794
88753W        W89617  27.618  10.607  28.938
88754W        W89618  28.996   9.781  28.591
88755W        W89619  28.461  10.347   0.175
88756W        W89620  26.341  10.899  27.412
88757W        W89621   0.042   9.514  26.456
88758W        W89622  27.747   8.929  26.890
88759W        W89623  27.375   7.268  26.780
88760W        W89624  26.569  10.357  26.708
88761W        W89625  27.139   8.211  27.892
88762W        W89626  26.815   7.487  27.396
88763W        W89627  25.694  10.668  25.999
88764W        W89628  27.271   9.532  26.744
88765W        W89629  26.500  10.602  28.432
88766W        W89630  25.935   9.346  26.260
88767W        W89631  25.844   7.803  27.110
88768W        W89632  27.244   9.822  27.208
88769W        W89633  25.721   7.763  26.233
88770W        W89634  28.089   8.933  28.232
88771W        W89635  28.134   8.266  25.767
88772W        W89636  28.597   9.962  27.446
88773W        W89637  27.398  10.400  27.099
88774W        W89638  26.721  10.602  26.277
88775W        W89639  27.910   7.248  25.565
88776W        W89640  25.917  10.606  27.441
88777W        W89641  27.773   8.372  28.915
88778W        W89642  26.056   8.093   0.054
88779W        W89643  25.777   8.524  26.600
88780W        W89644  26.599   8.664  26.086
88781W        W89645  27.873   8.888  28.729
88782W        W89646  26.587   9.272  27.501
88783W        W89647  27.878   7.395  26.836
88784W        W89648  27.197  10.886  27.082
88785W        W89649  28.111  10.298  28.072
88786W        W89650  27.907  10.477  27.206
88787W        W89651  27.743   9.479  26.953
88788W        W89652  27.367   7.803  26.053
88789W        W89653  28.935   7.381  26.684
88790W        W89654  26.636   8.967  25.600
88791W        W89655  28.833   8.308  26.817
88792W        W89656  27.366   9.541  25.841
88793W        W89657  28.507   9.631  28.598
88794W        W89658  28.298  10.291  25.567
88795W        W89659  26.856   8.058  28.646
88796W        W89660  26.757   8.610  27.930
88797W        W89661  28.646  10.081  28.324
88798W        W89662  27.874   8.064  28.479
88799W        W89663  25.636   8.606  28.438
88800W        W89664  27.416   8.994  27.654
88801W        W89665  25.850   9.689  26.955
88802W        W89666  26.002   8.909  27.581
88803W        W89667  28.235   9.428  28.127
88804W        W89668  28.136  10.655  28.888
88805W        W89669  27.683   8.542  28.405
88806W        W89670  28.289  10.549  26.859
88807W        W89671  27.201  10.249  28.203
88808W        W89672  26.681  10.543  27.558
88809W        W89673  28.413   9.873  27.913
88810W        W89674  27.364   9.796   0.017
88811W        W89675  26.181   9.799  27.389
88812W        W89676  28.409   9.571  27.129
88813W        W89677  28.002  10.650  27.689
88814W        W89678  26.248  10.278  27.685
88815W        W89679  27.100   8.412  28.944
88816W        W89680  27.410  10.477  26.307
88817W        W89681  26.849   9.805   0.017
88818W        W89682  26.955  10.159  26.342
88819W        W89683  26.297   8.510  25.514
88820W        W89684  25.593  14.630   3.441
88821W        W89685  25.947  13.505   2.844
88822W        W89686  28.645  13.210   0.846
88823W        W89687  28.873  14.236   2.646
88824W        W89688  26.872  14.239   0.327
88825W        W89689  26.682  12.319   1.076
88826W        W89690  26.285  12.160   1.384
88827W        W89691  27.315  12.990   0.804
88828W        W89692  27.011  14.283   2.929
88829W        W89693  25.546  11.728   3.000
88830W        W89694  26.013  11.014   2.695
88831W        W89695  28.022  11.349   1.767
88832W        W89696  27.745  12.114   0.467
88833W        W89697  28.265  11.697   3.317
88834W        W89698  25.687  11.410   2.616
88835W        W89699  25.751  14.136   3.512
88836W        W89700  27.140  13.330   0.383
88837W        W89701  25.799  12.302   1.938
88838W        W89702  26.576  12.301   3.260
88839W        W89703  28.809  11.942   1.842
88840W        W89704  28.809  13.017   2.697
88841W        W89705  27.121  12.428   1.662
88842W        W89706  27.798  13.750   2.119
88843W        W89707  26.324  13.032   2.104
88844W        W89708  25.466  12.702   2.000
88845W        W89709  26.647  12.665   2.871
88846W        W89710  28.762  12.333   3.289
88847W        W89711  26.436  13.829   1.700
88848W        W89712  27.661  13.561   2.663
88849W        W89713  26.678  12.206   1.945
88850W        W89714  26.972  12.936   1.637
88851W        W89715  27.797  13.849   3.469
88852W        W89716  27.215  12.963   3.520
88853W        W89717  27.145  12.780   3.000
88854W        W89718  25.450  12.107   3.374
88855W        W89719  28.280  13.646   3.308
88856W        W89720  25.899  11.054   1.147
88857W        W89721  26.507  13.539   2.191
88858W        W89722  28.756  13.351   1.381
88859W        W89723  28.494  11.495   1.943
88860W        W89724  28.700  11.741   0.064
88861W        W89725   0.057  12.539   2.477
88862W        W89726  27.196  14.172   2.186
88863W        W89727  28.704  13.715   0.754
88864W        W89728  26.084  14.527   0.691
88865W        W89729  26.395  14.422   1.099
88866W        W89730  26.326  11.208   2.324
88867W        W89731  28.735  12.236   2.740
88868W        W89732  28.176  12.592   1.111
88869W        W89733  28.113  12.388   0.255
88870W        W89734  27.374  13.488   2.224
88871W        W89735  27.281  11.932   1.671
88872W        W89736  27.751  14.077   2.521
88873W        W89737  28.673  12.726   1.049
88874W        W89738  27.609  11.409   1.057
88875W        W89739  26.177  14.023   0.826
88876W        W89740  25.687  11.530   1.321
88877W        W89741  28.297  11.998   1.999
88878W        W89742  25.864  13.834   1.771
88879W        W89743  27.202  13.995   0.667
88880W        W89744  28.389  12.146  28.891
88881W        W89745  25.683  13.890   2.254
88882W        W89746  26.456  13.596   2.695
88883W        W89747  26.722  12.856   1.153
88884W        W89748  26.779  11.434   2.322
88885W        W89749   0.046  11.026   1.793
88886W        W89750  26.187  12.865   0.402
88887W        W89751  26.015  11.932   0.392
88888W        W89752  25.997  13.835   1.289
88889W        W89753  26.929  13.323   1.303
88890W        W89754  28.494  14.003   2.975
88891W        W89755  27.428  11.849   0.786
88892W        W89756  28.659  14.419   1.481
88893W        W89757  28.298  12.186   3.022
88894W        W89758   0.053  13.761   1.283
88895W        W89759  27.765  13.070   2.787
88896W        W89760  25.622  12.712   1.154
88897W        W89761  26.595  13.116   2.525
88898W        W89762  27.718  12.294   0.952
88899W        W89763  27.707  12.802   1.094
88900W        W89764  26.066  12.200   2.365
88901W        W89765  26.054  12.226   3.166
88902W        W89766  25.855  11.131   1.645
88903W        W89767  27.630  11.370   2.144
88904W        W89768  27.409  11.521   3.368
88905W        W89769  27.828  11.438   0.546
88906W        W89770  28.930  14.215   3.151
88907W        W89771  27.849  11.053   3.130
88908W        W89772  28.748  13.428   3.492
88909W        W89773  28.322  11.589   2.823
88910W        W89774  28.030  11.570   1.305
88911W        W89775  28.426  12.692   3.510
88912W        W89776  26.152  14.245   1.551
88913W        W89777  26.927  11.947   0.782
88914W        W89778  26.495  11.312   3.167
88915W        W89779  28.426  11.867   1.033
88916W        W89780  28.737  12.235   0.845
88917W        W89781  26.598  14.368   3.304
88918W        W89782  26.551  11.008   0.657
88919W        W89783  28.859  11.476   1.597
88920W        W89784  28.978  13.813   0.304
88921W        W89785  25.876  12.978   1.805
88922W        W89786  27.861  11.479   0.032
88923W        W89787   0.005  14.088   1.672
88924W        W89788  28.917  11.075   2.390
88925W        W89789  27.466  12.379   3.098
88926W        W89790  27.346  13.498   0.831
88927W        W89791  27.705  13.016   3.724
88928W        W89792  27.629  11.002   1.756
88929W        W89793  26.199  11.955   1.874
88930W        W89794  26.095  13.052   2.595
88931W        W89795  27.662  14.250   1.502
88932W        W89796  28.603  11.783   2.360
88933W        W89797  27.558  14.213   2.981
88934W        W89798  28.792  13.205   0.310
88935W        W89799  27.214  12.702   1.228
88936W        W89800   0.010  11.035   2.902
88937W        W89801  27.294  13.146   2.600
88938W        W89802  27.535  11.911   2.127
88939W        W89803  28.206  12.237   0.740
88940W        W89804  28.568  12.160   0.366
88941W        W89805  28.321  14.048   0.902
88942W        W89806  28.289  13.448   1.622
88943W        W89807  27.985  12.722   0.640
88944W        W89808  27.500  12.857   1.635
88945W        W89809  28.531  12.611   1.762
88946W        W89810  26.033  11.646   2.294
88947W        W89811  28.522  12.668   2.989
88948W        W89812  28.934  14.331   2.143
88949W        W89813  26.923  13.809   1.529
88950W        W89814  28.148  14.323   2.761
88951W        W89815  27.722  11.709   2.564
88952W        W89816  27.380  14.476   2.575
88953W        W89817  28.742  11.451   1.075
88954W        W89818  28.585  12.794   2.255
88955W        W89819  25.592  11.892   2.438
88956W        W89820  28.419  11.793   1.537
88957W        W89821  28.710  11.862   3.087
88958W        W89822  27.757  13.592   1.597
88959W        W89823  27.061  14.187   1.190
88960W        W89824  26.069  11.428   0.526
88961W        W89825  27.249  11.019   2.146
88962W        W89826  26.168  14.478   0.159
88963W        W89827  26.581  12.661   0.667
88964W        W89828  27.355  13.248   3.099
88965W        W89829  27.146  11.652   1.211
88966W        W89830  28.426  11.236   1.466
88967W        W89831  28.101  14.517   1.814
88968W        W89832  27.682  14.255   2.026
88969W        W89833  26.939  13.182   2.133
88970W        W89834  28.713  13.849   2.332
88971W        W89835  26.327  11.333   0.993
88972W        W89836  26.956  13.721   2.037
88973W        W89837  26.488  11.800   0.067
88974W        W89838  27.320  12.117   2.569
88975W        W89839  28.048  11.035   2.171
88976W        W89840  25.613  13.095   2.383
88977W        W89841  27.027  12.827   0.415
88978W        W89842  26.508  11.310   0.246
88979W        W89843  27.195  12.176   1.180
88980W        W89844  27.986  11.249   2.643
88981W        W89845  26.874  13.223   2.930
88982W        W89846  27.623  12.841   3.234
88983W        W89847  28.111  12.931   3.152
88984W        W89848  27.456  11.166   3.739
88985W        W89849  26.667  11.686   1.870
88986W        W89850  26.183  11.636   1.424
88987W        W89851  25.873  14.308   1.117
88988W        W89852  27.428  13.742   3.124
88989W        W89853  26.096  13.375   0.479
88990W        W89854  28.019  12.639   1.602
88991W        W89855  28.159  12.489   2.084
88992W        W89856  27.366  12.897   2.141
88993W        W89857  27.978  13.395   0.176
88994W        W89858  27.549  11.481   1.581
88995W        W89859   0.069  11.817   0.837
88996W        W89860  25.707  14.365   3.017
88997W        W89861  26.007  13.485   2.314
88998W        W89862  25.557  14.408   0.737
88999W        W89863  27.250  11.562   2.454
89000W        W89864  26.818  13.725   0.427
89001W        W89865  28.670  14.200   0.548
89002W        W89866  27.508  12.577   0.581
89003W        W89867  26.525  11.819   1.075
89004W        W89868  27.459  11.726   0.259
89005W        W89869  27.834  13.354   3.280
89006W        W89870  28.264  11.398   0.870
89007W        W89871  25.618  11.056   0.385
89008W        W89872  26.944  13.516   2.519
89009W        W89873  26.683  13.374   1.739
89010W        W89874  26.433  13.583   0.094
89011W        W89875  25.677  13.898   0.843
89012W        W89876  26.244  12.703   3.192
89013W        W89877  26.953  11.295   3.425
89014W        W89878  27.498  11.276   2.786
89015W        W89879  26.774  11.009   1.162
89016W        W89880  27.685  10.986   0.768
89017W        W89881  25.842  11.149   2.163
89018W        W89882  25.797  12.011   1.505
89019W        W89883  28.556  10.984   1.985
89020W        W89884  26.026  11.763   0.929
89021W        W89885  28.445  11.269   2.404
89022W        W89886  28.886  12.547   0.228
89023W        W89887  26.243  11.401   1.871
89024W        W89888  27.342  11.781   2.942
89025W        W89889  25.613  11.571   0.324
89026W        W89890  26.370  13.183   3.028
89027W        W89891  27.652  12.475   1.954
89028W        W89892  27.403  14.380   0.365
89029W        W89893  25.682  12.951   0.287
89030W        W89894  26.470  13.677   3.193
89031W        W89895  25.990  12.559   2.755
89032W        W89896  26.971  12.774   2.487
89033W        W89897  28.468  11.061   2.872
89034W        W89898   0.039  12.649   2.977
89035W        W89899  28.957  12.846   0.636
89036W        W89900  27.767  13.209   0.639
89037W        W89901  28.461  14.501   0.174
89038W        W89902  27.533  12.507   3.628
89039W        W89903  26.052  13.447   3.362
89040W        W89904   0.231  11.460   3.496
89041W        W89905  28.669  12.283   2.219
89042W        W89906  27.065  14.372   3.512
89043W        W89907  26.975  11.086   0.380
89044W        W89908  28.470  13.615   0.277
89045W        W89909  26.368  11.813   3.156
89046W        W89910  26.921  13.763   2.982
89047W        W89911  28.800  11.469   2.711
89048W        W89912  28.190  14.557   0.606
89049W        W89913  28.210  13.014   1.944
89050W        W89914  26.409  11.553   2.703
89051W        W89915  27.049  12.481   3.428
89052W        W89916  26.462  13.599   0.786
89053W        W89917  28.146  13.092   0.979
89054W        W89918  25.997  11.874   2.772
89055W        W89919  27.373  13.755   1.281
89056W        W89920   0.060  12.365   1.481
89057W        W89921  27.314  11.034   3.182
89058W        W89922  28.302  13.684   2.070
89059W        W89923  28.533  14.137   1.894
89060W        W89924  27.637  13.709   0.465
89061W        W89925  25.617  13.685   3.225
89062W        W89926  26.492  11.894   2.321
89063W        W89927  26.337  11.099   1.461
89064W        W89928  28.084  11.587   2.230
89065W        W89929  26.602  13.180   0.381
89066W        W89930  28.715  13.131   1.863
89067W        W89931  26.034  13.971   3.105
89068W        W89932  28.504  14.574   1.009
89069W        W89933  26.693  11.467   1.401
89070W        W89934  26.399  12.964   1.597
89071W        W89935  26.874  14.515   2.393
89072W        W89936  27.863  12.828   2.332
89073W        W89937  25.814  12.514   0.611
89074W        W89938  28.818  14.157   1.060
89075W        W89939  28.626  11.685   0.592
89076W        W89940  26.601  11.062   2.726
89077W        W89941  28.533  13.911   1.424
89078W        W89942  28.545  12.309   1.343
89079W        W89943  26.798  12.003   1.477
89080W        W89944  26.989  12.250   2.957
89081W        W89945  28.148  13.408   2.871
89082W        W89946  26.860  11.824   2.691
89083W        W89947  26.677  14.287   1.527
89084W        W89948  26.106  14.480   3.343
89085W        W89949  26.395  14.045   0.367
89086W        W89950  28.348  13.547   1.115
89087W        W89951  26.410  12.189   2.776
89088W        W89952   0.070  12.060   0.379
89089W        W89953  26.863  13.236   0.808
89090W        W89954  27.907  12.578   2.839
89091W        W89955  27.790  12.290   2.416
89092W        W89956  26.404  12.620   2.423
89093W        W89957  28.507  14.538   2.419
89094W        W89958  28.293  11.170   3.364
89095W        W89959  26.008  11.428   3.021
89096W        W89960  26.271  12.522   1.918
89097W        W89961  26.719  12.225   0.397
89098W        W89962  25.596  13.913   2.765
89099W        W89963  27.192  12.411   2.167
89100W        W89964  26.943  11.606   0.364
89101W        W89965  26.248  12.624   1.073
89102W        W89966  25.771  14.357   2.494
89103W        W89967  28.486  12.645   0.553
89104W        W89968  28.750  11.375   3.213
89105W        W89969  27.819  13.502   1.077
89106W        W89970  25.684  12.585   3.233
89107W        W89971  28.712  11.156   0.604
89108W        W89972  28.125  13.600   0.653
89109W        W89973  27.055  12.478   0.783
89110W        W89974  28.303  11.348   0.340
89111W        W89975  28.177  11.987   2.541
89112W        W89976  25.964  12.553   1.507
89113W        W89977  26.377  13.423   1.305
89114W        W89978  28.063  12.123   1.308
89115W        W89979  27.152  11.485   1.932
89116W        W89980   0.098  13.436   2.519
89117W        W89981  28.992  11.523   2.126
89118W        W89982  25.608  14.240   1.533
89119W        W89983  25.949  13.458   0.969
89120W        W89984  26.114  11.358   3.528
89121W        W89985  27.311  13.934   3.605
89122W        W89986  28.916  12.850   1.493
89123W        W89987  28.292  13.126   0.479
89124W        W89988  27.865  14.591   2.388
89125W        W89989  28.277  13.195   3.561
89126W        W89990  27.162  10.898   0.830
89127W        W89991  27.875  11.862   1.729
89128W        W89992  25.586  13.436   1.994
89129W        W89993  26.832  11.422   0.845
89130W        W89994  26.741  12.903   3.317
89131W        W89995  27.612  11.885   1.269
89132W        W89996  28.034  13.335   2.361
89133W        W89997  26.083  13.948   2.603
89134W        W89998  26.794  13.922   3.520
89135W        W89999  26.481  11.735   0.577
89136W        W90000  27.937  11.820   0.865
89137W        W90001  27.938  13.868   2.975
89138W        W90002  26.631  12.519   1.539
89139W        W90003  26.398  14.327   2.436
89140W        W90004  28.966  14.329   0.144
89141W        W90005  25.861  13.035   3.053
89142W        W90006  27.729  13.217   1.949
89143W        W90007  26.361  13.101   0.868
89144W        W90008  26.788  13.994   2.491
89145W        W90009  27.127  11.190   1.501
89146W        W90010  25.543  13.374   0.595
89147W        W90011  27.240  12.176   0.405
89148W        W90012  26.008  13.034   1.279
89149W        W90013  26.990  11.360   2.903
89150W        W90014  28.763  11.216   0.094
89151W        W90015  28.887  12.906   3.393
89152W        W90016  27.607  14.375   3.467
89153W        W90017   0.054  13.329   3.060
89154W        W90018  28.668  13.930   3.493
89155W        W90019  26.301  14.498   1.968
89156W        W90020   0.087  13.081   1.078
89157W        W90021  27.598  12.374   1.446
89158W        W90022  27.489  10.912   1.255
89159W        W90023  26.503  13.922   1.211
89160W        W90024  27.015  11.916   2.182
89161W        W90025  26.717  11.151   1.834
89162W        W90026  25.857  14.142   0.416
89163W        W90027  27.430  13.215   1.267
89164W        W90028  26.494  14.101   2.892
89165W        W90029  25.873  12.993   0.785
89166W        W90030  25.777  11.612   1.833
89167W        W90031  27.245  13.383   1.727
89168W        W90032  25.625  11.373   0.822
89169W        W90033  28.316  12.471   2.562
89170W        W90034  28.167  11.837   0.372
89171W        W90035  28.750  13.659   1.819
89172W        W90036  27.386  13.889   1.794
89173W        W90037  26.703  14.135   0.792
89174W        W90038  27.898  11.006   0.233
89175W        W90039  25.824  14.310   1.984
89176W        W90040  27.821  11.960   3.417
89177W        W90041  25.890  11.798   3.383
89178W        W90042  25.868  12.265   1.063
89179W        W90043  26.295  12.193   0.765
89180W        W90044  27.965  12.456   3.334
89181W        W90045  26.747  12.706   2.032
89182W        W90046  28.009  11.046   1.208
89183W        W90047  27.178  14.372   1.689
89184W        W90048  28.229  13.805   2.559
89185W        W90049  28.062  13.992   1.731
89186W        W90050  27.913  13.124   1.453
89187W        W90051  27.323  11.361   0.630
89188W        W90052   0.027  11.039   1.269
89189W        W90053  26.627  12.697   0.140
89190W        W90054  28.872  11.923   1.305
89191W        W90055  27.502  12.981   0.264
89192W        W90056  28.546  13.176   3.105
89193W        W90057  28.198  14.071   0.348
89194W        W90058  26.887  11.779   3.222
89195W        W90059  26.801  12.293   2.467
89196W        W90060  28.662  13.559   2.781
89197W        W90061  27.836  11.571   3.050
89198W        W90062  25.618  12.216   2.875
89199W        W90063  27.451  12.634   2.606
89200W        W90064  25.748  13.400   1.505
89201W        W90065  25.929  12.709   2.248
89202W        W90066  28.279  12.974   2.643
89203W        W90067  28.145  14.206   3.302
89204W        W90068  27.810  12.071   2.905
89205W        W90069  28.178  14.310   1.336
89206W        W90070  27.279  13.915   2.634
89207W        W90071  26.696  14.166   2.019
89208W        W90072  28.579  13.319   2.327
89209W        W90073  27.426  13.438   3.585
89210W        W90074  26.161  13.412   1.804
89211W        W90075  28.405  12.974   1.422
89212W        W90076  28.158  14.188   2.227
89213W        W90077  26.206  13.975   2.119
89214W        W90078  27.298  12.021   3.431
89215W        W90079  27.547  14.185   0.998
89216W        W90080  26.936  13.417   3.401
89217W        W90081  26.921  13.722   0.996
89218W        W90082  26.247  12.381   0.288
89219W        W90083  25.550  14.646   7.151
89220W        W90084  26.017  13.557   6.591
89221W        W90085  28.626  13.176   4.343
89222W        W90086  28.908  14.284   6.339
89223W        W90087  26.565  14.302   3.822
89224W        W90088  26.760  12.429   4.641
89225W        W90089  26.251  12.132   4.860
89226W        W90090  27.161  12.887   4.430
89227W        W90091  27.050  14.205   6.807
89228W        W90092  25.576  11.800   6.600
89229W        W90093  26.143  11.031   6.569
89230W        W90094  28.085  11.277   5.311
89231W        W90095  27.822  12.192   4.015
89232W        W90096  28.251  11.797   7.033
89233W        W90097  25.745  11.540   6.192
89234W        W90098  25.716  14.177   7.302
89235W        W90099  26.974  13.580   3.899
89236W        W90100  25.791  12.194   5.638
89237W        W90101  26.751  12.306   6.908
89238W        W90102  28.862  11.864   5.434
89239W        W90103  28.734  13.061   6.314
89240W        W90104  27.189  12.247   5.216
89241W        W90105  27.747  13.749   5.765
89242W        W90106  26.230  13.094   5.892
89243W        W90107  25.576  12.658   5.595
89244W        W90108  26.688  12.721   6.563
89245W        W90109  28.795  12.444   6.949
89246W        W90110  26.430  13.883   5.279
89247W        W90111  27.619  13.619   6.328
89248W        W90112  26.992  11.991   5.623
89249W        W90113  26.955  12.968   5.312
89250W        W90114  27.844  13.910   7.147
89251W        W90115  27.284  13.020   7.206
89252W        W90116  27.169  12.826   6.701
89253W        W90117  25.505  12.071   7.031
89254W        W90118  28.286  13.718   6.918
89255W        W90119  25.991  11.271   4.802
89256W        W90120  26.565  13.521   5.872
89257W        W90121  28.957  13.409   5.250
89258W        W90122  28.368  11.649   5.576
89259W        W90123  28.661  11.707   3.639
89260W        W90124   0.021  12.529   6.149
89261W        W90125  27.230  14.169   5.852
89262W        W90126  28.844  13.649   4.352
89263W        W90127  25.938  14.510   4.357
89264W        W90128  26.370  14.452   4.690
89265W        W90129  26.203  11.308   6.081
89266W        W90130  28.747  12.123   6.340
89267W        W90131  28.082  12.647   4.872
89268W        W90132  28.025  12.631   3.833
89269W        W90133  27.414  13.394   5.910
89270W        W90134  27.152  11.736   5.162
89271W        W90135  27.688  14.109   6.133
89272W        W90136  28.557  12.768   4.638
89273W        W90137  27.748  11.477   4.575
89274W        W90138  26.191  14.050   4.410
89275W        W90139  25.806  11.737   4.764
89276W        W90140  28.128  12.259   5.297
89277W        W90141  25.929  13.906   5.394
89278W        W90142  27.005  14.096   3.978
89279W        W90143  28.343  12.165   3.540
89280W        W90144  25.776  13.921   5.910
89281W        W90145  26.492  13.576   6.372
89282W        W90146  26.791  12.936   4.812
89283W        W90147  26.688  11.361   5.889
89284W        W90148  28.958  11.029   5.318
89285W        W90149  26.320  13.045   3.575
89286W        W90150  25.997  11.712   3.901
89287W        W90151  26.075  13.858   4.881
89288W        W90152  26.857  13.464   4.834
89289W        W90153  28.441  14.136   6.586
89290W        W90154  27.543  11.894   4.345
89291W        W90155  28.631  14.299   5.137
89292W        W90156  28.410  12.191   6.736
89293W        W90157   0.071  13.653   4.807
89294W        W90158  27.716  13.108   6.411
89295W        W90159  25.399  12.780   4.716
89296W        W90160  26.659  13.113   6.190
89297W        W90161  27.735  12.336   4.538
89298W        W90162  27.618  12.826   4.666
89299W        W90163  26.203  12.219   5.997
89300W        W90164  26.027  12.215   6.835
89301W        W90165  25.966  11.099   5.285
89302W        W90166  27.704  11.455   5.612
89303W        W90167  27.388  11.548   6.829
89304W        W90168  27.855  11.410   4.061
89305W        W90169  28.894  14.149   6.846
89306W        W90170  27.750  11.113   6.762
89307W        W90171  28.758  13.491   7.132
89308W        W90172  28.352  11.699   6.519
89309W        W90173  28.203  11.530   4.856
89310W        W90174  28.460  12.801   7.129
89311W        W90175  26.146  14.303   5.124
89312W        W90176  27.048  11.867   4.268
89313W        W90177  26.503  11.374   6.819
89314W        W90178  28.498  11.882   4.599
89315W        W90179  28.776  12.281   4.394
89316W        W90180  26.566  14.401   6.973
89317W        W90181  26.612  10.969   4.251
89318W        W90182  28.724  11.463   5.139
89319W        W90183   0.021  13.723   3.856
89320W        W90184  25.951  13.047   5.450
89321W        W90185  27.879  11.415   3.543
89322W        W90186  28.888  11.156   6.099
89323W        W90187  27.537  12.398   6.750
89324W        W90188  27.302  13.402   4.483
89325W        W90189  27.834  13.053   7.297
89326W        W90190  27.604  10.985   5.288
89327W        W90191  26.232  11.977   5.413
89328W        W90192  25.911  13.130   6.335
89329W        W90193  27.690  14.175   5.116
89330W        W90194  28.869  11.803   5.944
89331W        W90195  27.607  14.325   6.591
89332W        W90196  28.697  13.031   3.848
89333W        W90197  27.196  12.608   4.869
89334W        W90198   0.039  11.137   6.589
89335W        W90199  27.198  13.101   6.272
89336W        W90200  27.520  11.935   5.442
89337W        W90201  28.255  12.326   4.465
89338W        W90202  28.426  12.124   4.040
89339W        W90203  28.608  13.888   4.765
89340W        W90204  28.200  13.470   5.552
89341W        W90205  28.013  12.746   4.353
89342W        W90206  27.437  12.799   5.301
89343W        W90207  28.468  12.643   5.403
89344W        W90208  26.011  11.775   5.844
89345W        W90209  28.490  12.697   6.613
89346W        W90210  28.957  14.378   5.825
89347W        W90211  26.931  13.851   5.194
89348W        W90212  28.056  14.410   6.363
89349W        W90213  27.913  11.757   6.206
89350W        W90214  27.268  14.527   6.239
89351W        W90215  28.688  11.384   4.619
89352W        W90216  28.569  12.716   5.967
89353W        W90217  25.623  12.047   6.110
89354W        W90218  28.451  11.894   5.132
89355W        W90219  28.853  11.943   6.821
89356W        W90220  27.753  13.584   5.272
89357W        W90221  27.078  14.158   4.805
89358W        W90222  26.319  11.327   4.010
89359W        W90223  27.263  11.004   5.774
89360W        W90224  26.054  14.459   3.850
89361W        W90225  26.676  12.791   4.251
89362W        W90226  27.343  13.327   6.724
89363W        W90227  27.242  11.546   4.685
89364W        W90228  28.438  11.072   4.991
89365W        W90229  28.134  14.451   5.345
89366W        W90230  27.689  14.260   5.631
89367W        W90231  26.960  13.191   5.788
89368W        W90232  28.648  13.900   6.125
89369W        W90233  26.375  11.433   4.519
89370W        W90234  27.019  13.701   5.721
89371W        W90235  26.571  11.592   3.603
89372W        W90236  27.250  12.259   6.008
89373W        W90237  28.066  11.084   5.838
89374W        W90238  25.702  13.042   5.896
89375W        W90239  27.087  12.661   3.934
89376W        W90240  26.547  11.049   3.632
89377W        W90241  27.082  12.043   4.756
89378W        W90242  28.038  11.271   6.350
89379W        W90243  26.838  13.230   6.655
89380W        W90244  27.635  12.879   6.867
89381W        W90245  28.105  13.009   6.790
89382W        W90246  27.454  11.176   7.206
89383W        W90247  26.727  11.573   5.399
89384W        W90248  26.274  11.642   5.025
89385W        W90249  25.769  14.267   4.773
89386W        W90250  27.479  13.851   6.773
89387W        W90251  26.371  13.241   4.088
89388W        W90252  27.946  12.731   5.372
89389W        W90253  28.146  12.454   5.775
89390W        W90254  27.359  12.874   5.815
89391W        W90255  27.915  13.479   3.815
89392W        W90256  27.607  11.450   5.079
89393W        W90257  28.996  11.793   4.411
89394W        W90258  25.726  14.349   6.718
89395W        W90259  26.066  13.539   6.052
89396W        W90260  25.425  14.405   4.417
89397W        W90261  27.480  11.805   5.938
89398W        W90262  26.553  13.853   4.064
89399W        W90263  28.663  14.034   4.046
89400W        W90264  27.563  12.676   4.126
89401W        W90265  26.622  11.909   4.573
89402W        W90266  27.574  11.757   3.824
89403W        W90267  27.844  13.456   6.809
89404W        W90268  28.226  11.293   4.399
89405W        W90269  25.707  11.263   3.863
89406W        W90270  26.985  13.553   6.216
89407W        W90271  26.712  13.420   5.375
89408W        W90272  26.502  13.517   3.674
89409W        W90273  25.641  13.848   4.513
89410W        W90274  26.335  12.625   6.952
89411W        W90275  26.982  11.313   7.093
89412W        W90276  27.513  11.408   6.346
89413W        W90277  26.904  11.060   4.733
89414W        W90278  27.710  11.003   4.322
89415W        W90279  25.825  11.292   5.751
89416W        W90280  25.819  12.093   5.128
89417W        W90281  28.492  11.028   5.545
89418W        W90282  26.132  11.881   4.384
89419W        W90283  28.446  11.413   6.038
89420W        W90284  28.842  12.525   3.787
89421W        W90285  26.265  11.455   5.546
89422W        W90286  27.444  11.954   6.441
89423W        W90287  25.503  11.722   3.724
89424W        W90288  26.341  13.109   6.605
89425W        W90289  27.607  12.420   5.635
89426W        W90290  27.395  14.429   3.935
89427W        W90291  25.577  13.221   3.450
89428W        W90292  26.490  13.572   6.874
89429W        W90293  26.043  12.659   6.524
89430W        W90294  26.944  12.691   6.095
89431W        W90295  28.533  11.175   6.489
89432W        W90296   0.025  12.788   6.620
89433W        W90297  28.930  12.766   4.259
89434W        W90298  27.723  13.171   4.251
89435W        W90299  28.476  14.363   3.686
89436W        W90300  27.645  12.544   7.293
89437W        W90301  26.036  13.564   7.115
89438W        W90302   0.185  11.577   7.076
89439W        W90303  28.638  12.246   5.731
89440W        W90304  26.999  14.396   7.289
89441W        W90305  26.963  11.164   3.926
89442W        W90306  28.526  13.520   3.945
89443W        W90307  26.371  11.854   6.791
89444W        W90308  26.977  13.714   6.714
89445W        W90309  28.849  11.601   6.418
89446W        W90310  28.271  14.697   4.028
89447W        W90311  28.215  12.990   5.723
89448W        W90312  26.491  11.648   6.321
89449W        W90313  27.170  12.515   7.116
89450W        W90314  26.453  13.584   4.492
89451W        W90315  28.174  13.127   4.655
89452W        W90316  26.041  11.936   6.387
89453W        W90317  27.341  13.673   4.940
89454W        W90318  28.865  12.334   5.255
89455W        W90319  27.254  11.053   6.740
89456W        W90320  28.139  13.823   6.094
89457W        W90321  28.558  14.104   5.629
89458W        W90322  27.459  13.665   4.053
89459W        W90323  25.629  13.813   6.912
89460W        W90324  26.526  11.836   5.821
89461W        W90325  26.465  11.178   5.155
89462W        W90326  27.949  11.972   5.726
89463W        W90327  26.793  13.088   3.812
89464W        W90328  28.686  13.122   5.583
89465W        W90329  26.115  14.012   6.809
89466W        W90330  28.486  14.478   4.654
89467W        W90331  26.763  11.528   4.884
89468W        W90332  26.426  12.979   5.234
89469W        W90333  26.824  14.492   5.975
89470W        W90334  28.587  14.530   6.914
89471W        W90335  27.828  12.796   5.986
89472W        W90336  25.793  12.168   3.750
89473W        W90337  28.914  14.188   4.495
89474W        W90338  28.565  11.633   4.154
89475W        W90339  26.606  11.122   6.365
89476W        W90340  28.539  13.745   5.246
89477W        W90341  28.501  12.342   4.908
89478W        W90342  26.696  12.011   5.124
89479W        W90343  27.076  12.367   6.497
89480W        W90344  28.218  13.461   6.461
89481W        W90345  26.833  11.938   6.555
89482W        W90346  26.689  14.320   5.136
89483W        W90347  26.074  14.469   7.077
89484W        W90348  26.262  13.991   3.563
89485W        W90349  28.625  13.358   4.841
89486W        W90350  26.419  12.282   6.501
89487W        W90351  28.926  12.044   3.949
89488W        W90352  26.833  13.277   4.320
89489W        W90353  27.917  12.632   6.488
89490W        W90354  27.768  12.270   6.119
89491W        W90355  26.404  12.665   6.140
89492W        W90356  28.215  11.268   6.887
89493W        W90357  25.992  11.504   6.656
89494W        W90358  26.564  12.316   5.613
89495W        W90359  26.818  12.074   3.664
89496W        W90360  25.671  13.912   6.413
89497W        W90361  27.044  12.531   5.608
89498W        W90362  27.075  11.651   3.787
89499W        W90363  26.331  12.640   4.847
89500W        W90364  25.781  14.387   6.196
89501W        W90365  28.459  12.650   4.114
89502W        W90366  28.681  11.482   6.906
89503W        W90367  28.159  13.559   4.960
89504W        W90368  25.740  12.614   6.956
89505W        W90369  28.690  11.102   4.169
89506W        W90370  28.325  13.582   4.438
89507W        W90371  27.232  12.372   4.393
89508W        W90372  28.315  11.299   3.859
89509W        W90373  28.368  11.925   6.034
89510W        W90374  25.956  12.581   5.220
89511W        W90375  26.353  13.433   4.989
89512W        W90376  28.054  12.046   4.829
89513W        W90377  27.176  11.497   5.633
89514W        W90378  28.969  13.487   6.163
89515W        W90379  28.820  11.398   5.650
89516W        W90380  25.634  14.337   5.259
89517W        W90381  25.976  13.438   4.603
89518W        W90382  26.083  11.254   7.091
89519W        W90383  27.217  13.915   7.204
89520W        W90384  28.848  12.891   5.124
89521W        W90385  28.204  13.111   4.057
89522W        W90386  27.723  14.619   6.012
89523W        W90387  28.287  13.292   7.206
89524W        W90388  27.179  10.921   4.330
89525W        W90389  27.962  11.772   5.251
89526W        W90390  25.679  13.485   5.615
89527W        W90391  26.853  11.414   4.360
89528W        W90392  26.796  12.891   7.049
89529W        W90393  27.563  11.921   4.882
89530W        W90394  27.942  13.337   6.012
89531W        W90395  26.167  13.987   6.293
89532W        W90396  26.723  13.947   7.128
89533W        W90397  26.564  11.789   4.073
89534W        W90398  28.064  11.825   4.334
89535W        W90399  27.956  13.932   6.579
89536W        W90400  26.739  12.529   5.163
89537W        W90401  26.313  14.405   6.045
89538W        W90402  28.988  14.279   3.694
89539W        W90403  25.883  13.101   6.857
89540W        W90404  27.735  13.159   5.573
89541W        W90405  26.364  13.085   4.581
89542W        W90406  26.712  13.988   6.097
89543W        W90407  27.145  11.228   5.155
89544W        W90408  25.565  13.394   4.252
89545W        W90409  27.276  12.171   3.923
89546W        W90410  25.986  13.012   4.928
89547W        W90411  26.958  11.443   6.561
89548W        W90412  28.802  11.192   3.678
89549W        W90413  28.935  13.000   7.074
89550W        W90414  27.503  14.318   7.094
89551W        W90415   0.039  13.331   6.678
89552W        W90416  28.597  13.972   7.234
89553W        W90417  26.385  14.448   5.542
89554W        W90418   0.037  13.102   4.663
89555W        W90419  27.670  12.392   5.068
89556W        W90420  27.427  11.064   4.763
89557W        W90421  26.587  13.968   4.785
89558W        W90422  26.988  11.748   6.096
89559W        W90423  26.828  11.057   5.495
89560W        W90424  25.641  14.123   4.041
89561W        W90425  27.272  13.132   4.924
89562W        W90426  26.592  14.045   6.601
89563W        W90427  25.817  12.956   4.449
89564W        W90428  25.817  11.615   5.331
89565W        W90429  27.275  13.375   5.393
89566W        W90430  25.857  11.440   4.326
89567W        W90431  28.290  12.377   6.259
89568W        W90432  28.122  11.781   3.817
89569W        W90433  28.761  13.635   5.693
89570W        W90434  27.383  13.897   5.427
89571W        W90435  26.760  14.286   4.385
89572W        W90436  27.938  10.942   3.760
89573W        W90437  25.917  14.339   5.682
89574W        W90438  27.734  12.020   7.078
89575W        W90439  25.949  11.787   7.112
89576W        W90440  25.803  12.450   4.740
89577W        W90441  26.777  12.283   4.137
89578W        W90442  28.045  12.498   6.968
89579W        W90443  26.619  12.823   5.692
89580W        W90444  27.933  11.075   4.846
89581W        W90445  27.188  14.360   5.303
89582W        W90446  28.085  13.956   5.438
89583W        W90447  27.807  13.116   5.049
89584W        W90448  27.353  11.416   4.193
89585W        W90449   0.011  10.996   4.805
89586W        W90450  26.616  12.582   3.714
89587W        W90451  28.897  11.982   4.887
89588W        W90452  27.270  13.158   4.004
89589W        W90453  28.559  13.202   6.768
89590W        W90454  28.225  13.908   3.759
89591W        W90455  26.806  11.783   7.046
89592W        W90456  26.737  12.218   6.100
89593W        W90457  28.695  13.691   6.606
89594W        W90458  27.871  11.624   6.701
89595W        W90459  25.632  12.309   6.543
89596W        W90460  27.445  12.652   6.292
89597W        W90461  25.850  13.453   5.130
89598W        W90462  26.116  12.625   5.701
89599W        W90463  28.224  12.977   6.265
89600W        W90464  28.065  14.340   6.911
89601W        W90465  27.936  12.117   6.587
89602W        W90466  28.184  14.114   4.951
89603W        W90467  27.211  14.011   6.348
89604W        W90468  26.779  14.134   5.601
89605W        W90469  28.461  13.376   6.009
89606W        W90470  27.508  13.500   7.182
89607W        W90471  26.203  13.482   5.517
89608W        W90472  28.318  13.091   5.184
89609W        W90473  28.143  14.291   5.864
89610W        W90474  26.288  13.957   5.775
89611W        W90475  27.220  12.037   6.909
89612W        W90476  27.347  14.098   4.362
89613W        W90477  26.967  13.438   7.151
89614W        W90478  26.938  13.785   4.418
89615W        W90479  26.298  12.042   3.625
89616W        W90480  25.635  14.551  10.782
89617W        W90481  26.007  13.509  10.314
89618W        W90482  28.582  13.187   8.008
89619W        W90483  28.863  14.238   9.974
89620W        W90484  26.624  14.186   7.593
89621W        W90485  26.787  12.468   8.447
89622W        W90486  26.250  12.078   8.778
89623W        W90487  27.347  13.007   8.032
89624W        W90488  27.065  14.276  10.351
89625W        W90489  25.585  11.699  10.266
89626W        W90490  26.246  10.944  10.202
89627W        W90491  28.073  11.453   8.890
89628W        W90492  27.966  12.166   7.545
89629W        W90493  28.315  11.670  10.654
89630W        W90494  25.712  11.345   9.920
89631W        W90495  25.861  14.113  10.967
89632W        W90496  27.335  13.545   8.026
89633W        W90497  25.393  11.964   9.247
89634W        W90498  26.818  12.278  10.459
89635W        W90499  28.800  11.959   9.044
89636W        W90500  28.784  13.024   9.916
89637W        W90501  27.151  12.384   8.824
89638W        W90502  27.807  13.752   9.260
89639W        W90503  26.050  13.032   9.614
89640W        W90504  25.519  12.466   9.110
89641W        W90505  26.671  12.753  10.249
89642W        W90506  28.775  12.407  10.558
89643W        W90507  26.416  13.725   8.996
89644W        W90508  27.646  13.647  10.048
89645W        W90509  26.853  12.214   9.227
89646W        W90510  27.047  12.835   9.050
89647W        W90511  28.103  14.138  10.781
89648W        W90512  27.417  13.117  10.712
89649W        W90513  27.183  12.878  10.269
89650W        W90514  25.411  12.032  10.624
89651W        W90515  28.341  13.735  10.528
89652W        W90516  26.018  11.217   8.457
89653W        W90517  26.707  13.641   9.422
89654W        W90518   0.076  13.344   8.840
89655W        W90519  28.496  11.561   9.217
89656W        W90520  28.706  11.827   7.318
89657W        W90521  28.993  12.505   9.774
89658W        W90522  27.166  14.372   9.452
89659W        W90523  28.738  13.669   8.097
89660W        W90524  26.059  14.525   8.098
89661W        W90525  26.445  14.448   8.451
89662W        W90526  26.263  11.245   9.776
89663W        W90527  28.740  12.054   9.963
89664W        W90528  28.091  12.566   8.590
89665W        W90529  28.124  12.650   7.486
89666W        W90530  27.513  13.500   9.584
89667W        W90531  27.302  11.883   8.772
89668W        W90532  27.740  14.006   9.708
89669W        W90533  28.583  12.758   8.308
89670W        W90534  27.659  11.423   8.111
89671W        W90535  26.200  14.044   8.199
89672W        W90536  25.712  11.613   8.539
89673W        W90537  28.283  12.036   9.128
89674W        W90538  25.923  13.836   9.163
89675W        W90539  27.235  14.047   8.004
89676W        W90540  28.422  12.273   7.265
89677W        W90541  25.758  13.890   9.666
89678W        W90542  26.533  13.654   9.918
89679W        W90543  26.716  12.935   8.650
89680W        W90544  26.731  11.486   9.550
89681W        W90545   0.171  11.026   8.980
89682W        W90546  26.345  13.136   7.121
89683W        W90547  26.029  11.850   7.631
89684W        W90548  26.051  13.795   8.645
89685W        W90549  27.083  13.266   8.782
89686W        W90550  28.424  14.161  10.239
89687W        W90551  27.673  11.758   7.683
89688W        W90552  28.657  14.449   8.751
89689W        W90553  28.350  12.160  10.311
89690W        W90554   0.070  13.725   8.491
89691W        W90555  27.755  13.137  10.035
89692W        W90556  25.841  12.564   8.217
89693W        W90557  26.564  13.180   9.635
89694W        W90558  27.819  12.353   8.047
89695W        W90559  27.696  12.796   8.338
89696W        W90560  26.048  12.162   9.775
89697W        W90561  25.985  12.144  10.300
89698W        W90562  25.947  11.126   8.968
89699W        W90563  27.497  11.602   9.197
89700W        W90564  27.432  11.519  10.527
89701W        W90565  27.849  11.269   7.651
89702W        W90566  28.869  14.123  10.501
89703W        W90567  27.781  11.094  10.551
89704W        W90568  28.770  13.535  10.731
89705W        W90569  28.397  11.685  10.139
89706W        W90570  28.127  11.531   8.379
89707W        W90571  28.478  12.751  10.843
89708W        W90572  26.273  14.213   8.947
89709W        W90573  27.179  11.816   7.890
89710W        W90574  26.378  11.343  10.512
89711W        W90575  28.510  11.870   8.218
89712W        W90576  28.820  12.292   8.207
89713W        W90577  26.648  14.454  10.652
89714W        W90578  26.499  11.074   7.816
89715W        W90579  28.886  11.413   8.778
89716W        W90580   0.041  13.814   7.475
89717W        W90581  25.712  12.945   9.165
89718W        W90582  27.836  11.513   7.199
89719W        W90583  28.941  13.828   9.093
89720W        W90584  28.953  11.165   9.621
89721W        W90585  27.658  12.286  10.330
89722W        W90586  27.876  13.975   7.974
89723W        W90587  27.979  12.896  10.896
89724W        W90588  27.666  11.152   8.979
89725W        W90589  25.899  12.087   9.279
89726W        W90590  25.810  13.091  10.066
89727W        W90591  27.706  14.341   8.706
89728W        W90592  28.835  11.747   9.565
89729W        W90593  27.599  14.400  10.209
89730W        W90594  28.691  13.086   7.514
89731W        W90595  27.202  12.814   8.513
89732W        W90596   0.068  11.098  10.156
89733W        W90597  27.282  13.152   9.848
89734W        W90598  27.371  12.108   9.233
89735W        W90599  28.308  12.333   8.169
89736W        W90600  28.461  12.083   7.743
89737W        W90601  28.380  14.036   8.125
89738W        W90602  28.234  13.448   8.889
89739W        W90603  28.126  12.799   8.064
89740W        W90604  27.548  12.731   8.900
89741W        W90605  28.493  12.524   9.052
89742W        W90606  26.086  11.676   9.528
89743W        W90607  28.518  12.777  10.323
89744W        W90608  28.961  14.329   9.331
89745W        W90609  26.921  13.753   8.960
89746W        W90610  28.057  14.374   9.911
89747W        W90611  28.001  11.522   9.858
89748W        W90612  27.197  14.572   9.929
89749W        W90613  28.702  11.414   8.288
89750W        W90614  28.600  12.759   9.510
89751W        W90615  25.650  11.836   9.752
89752W        W90616  28.460  11.724   8.720
89753W        W90617  28.775  11.870  10.452
89754W        W90618  27.750  13.586   8.772
89755W        W90619  27.167  14.244   8.483
89756W        W90620  26.099  11.337   7.609
89757W        W90621  27.290  11.011   9.402
89758W        W90622  26.153  14.441   7.597
89759W        W90623  26.888  12.788   8.054
89760W        W90624  27.296  13.392  10.298
89761W        W90625  27.207  11.562   8.362
89762W        W90626  28.445  11.186   8.676
89763W        W90627  28.159  14.486   8.980
89764W        W90628  27.610  14.218   9.241
89765W        W90629  27.024  13.237   9.409
89766W        W90630  28.727  13.888   9.598
89767W        W90631  26.492  11.320   8.294
89768W        W90632  27.206  13.877   9.386
89769W        W90633  26.397  11.624   7.302
89770W        W90634  27.480  12.199   9.757
89771W        W90635  28.096  11.086   9.543
89772W        W90636  25.554  12.904   9.646
89773W        W90637  27.202  12.697   7.621
89774W        W90638  26.545  11.135   7.295
89775W        W90639  27.131  12.102   8.348
89776W        W90640  28.171  11.230  10.240
89777W        W90641  26.826  13.255  10.093
89778W        W90642  27.661  12.779  10.428
89779W        W90643  28.093  13.038  10.402
89780W        W90644  27.414  11.189  10.906
89781W        W90645  26.474  11.823   9.187
89782W        W90646  26.182  11.571   8.818
89783W        W90647  25.913  14.306   8.574
89784W        W90648  27.429  13.913  10.442
89785W        W90649  26.504  13.123   8.209
89786W        W90650  28.042  12.770   9.100
89787W        W90651  28.177  12.437   9.496
89788W        W90652  27.451  12.975   9.377
89789W        W90653  27.930  13.534   7.513
89790W        W90654  27.659  11.549   8.615
89791W        W90655   0.031  11.831   8.059
89792W        W90656  25.803  14.262  10.390
89793W        W90657  26.042  13.500   9.812
89794W        W90658  25.565  14.447   8.188
89795W        W90659  27.533  11.681   9.717
89796W        W90660  26.974  13.774   7.629
89797W        W90661  28.707  14.099   7.751
89798W        W90662  27.706  12.780   7.757
89799W        W90663  26.735  11.787   8.263
89800W        W90664  27.330  11.697   7.304
89801W        W90665  27.788  13.451  10.525
89802W        W90666  28.267  11.316   7.945
89803W        W90667  25.685  11.154   7.388
89804W        W90668  27.056  13.605   9.795
89805W        W90669  26.637  13.239   9.071
89806W        W90670  26.521  13.566   7.406
89807W        W90671  25.667  13.921   8.309
89808W        W90672  26.162  12.710  10.298
89809W        W90673  26.898  11.288  10.647
89810W        W90674  27.611  11.267  10.088
89811W        W90675  26.930  11.099   8.483
89812W        W90676  27.795  10.935   8.062
89813W        W90677  25.855  11.224   9.460
89814W        W90678  25.692  12.049   8.814
89815W        W90679  28.668  11.081   9.176
89816W        W90680  26.185  11.737   8.323
89817W        W90681  28.491  11.365   9.736
89818W        W90682  28.901  12.620   7.425
89819W        W90683  26.340  11.310   9.256
89820W        W90684  27.376  11.892  10.172
89821W        W90685  25.549  11.696   7.480
89822W        W90686  26.323  13.155  10.083
89823W        W90687  27.676  12.506   9.366
89824W        W90688  27.431  14.396   7.640
89825W        W90689  25.723  12.866   7.400
89826W        W90690  26.514  13.574  10.422
89827W        W90691  25.826  12.585   9.946
89828W        W90692  26.910  12.824   9.809
89829W        W90693  28.583  10.941  10.138
89830W        W90694   0.032  12.737  10.244
89831W        W90695  28.973  12.854   7.921
89832W        W90696  27.807  13.243   8.025
89833W        W90697  28.365  14.425   7.372
89834W        W90698  27.701  12.451  10.870
89835W        W90699  26.150  13.502  10.802
89836W        W90700   0.142  11.514  10.731
89837W        W90701  28.660  12.231   9.470
89838W        W90702  27.138  14.496  10.816
89839W        W90703  26.967  11.036   7.616
89840W        W90704  28.577  13.583   7.604
89841W        W90705  26.465  11.871  10.420
89842W        W90706  26.955  13.774  10.258
89843W        W90707  28.890  11.563  10.041
89844W        W90708  28.183  14.437   7.870
89845W        W90709  28.322  13.155   9.340
89846W        W90710  26.594  11.514  10.065
89847W        W90711  27.249  12.506  10.639
89848W        W90712  26.770  13.665   8.099
89849W        W90713  28.203  13.225   8.351
89850W        W90714  26.094  11.688  10.060
89851W        W90715  27.589  13.908   8.393
89852W        W90716   0.028  12.335   8.728
89853W        W90717  27.277  11.037  10.421
89854W        W90718  28.319  13.699   9.334
89855W        W90719  28.530  14.137   9.139
89856W        W90720  27.517  13.832   7.612
89857W        W90721  25.707  13.754  10.651
89858W        W90722  26.494  11.911   9.717
89859W        W90723  26.434  11.130   8.780
89860W        W90724  27.990  11.559   9.362
89861W        W90725  26.977  13.253   7.750
89862W        W90726  28.771  12.984   9.080
89863W        W90727  26.189  13.974  10.563
89864W        W90728  28.556  14.547   8.241
89865W        W90729  26.733  11.530   8.720
89866W        W90730  26.230  12.920   9.125
89867W        W90731  26.766  14.590   9.665
89868W        W90732  28.613  14.556  10.565
89869W        W90733  27.915  12.906   9.589
89870W        W90734  25.881  12.277   7.327
89871W        W90735  28.866  14.155   8.275
89872W        W90736  28.665  11.592   7.777
89873W        W90737  26.769  11.026  10.140
89874W        W90738  28.571  13.934   8.647
89875W        W90739  28.519  12.229   8.634
89876W        W90740  26.777  12.034   8.748
89877W        W90741  27.147  12.399  10.089
89878W        W90742  28.126  13.499  10.137
89879W        W90743  26.862  11.957  10.064
89880W        W90744  26.780  14.303   8.851
89881W        W90745  26.149  14.492  10.769
89882W        W90746  26.233  14.017   7.303
89883W        W90747  28.632  13.417   8.558
89884W        W90748  26.439  12.282  10.107
89885W        W90749  28.959  12.181   7.688
89886W        W90750  26.992  13.242   8.286
89887W        W90751  27.987  12.602  10.047
89888W        W90752  27.854  12.030   9.454
89889W        W90753  26.366  12.682   9.798
89890W        W90754  28.497  14.351   9.630
89891W        W90755  28.261  11.171  10.742
89892W        W90756  25.863  11.246  10.402
89893W        W90757  26.366  12.305   9.375
89894W        W90758  27.020  12.090   7.403
89895W        W90759  25.604  13.820  10.152
89896W        W90760  27.174  12.539   9.470
89897W        W90761  26.871  11.561   7.530
89898W        W90762  26.276  12.679   8.508
89899W        W90763  25.834  14.407   9.895
89900W        W90764  28.538  12.612   7.792
89901W        W90765  28.695  11.346  10.479
89902W        W90766  28.112  13.736   8.441
89903W        W90767  25.690  12.553  10.456
89904W        W90768  28.672  11.042   7.761
89905W        W90769  28.214  13.570   7.959
89906W        W90770  27.336  12.505   8.112
89907W        W90771  28.361  11.230   7.382
89908W        W90772  28.329  11.873   9.641
89909W        W90773  26.003  12.493   8.936
89910W        W90774  26.657  13.468   8.595
89911W        W90775  28.047  12.030   8.499
89912W        W90776  26.979  11.711   9.141
89913W        W90777   0.032  13.471   9.770
89914W        W90778   0.104  11.508   9.220
89915W        W90779  25.619  14.248   9.035
89916W        W90780  25.678  13.395   8.485
89917W        W90781  25.930  11.277  10.929
89918W        W90782  27.253  14.043  10.996
89919W        W90783  28.978  12.849   8.629
89920W        W90784  28.191  13.123   7.681
89921W        W90785  27.639  14.541   9.656
89922W        W90786  28.356  13.248  10.776
89923W        W90787  27.275  10.992   8.037
89924W        W90788  27.800  11.935   8.943
89925W        W90789  25.697  13.391   9.430
89926W        W90790  26.909  11.357   8.006
89927W        W90791  26.915  13.176  10.584
89928W        W90792  27.589  11.916   8.225
89929W        W90793  28.007  13.432   9.653
89930W        W90794  26.103  13.963  10.053
89931W        W90795  26.815  13.967  10.711
89932W        W90796  26.458  11.606   7.854
89933W        W90797  28.052  11.879   7.999
89934W        W90798  27.934  13.998  10.293
89935W        W90799  26.553  12.509   8.919
89936W        W90800  26.348  14.333   9.795
89937W        W90801  28.881  14.376   7.355
89938W        W90802  25.870  13.057  10.576
89939W        W90803  27.839  13.251   9.194
89940W        W90804  26.259  13.172   8.665
89941W        W90805  26.819  14.080   9.801
89942W        W90806  27.213  11.366   8.839
89943W        W90807  25.563  13.166   7.826
89944W        W90808  27.451  12.233   7.679
89945W        W90809  25.824  12.900   8.674
89946W        W90810  27.106  11.443  10.117
89947W        W90811  28.868  11.313   7.373
89948W        W90812  28.874  13.012  10.642
89949W        W90813  27.618  14.314  10.729
89950W        W90814   0.049  13.314  10.258
89951W        W90815  28.583  13.998  10.908
89952W        W90816  26.381  14.567   9.332
89953W        W90817   0.021  13.231   8.284
89954W        W90818  27.596  12.319   8.554
89955W        W90819  27.459  11.080   8.493
89956W        W90820  26.576  13.957   8.549
89957W        W90821  27.064  11.913   9.606
89958W        W90822  26.837  11.151   9.119
89959W        W90823  25.794  14.123   7.841
89960W        W90824  27.484  13.282   8.452
89961W        W90825  26.565  14.125  10.247
89962W        W90826  25.983  13.069   8.211
89963W        W90827  25.758  11.600   9.114
89964W        W90828  27.380  13.481   9.107
89965W        W90829  25.820  11.488   8.029
89966W        W90830  28.475  12.483   9.915
89967W        W90831  28.192  11.685   7.543
89968W        W90832  28.762  13.420   9.334
89969W        W90833  27.388  13.949   8.872
89970W        W90834  26.747  14.185   8.112
89971W        W90835  27.929  10.977   7.243
89972W        W90836  25.969  14.283   9.408
89973W        W90837  27.955  12.041  10.691
89974W        W90838  25.998  11.711  10.591
89975W        W90839  25.745  12.048   8.252
89976W        W90840  26.937  12.287   7.879
89977W        W90841  28.108  12.528  10.556
89978W        W90842  26.662  12.740   9.369
89979W        W90843  27.966  11.070   8.545
89980W        W90844  27.259  14.458   8.946
89981W        W90845  28.247  13.897   9.822
89982W        W90846  28.088  13.977   8.899
89983W        W90847  27.885  13.080   8.716
89984W        W90848  27.344  11.362   7.691
89985W        W90849   0.052  11.036   8.409
89986W        W90850  26.728  12.515   7.402
89987W        W90851  28.909  11.877   8.541
89988W        W90852  27.487  13.260   7.621
89989W        W90853  28.550  13.287  10.304
89990W        W90854  28.216  13.970   7.589
89991W        W90855  26.984  11.780  10.517
89992W        W90856  26.770  12.343   9.721
89993W        W90857  28.737  13.746  10.150
89994W        W90858  27.886  11.669  10.339
89995W        W90859  25.522  12.192  10.106
89996W        W90860  27.509  12.700   9.862
89997W        W90861  25.911  13.379   8.948
89998W        W90862  25.938  12.574   9.443
89999W        W90863  28.276  13.017   9.918
90000W        W90864  28.089  14.515  10.407
90001W        W90865  27.956  12.048   9.971
90002W        W90866  28.182  14.304   8.502
90003W        W90867  27.302  14.047   9.946
90004W        W90868  26.683  14.147   9.317
90005W        W90869  28.511  13.449   9.782
90006W        W90870  27.684  13.812  10.880
90007W        W90871  26.223  13.419   9.341
90008W        W90872  28.394  12.961   8.751
90009W        W90873  28.092  14.172   9.392
90010W        W90874  26.277  13.895   9.539
90011W        W90875  27.429  12.006  10.721
90012W        W90876  27.603  14.386   8.154
90013W        W90877  27.177  13.589  10.765
90014W        W90878  27.117  13.714   8.481
90015W        W90879  26.379  12.136   7.226
90016W        W90880  25.622  14.634  14.370
90017W        W90881  26.082  13.508  13.904
90018W        W90882  28.628  13.246  11.618
90019W        W90883  28.653  14.339  13.690
90020W        W90884  26.777  14.295  11.147
90021W        W90885  26.992  12.620  12.461
90022W        W90886  26.577  12.101  12.670
90023W        W90887  27.340  13.116  11.566
90024W        W90888  27.021  14.182  14.004
90025W        W90889  25.546  11.683  13.910
90026W        W90890  26.264  10.834  13.867
90027W        W90891  28.103  11.369  12.577
90028W        W90892  27.822  12.261  11.410
90029W        W90893  28.265  11.789  14.270
90030W        W90894  25.639  11.361  13.509
90031W        W90895  25.778  14.174  14.547
90032W        W90896  27.358  13.577  11.256
90033W        W90897  25.671  12.133  12.992
90034W        W90898  26.697  12.279  14.069
90035W        W90899   0.012  11.782  12.744
90036W        W90900  28.783  12.980  13.574
90037W        W90901  27.407  12.465  12.722
90038W        W90902  27.856  13.790  13.035
90039W        W90903  26.089  13.125  13.166
90040W        W90904  25.376  12.569  12.915
90041W        W90905  26.637  12.756  13.813
90042W        W90906  28.800  12.411  14.266
90043W        W90907  26.496  14.052  12.725
90044W        W90908  27.639  13.596  13.841
90045W        W90909  27.272  12.235  13.163
90046W        W90910  27.278  13.006  12.661
90047W        W90911  27.860  13.904  14.514
90048W        W90912  27.223  12.942  14.523
90049W        W90913  27.113  12.869  13.991
90050W        W90914  25.537  12.036  14.310
90051W        W90915  28.292  13.698  14.327
90052W        W90916  26.020  11.208  12.121
90053W        W90917  26.656  13.837  13.162
90054W        W90918  28.919  13.481  12.521
90055W        W90919  28.509  11.583  12.814
90056W        W90920  28.736  11.736  10.958
90057W        W90921  28.989  12.502  13.483
90058W        W90922  27.429  14.147  13.191
90059W        W90923  28.792  13.741  11.675
90060W        W90924  26.100  14.621  11.644
90061W        W90925  26.445  14.595  12.060
90062W        W90926  26.174  11.236  13.564
90063W        W90927  28.752  12.066  13.613
90064W        W90928  28.189  12.669  12.216
90065W        W90929  28.164  12.438  11.093
90066W        W90930  27.493  13.599  13.341
90067W        W90931  27.586  11.982  12.649
90068W        W90932  27.822  13.968  13.522
90069W        W90933  28.675  12.799  11.904
90070W        W90934  27.553  11.524  11.875
90071W        W90935  26.310  14.172  11.798
90072W        W90936  25.675  11.588  12.202
90073W        W90937  28.589  12.079  12.641
90074W        W90938  25.946  13.965  12.751
90075W        W90939  27.305  14.015  11.527
90076W        W90940  28.453  12.135  10.822
90077W        W90941  25.714  13.965  13.270
90078W        W90942  26.504  13.726  13.642
90079W        W90943  26.818  13.133  12.443
90080W        W90944  26.928  11.430  13.248
90081W        W90945   0.142  10.996  12.587
90082W        W90946  26.407  13.084  10.587
90083W        W90947  25.964  11.766  11.102
90084W        W90948  26.167  13.979  12.279
90085W        W90949  27.177  13.523  12.515
90086W        W90950  28.434  14.141  14.113
90087W        W90951  27.495  12.035  11.739
90088W        W90952  28.736  14.475  12.468
90089W        W90953  28.405  12.226  13.966
90090W        W90954   0.096  13.708  12.095
90091W        W90955  27.772  13.103  13.780
90092W        W90956  25.359  12.727  11.997
90093W        W90957  26.570  13.310  13.288
90094W        W90958  27.821  12.413  11.942
90095W        W90959  27.730  12.939  11.901
90096W        W90960  25.977  12.135  13.422
90097W        W90961  26.020  12.149  13.951
90098W        W90962  25.954  11.078  12.602
90099W        W90963  27.723  11.334  12.924
90100W        W90964  27.447  11.473  14.235
90101W        W90965  27.879  11.467  11.429
90102W        W90966  28.934  14.232  14.136
90103W        W90967  27.741  11.035  14.256
90104W        W90968  28.873  13.441  14.426
90105W        W90969  28.337  11.734  13.730
90106W        W90970  28.021  11.522  12.078
90107W        W90971  28.437  12.737  14.505
90108W        W90972  26.257  14.434  12.499
90109W        W90973  27.108  11.822  11.446
90110W        W90974  26.325  11.312  14.096
90111W        W90975  28.554  11.950  11.841
90112W        W90976  28.826  12.383  11.625
90113W        W90977  26.649  14.399  14.377
90114W        W90978  26.524  10.982  11.495
90115W        W90979  28.839  11.386  12.441
90116W        W90980   0.050  13.859  11.116
90117W        W90981  25.774  13.045  12.765
90118W        W90982  27.852  11.517  10.864
90119W        W90983  28.975  13.905  12.838
90120W        W90984  28.919  11.129  13.430
90121W        W90985  27.583  12.343  14.078
90122W        W90986  27.483  13.572  11.775
90123W        W90987  27.917  12.947  14.620
90124W        W90988  27.494  11.026  12.580
90125W        W90989  26.123  11.953  12.841
90126W        W90990  25.767  13.246  13.574
90127W        W90991  27.824  14.206  12.394
90128W        W90992  28.946  11.710  13.245
90129W        W90993  27.627  14.337  13.845
90130W        W90994  28.738  13.121  11.110
90131W        W90995  27.647  12.745  12.358
90132W        W90996   0.030  11.157  13.937
90133W        W90997  27.285  13.241  13.660
90134W        W90998  27.625  11.860  13.137
90135W        W90999  28.304  12.417  11.749
90136W        W91000  28.510  12.115  11.339
90137W        W91001  28.401  14.084  11.803
90138W        W91002  28.402  13.486  12.612
90139W        W91003  28.224  12.991  11.792
90140W        W91004  27.741  12.844  12.851
90141W        W91005  28.624  12.586  12.558
90142W        W91006  25.897  11.665  13.192
90143W        W91007  28.532  12.725  13.973
90144W        W91008  28.987  14.370  13.312
90145W        W91009  26.986  13.990  12.573
90146W        W91010  28.145  14.373  13.742
90147W        W91011  27.814  11.701  13.574
90148W        W91012  27.205  14.492  13.523
90149W        W91013  28.762  11.477  11.941
90150W        W91014  28.684  12.670  13.088
90151W        W91015  25.519  11.894  13.436
90152W        W91016  28.437  11.689  12.308
90153W        W91017  28.781  11.905  14.122
90154W        W91018  27.899  13.607  12.546
90155W        W91019  27.170  14.308  12.190
90156W        W91020  26.121  11.343  11.409
90157W        W91021  27.277  11.041  13.051
90158W        W91022  26.246  14.326  11.270
90159W        W91023  27.254  12.792  12.036
90160W        W91024  27.373  13.294  14.163
90161W        W91025  27.250  11.800  12.210
90162W        W91026  28.408  11.174  12.194
90163W        W91027  28.232  14.543  12.715
90164W        W91028  27.818  14.301  12.906
90165W        W91029  27.152  13.261  13.129
90166W        W91030  28.726  13.920  13.313
90167W        W91031  26.456  11.312  11.878
90168W        W91032  27.141  13.765  13.009
90169W        W91033  26.627  11.664  10.889
90170W        W91034  27.607  12.203  13.563
90171W        W91035  28.180  11.131  13.076
90172W        W91036  25.605  12.905  13.246
90173W        W91037  27.521  12.859  11.143
90174W        W91038  26.448  11.190  11.002
90175W        W91039  27.392  12.305  12.234
90176W        W91040  28.093  11.278  13.561
90177W        W91041  26.736  13.272  13.790
90178W        W91042  27.616  12.836  14.191
90179W        W91043  28.115  12.977  14.143
90180W        W91044  27.444  11.207  14.673
90181W        W91045  26.847  11.944  13.113
90182W        W91046  26.168  11.641  12.392
90183W        W91047  25.910  14.413  12.118
90184W        W91048  27.426  13.902  14.209
90185W        W91049  26.990  13.541  11.629
90186W        W91050  28.261  12.836  12.796
90187W        W91051  28.276  12.357  12.977
90188W        W91052  27.632  13.099  13.283
90189W        W91053  28.150  13.650  11.005
90190W        W91054  27.619  11.503  12.425
90191W        W91055   0.075  11.912  11.770
90192W        W91056  25.780  14.379  13.947
90193W        W91057  26.074  13.610  13.395
90194W        W91058  25.607  14.675  11.757
90195W        W91059  27.454  11.404  13.354
90196W        W91060  26.877  13.807  11.225
90197W        W91061  28.731  14.191  11.423
90198W        W91062  27.941  12.772  11.428
90199W        W91063  26.706  11.610  12.228
90200W        W91064  27.583  11.815  11.204
90201W        W91065  27.848  13.397  14.315
90202W        W91066  28.330  11.507  11.680
90203W        W91067  25.598  10.993  11.249
90204W        W91068  26.981  13.607  13.472
90205W        W91069  26.772  13.460  12.836
90206W        W91070  26.667  13.478  10.901
90207W        W91071  25.797  14.161  11.683
90208W        W91072  26.249  12.599  14.101
90209W        W91073  26.828  11.303  14.195
90210W        W91074  27.625  11.179  13.781
90211W        W91075  26.831  11.044  12.105
90212W        W91076  27.669  11.047  11.678
90213W        W91077  25.927  11.155  13.123
90214W        W91078  25.757  12.031  12.462
90215W        W91079  28.514  11.060  12.697
90216W        W91080  26.050  11.642  11.842
90217W        W91081  28.524  11.429  13.323
90218W        W91082  28.866  12.520  11.086
90219W        W91083  26.267  11.451  12.871
90220W        W91084  27.459  11.846  13.904
90221W        W91085  25.562  11.502  11.280
90222W        W91086  26.256  13.081  13.652
90223W        W91087  27.767  12.366  13.087
90224W        W91088  27.437  14.465  11.237
90225W        W91089  25.676  12.716  10.952
90226W        W91090  26.537  13.639  14.142
90227W        W91091  25.949  12.623  13.663
90228W        W91092  26.931  12.940  13.449
90229W        W91093  28.525  11.092  13.784
90230W        W91094   0.069  12.733  13.922
90231W        W91095  28.951  12.868  11.488
90232W        W91096  27.839  13.286  11.550
90233W        W91097  28.410  14.485  11.035
90234W        W91098  27.615  12.505  14.594
90235W        W91099  26.126  13.523  14.424
90236W        W91100   0.104  11.529  14.379
90237W        W91101  28.953  12.208  13.055
90238W        W91102  27.148  14.340  14.468
90239W        W91103  26.940  11.176  11.164
90240W        W91104  28.604  13.599  11.227
90241W        W91105  26.426  11.829  13.973
90242W        W91106  27.040  13.649  13.977
90243W        W91107  28.834  11.569  13.721
90244W        W91108  28.229  14.515  11.517
90245W        W91109  28.452  13.123  13.184
90246W        W91110  26.643  11.447  13.699
90247W        W91111  27.152  12.452  14.331
90248W        W91112  26.562  13.718  11.915
90249W        W91113  28.009  13.393  12.036
90250W        W91114  26.009  11.696  13.698
90251W        W91115  27.553  13.804  12.212
90252W        W91116   0.190  12.394  12.347
90253W        W91117  27.244  11.023  14.119
90254W        W91118  28.340  13.654  13.110
90255W        W91119  28.614  14.267  12.938
90256W        W91120  27.806  13.786  11.397
90257W        W91121  25.640  13.674  14.266
90258W        W91122  26.393  11.737  13.319
90259W        W91123  26.453  11.203  12.437
90260W        W91124  28.091  11.642  13.139
90261W        W91125  27.073  13.185  11.094
90262W        W91126  28.740  13.058  12.749
90263W        W91127  26.043  13.969  14.144
90264W        W91128  28.581  14.579  11.889
90265W        W91129  26.749  11.605  12.742
90266W        W91130  26.357  13.144  12.719
90267W        W91131  26.679  14.623  13.412
90268W        W91132  28.633  14.633  14.238
90269W        W91133  28.051  12.768  13.269
90270W        W91134  25.855  12.199  10.809
90271W        W91135  28.881  14.173  11.978
90272W        W91136  28.765  11.653  11.453
90273W        W91137  26.797  10.943  13.802
90274W        W91138  28.661  13.944  12.408
90275W        W91139  28.714  12.348  12.126
90276W        W91140  27.087  12.044  12.657
90277W        W91141  27.149  12.258  13.820
90278W        W91142  28.143  13.476  13.902
90279W        W91143  26.753  11.967  13.620
90280W        W91144  26.818  14.483  12.545
90281W        W91145  26.146  14.466  14.297
90282W        W91146  26.406  13.918  11.019
90283W        W91147  28.580  13.523  12.085
90284W        W91148  26.391  12.337  13.656
90285W        W91149   0.032  12.068  11.275
90286W        W91150  27.122  13.290  12.049
90287W        W91151  27.972  12.578  13.764
90288W        W91152  28.102  12.127  13.444
90289W        W91153  26.459  12.754  13.306
90290W        W91154  28.359  14.600  13.309
90291W        W91155  28.230  11.148  14.327
90292W        W91156  25.827  11.238  13.998
90293W        W91157  26.427  12.244  13.158
90294W        W91158  26.948  12.106  10.926
90295W        W91159  25.666  13.802  13.763
90296W        W91160  27.277  12.750  13.124
90297W        W91161  27.154  11.622  10.974
90298W        W91162  26.387  12.620  12.801
90299W        W91163  25.847  14.485  13.440
90300W        W91164  28.473  12.739  11.384
90301W        W91165  28.630  11.426  14.175
90302W        W91166  28.183  13.844  12.202
90303W        W91167  25.739  12.523  14.174
90304W        W91168  28.684  11.149  11.498
90305W        W91169  28.258  13.608  11.623
90306W        W91170  27.465  12.594  11.594
90307W        W91171  28.350  11.420  11.173
90308W        W91172  28.506  11.950  13.174
90309W        W91173  25.821  12.526  12.655
90310W        W91174  26.510  13.617  12.428
90311W        W91175  28.235  12.153  12.211
90312W        W91176  27.264  11.585  12.872
90313W        W91177   0.117  13.492  13.486
90314W        W91178  28.904  11.294  12.946
90315W        W91179  25.619  14.334  12.549
90316W        W91180  25.962  11.325  14.584
90317W        W91181  28.987  12.877  12.316
90318W        W91182  28.244  13.190  11.268
90319W        W91183  27.798  14.479  13.389
90320W        W91184  28.341  13.244  14.529
90321W        W91185  27.044  10.992  11.629
90322W        W91186  28.097  11.891  12.669
90323W        W91187  25.750  13.515  12.993
90324W        W91188  27.034  11.458  11.845
90325W        W91189  26.868  13.258  14.289
90326W        W91190  27.764  11.947  12.179
90327W        W91191  27.988  13.456  13.429
90328W        W91192  26.091  14.071  13.653
90329W        W91193  26.884  13.908  14.403
90330W        W91194  26.650  11.498  11.425
90331W        W91195  28.037  11.933  11.735
90332W        W91196  27.950  13.972  14.023
90333W        W91197  26.871  12.443  12.927
90334W        W91198  28.919  14.378  10.992
90335W        W91199  25.878  13.017  14.024
90336W        W91200  28.025  13.276  12.947
90337W        W91201  26.071  13.545  12.022
90338W        W91202  26.837  14.126  13.537
90339W        W91203  27.109  11.348  12.429
90340W        W91204  25.248  13.432  11.286
90341W        W91205  27.352  12.265  11.199
90342W        W91206  25.707  13.089  12.228
90343W        W91207  27.152  11.406  13.777
90344W        W91208  28.802  11.222  10.993
90345W        W91209  28.869  12.930  14.330
90346W        W91210  27.646  14.346  14.359
90347W        W91211   0.051  13.267  13.954
90348W        W91212  28.708  13.939  14.495
90349W        W91213  26.480  14.576  12.941
90350W        W91214   0.047  13.197  11.917
90351W        W91215  27.928  12.383  12.580
90352W        W91216  27.341  11.047  12.072
90353W        W91217  26.653  14.138  12.205
90354W        W91218  27.215  11.833  13.465
90355W        W91219  26.839  11.104  12.797
90356W        W91220  25.738  14.496  11.285
90357W        W91221  27.566  13.273  12.288
90358W        W91222  26.502  14.144  13.961
90359W        W91223  25.504  13.300  11.727
90360W        W91224  25.755  11.567  12.716
90361W        W91225  27.546  13.407  12.850
90362W        W91226  25.661  11.300  11.753
90363W        W91227  28.448  12.511  13.512
90364W        W91228  28.100  11.878  11.162
90365W        W91229  28.804  13.471  13.054
90366W        W91230  27.504  13.920  12.699
90367W        W91231  26.827  14.115  11.691
90368W        W91232  27.885  11.032  11.082
90369W        W91233  25.973  14.457  12.926
90370W        W91234  27.844  12.046  14.474
90371W        W91235  25.986  11.703  14.221
90372W        W91236  25.536  12.253  11.863
90373W        W91237  27.048  12.674  11.202
90374W        W91238  28.052  12.476  14.265
90375W        W91239  26.795  12.946  12.938
90376W        W91240  27.850  11.061  12.204
90377W        W91241  27.308  14.389  12.704
90378W        W91242  28.329  13.894  13.657
90379W        W91243  28.217  14.003  12.703
90380W        W91244  28.008  13.104  12.458
90381W        W91245  27.359  11.367  11.405
90382W        W91246   0.001  11.017  12.064
90383W        W91247  26.775  12.705  10.753
90384W        W91248  28.899  11.892  12.253
90385W        W91249  27.755  13.326  11.049
90386W        W91250  28.556  13.230  14.052
90387W        W91251  28.251  14.045  11.302
90388W        W91252  26.952  11.797  14.075
90389W        W91253  26.859  12.433  13.434
90390W        W91254  28.701  13.718  13.998
90391W        W91255  27.946  11.487  14.021
90392W        W91256  25.539  12.200  13.831
90393W        W91257  27.452  12.705  13.629
90394W        W91258  25.986  13.482  12.531
90395W        W91259  25.988  12.572  13.143
90396W        W91260  28.267  13.034  13.652
90397W        W91261  28.125  14.504  14.248
90398W        W91262  27.945  12.025  13.944
90399W        W91263  28.301  14.339  12.249
90400W        W91264  27.320  13.963  13.661
90401W        W91265  26.925  14.262  13.032
90402W        W91266  28.583  13.459  13.558
90403W        W91267  27.533  13.769  14.874
90404W        W91268  26.276  13.602  12.929
90405W        W91269  28.496  13.069  12.301
90406W        W91270  28.199  14.136  13.220
90407W        W91271  26.211  14.077  13.166
90408W        W91272  27.346  11.967  14.379
90409W        W91273  27.605  14.245  11.901
90410W        W91274  27.191  13.527  14.589
90411W        W91275  27.056  13.813  12.071
90412W        W91276  26.339  12.352  10.626
90413W        W91277  25.600  14.580  17.941
90414W        W91278  26.031  13.580  17.513
90415W        W91279  28.778  13.292  15.298
90416W        W91280  28.861  14.362  17.315
90417W        W91281  26.760  14.191  14.840
90418W        W91282  27.163  12.526  16.107
90419W        W91283  26.381  12.002  16.115
90420W        W91284  27.439  12.997  15.345
90421W        W91285  27.075  14.262  17.729
90422W        W91286  25.653  11.677  17.660
90423W        W91287  26.238  10.781  17.488
90424W        W91288  28.097  11.270  16.258
90425W        W91289  27.771  12.170  15.026
90426W        W91290  28.264  11.773  17.917
90427W        W91291  25.768  11.316  17.308
90428W        W91292  25.770  14.083  18.019
90429W        W91293  27.410  13.515  15.292
90430W        W91294  25.611  12.051  16.664
90431W        W91295  26.653  12.312  17.774
90432W        W91296  28.852  11.914  16.439
90433W        W91297  28.829  12.953  17.254
90434W        W91298  27.648  12.455  15.933
90435W        W91299  27.771  13.800  16.620
90436W        W91300  26.177  13.094  16.935
90437W        W91301  25.442  12.549  16.584
90438W        W91302  26.684  12.714  17.378
90439W        W91303  28.787  12.298  17.928
90440W        W91304  26.515  13.783  16.294
90441W        W91305  27.688  13.542  17.394
90442W        W91306  26.996  12.122  16.598
90443W        W91307  27.182  12.980  16.374
90444W        W91308  27.772  13.889  18.057
90445W        W91309  27.233  12.982  18.094
90446W        W91310  27.162  12.831  17.591
90447W        W91311  25.553  11.973  18.083
90448W        W91312  28.265  13.758  17.923
90449W        W91313  25.949  11.151  15.806
90450W        W91314  26.645  13.558  16.744
90451W        W91315   0.059  13.566  16.126
90452W        W91316  28.188  11.568  16.648
90453W        W91317  28.626  11.705  14.615
90454W        W91318   0.063  12.499  17.081
90455W        W91319  27.276  14.255  16.762
90456W        W91320  28.664  13.776  15.465
90457W        W91321  26.106  14.544  15.273
90458W        W91322  26.446  14.455  15.646
90459W        W91323  26.270  11.123  17.026
90460W        W91324  28.728  12.096  17.284
90461W        W91325  28.146  12.592  15.944
90462W        W91326  28.100  12.476  14.778
90463W        W91327  27.476  13.535  16.938
90464W        W91328  27.351  11.780  16.141
90465W        W91329  27.688  13.991  17.107
90466W        W91330  28.737  12.849  15.550
90467W        W91331  27.735  11.417  15.525
90468W        W91332  26.395  14.107  15.232
90469W        W91333  25.599  11.446  16.058
90470W        W91334  28.349  12.034  16.501
90471W        W91335  25.966  13.853  16.342
90472W        W91336  27.394  14.069  15.265
90473W        W91337  28.437  12.189  14.537
90474W        W91338  25.759  13.971  16.811
90475W        W91339  26.458  13.616  17.220
90476W        W91340  26.863  13.009  15.981
90477W        W91341  26.706  11.401  16.883
90478W        W91342   0.020  11.048  16.390
90479W        W91343  26.382  13.126  14.148
90480W        W91344  25.824  11.827  14.702
90481W        W91345  26.204  13.706  15.899
90482W        W91346  27.284  13.491  15.964
90483W        W91347  28.471  14.139  17.595
90484W        W91348  27.480  11.864  15.338
90485W        W91349  28.627  14.365  16.015
90486W        W91350  28.364  12.220  17.624
90487W        W91351   0.124  13.598  15.628
90488W        W91352  27.794  13.063  17.284
90489W        W91353  25.360  12.587  15.866
90490W        W91354  26.673  13.155  17.085
90491W        W91355  27.984  12.261  15.567
90492W        W91356  27.837  12.831  15.609
90493W        W91357  26.032  12.122  16.985
90494W        W91358  26.156  12.156  17.807
90495W        W91359  25.939  11.094  16.320
90496W        W91360  27.657  11.439  16.543
90497W        W91361  27.346  11.507  17.809
90498W        W91362  27.852  11.371  15.029
90499W        W91363  28.994  14.143  17.753
90500W        W91364  27.691  11.029  17.730
90501W        W91365  28.769  13.560  17.993
90502W        W91366  28.312  11.718  17.402
90503W        W91367  28.150  11.572  15.820
90504W        W91368  28.418  12.781  18.155
90505W        W91369  26.268  14.208  16.084
90506W        W91370  27.053  11.754  15.070
90507W        W91371  26.405  11.210  17.782
90508W        W91372  28.442  11.933  15.567
90509W        W91373  28.912  12.392  15.346
90510W        W91374  26.584  14.359  17.883
90511W        W91375  26.470  11.073  15.191
90512W        W91376  28.950  11.478  16.123
90513W        W91377   0.161  13.804  14.665
90514W        W91378  25.851  13.019  16.528
90515W        W91379  27.886  11.481  14.527
90516W        W91380  28.985  14.080  16.260
90517W        W91381  28.858  11.082  16.994
90518W        W91382  27.547  12.445  17.633
90519W        W91383  27.859  13.747  15.287
90520W        W91384  27.855  13.030  18.206
90521W        W91385  27.673  10.950  16.260
90522W        W91386  26.127  11.883  16.544
90523W        W91387  25.817  13.157  17.308
90524W        W91388  27.706  14.276  15.961
90525W        W91389  28.589  11.781  16.885
90526W        W91390  27.568  14.377  17.452
90527W        W91391  28.742  13.102  14.798
90528W        W91392  27.418  12.968  15.904
90529W        W91393  28.984  11.105  17.513
90530W        W91394  27.276  13.180  17.247
90531W        W91395  27.503  12.091  16.511
90532W        W91396  28.285  12.193  15.156
90533W        W91397  28.733  12.092  14.953
90534W        W91398  28.269  14.044  15.293
90535W        W91399  28.342  13.439  16.217
90536W        W91400  28.274  12.651  15.409
90537W        W91401  27.690  12.810  16.339
90538W        W91402  28.555  12.460  16.290
90539W        W91403  26.033  11.588  16.965
90540W        W91404  28.527  12.709  17.659
90541W        W91405  28.894  14.427  16.703
90542W        W91406  26.973  13.894  16.077
90543W        W91407  28.084  14.443  17.395
90544W        W91408  27.908  11.525  17.069
90545W        W91409  27.231  14.642  17.127
90546W        W91410  28.682  11.464  15.645
90547W        W91411  28.629  12.795  16.744
90548W        W91412  25.615  11.838  17.157
90549W        W91413  28.471  11.636  16.208
90550W        W91414  28.754  11.830  17.726
90551W        W91415  27.819  13.590  16.113
90552W        W91416  27.224  14.250  15.745
90553W        W91417  26.027  11.373  15.099
90554W        W91418  27.281  11.081  16.647
90555W        W91419  26.241  14.385  14.802
90556W        W91420  27.098  12.695  15.599
90557W        W91421  27.335  13.378  17.741
90558W        W91422  27.264  11.520  15.698
90559W        W91423  28.541  11.142  16.040
90560W        W91424  28.127  14.512  16.140
90561W        W91425  27.700  14.315  16.470
90562W        W91426  27.066  13.263  16.777
90563W        W91427  28.698  14.000  16.968
90564W        W91428  26.413  11.368  15.636
90565W        W91429  27.114  13.774  16.648
90566W        W91430  26.534  11.656  14.442
90567W        W91431  27.299  12.229  17.012
90568W        W91432  28.005  11.086  16.739
90569W        W91433  25.562  12.892  16.956
90570W        W91434  27.302  12.677  14.976
90571W        W91435  26.482  11.175  14.610
90572W        W91436  27.283  12.129  15.757
90573W        W91437  28.078  11.252  17.470
90574W        W91438  26.840  13.246  17.555
90575W        W91439  27.629  12.940  17.756
90576W        W91440  28.125  13.026  17.682
90577W        W91441  27.463  11.172  18.181
90578W        W91442  26.645  11.752  16.489
90579W        W91443  26.111  11.555  16.108
90580W        W91444  26.036  14.131  15.624
90581W        W91445  27.453  13.917  17.622
90582W        W91446  26.599  13.104  15.526
90583W        W91447  28.210  12.837  16.402
90584W        W91448  28.248  12.462  16.747
90585W        W91449  27.515  13.020  16.795
90586W        W91450  27.973  13.482  14.807
90587W        W91451  27.684  11.412  16.018
90588W        W91452  28.933  11.871  15.394
90589W        W91453  25.811  14.315  17.547
90590W        W91454  25.962  13.556  17.008
90591W        W91455  25.641  14.430  15.480
90592W        W91456  27.481  11.759  16.924
90593W        W91457  27.024  13.773  15.043
90594W        W91458  28.704  14.136  15.036
90595W        W91459  27.813  12.737  15.093
90596W        W91460  26.875  11.834  15.593
90597W        W91461  27.531  11.723  14.818
90598W        W91462  27.855  13.422  17.864
90599W        W91463  28.232  11.312  15.388
90600W        W91464  25.646  11.043  14.928
90601W        W91465  26.984  13.603  17.151
90602W        W91466  26.905  13.424  16.313
90603W        W91467  26.671  13.551  14.700
90604W        W91468  25.599  13.889  15.447
90605W        W91469  26.269  12.677  17.704
90606W        W91470  26.894  11.246  17.940
90607W        W91471  27.436  11.378  17.276
90608W        W91472  26.876  11.063  15.814
90609W        W91473  27.712  10.945  15.332
90610W        W91474  25.797  11.124  16.824
90611W        W91475  25.769  11.930  16.162
90612W        W91476  28.561  11.227  16.567
90613W        W91477  25.830  11.670  15.665
90614W        W91478  28.391  11.326  17.058
90615W        W91479  28.988  12.506  14.742
90616W        W91480  26.288  11.390  16.567
90617W        W91481  27.298  11.881  17.438
90618W        W91482  25.463  11.528  14.918
90619W        W91483  26.321  13.139  17.459
90620W        W91484  27.753  12.447  16.853
90621W        W91485  27.464  14.420  14.853
90622W        W91486  25.446  12.752  14.527
90623W        W91487  26.500  13.608  17.741
90624W        W91488  26.036  12.684  17.227
90625W        W91489  27.007  12.778  16.966
90626W        W91490  28.504  10.963  17.416
90627W        W91491   0.037  12.600  17.582
90628W        W91492   0.024  12.848  15.112
90629W        W91493  27.881  13.227  15.238
90630W        W91494  28.430  14.362  14.639
90631W        W91495  27.572  12.563  18.144
90632W        W91496  26.052  13.604  18.025
90633W        W91497   0.438  11.403  18.082
90634W        W91498  28.731  12.277  16.773
90635W        W91499  27.079  14.292  18.239
90636W        W91500  26.946  11.144  14.908
90637W        W91501  28.724  13.625  14.906
90638W        W91502  26.439  11.728  17.768
90639W        W91503  26.977  13.748  17.638
90640W        W91504  28.800  11.547  17.291
90641W        W91505  28.235  14.521  15.089
90642W        W91506  28.386  13.232  16.695
90643W        W91507  26.449  11.489  17.323
90644W        W91508  27.105  12.473  17.966
90645W        W91509  26.635  13.618  15.343
90646W        W91510  28.283  13.140  15.566
90647W        W91511  26.081  11.838  17.411
90648W        W91512  27.572  13.846  15.713
90649W        W91513   0.108  12.362  16.022
90650W        W91514  27.200  11.045  17.584
90651W        W91515  28.274  13.735  16.666
90652W        W91516  28.522  14.156  16.478
90653W        W91517  27.881  14.164  14.962
90654W        W91518  25.589  13.657  17.756
90655W        W91519  26.473  11.871  16.969
90656W        W91520  26.411  11.149  16.101
90657W        W91521  27.918  11.974  16.772
90658W        W91522  27.043  13.246  15.034
90659W        W91523  28.804  13.177  16.390
90660W        W91524  26.201  14.029  17.731
90661W        W91525  28.583  14.426  15.483
90662W        W91526  26.785  11.531  16.028
90663W        W91527  26.401  13.238  16.145
90664W        W91528  26.784  14.515  16.897
90665W        W91529  28.710  14.548  17.864
90666W        W91530  28.004  12.896  16.856
90667W        W91531  25.681  12.334  14.694
90668W        W91532  28.966  14.108  15.706
90669W        W91533  28.516  11.663  15.142
90670W        W91534  26.701  11.021  17.383
90671W        W91535  28.590  13.845  16.012
90672W        W91536  28.598  12.398  15.769
90673W        W91537  26.902  12.040  16.101
90674W        W91538  27.067  12.347  17.458
90675W        W91539  28.198  13.507  17.472
90676W        W91540  26.728  11.952  17.417
90677W        W91541  26.774  14.362  16.035
90678W        W91542  26.105  14.490  17.973
90679W        W91543  26.384  13.978  14.523
90680W        W91544  28.690  13.369  15.809
90681W        W91545  26.360  12.298  17.336
90682W        W91546   0.237  12.131  15.021
90683W        W91547  27.075  13.254  15.572
90684W        W91548  28.007  12.578  17.339
90685W        W91549  27.741  12.104  17.262
90686W        W91550  26.463  12.680  16.904
90687W        W91551  28.471  14.488  16.984
90688W        W91552  28.205  11.010  17.898
90689W        W91553  25.898  11.222  17.803
90690W        W91554  26.461  12.255  16.610
90691W        W91555  26.855  12.057  14.527
90692W        W91556  25.622  13.885  17.296
90693W        W91557  27.318  12.557  16.615
90694W        W91558  27.055  11.565  14.584
90695W        W91559  26.288  12.742  16.387
90696W        W91560  25.768  14.443  17.052
90697W        W91561  28.569  12.599  14.996
90698W        W91562  28.530  11.370  17.717
90699W        W91563  28.179  13.632  15.713
90700W        W91564  25.813  12.521  17.918
90701W        W91565  28.679  11.164  15.152
90702W        W91566  28.313  13.513  15.197
90703W        W91567  27.527  12.450  15.413
90704W        W91568  28.310  11.317  14.814
90705W        W91569  28.242  12.128  17.121
90706W        W91570  25.786  12.524  16.210
90707W        W91571  26.713  13.505  15.847
90708W        W91572  28.238  12.084  16.002
90709W        W91573  27.129  11.586  16.569
90710W        W91574   0.088  13.478  17.109
90711W        W91575  28.996  11.480  16.681
90712W        W91576  25.756  14.299  16.050
90713W        W91577  25.630  13.382  15.628
90714W        W91578  26.025  11.237  18.328
90715W        W91579  27.250  13.837  18.069
90716W        W91580   0.024  12.958  15.984
90717W        W91581  28.274  13.014  15.003
90718W        W91582  27.716  14.493  16.969
90719W        W91583  28.339  13.277  18.075
90720W        W91584  27.155  10.903  15.336
90721W        W91585  27.911  11.803  16.276
90722W        W91586  25.623  13.504  16.595
90723W        W91587  26.877  11.352  15.382
90724W        W91588  26.747  12.837  17.874
90725W        W91589  27.735  11.880  15.793
90726W        W91590  28.002  13.444  16.992
90727W        W91591  26.116  14.016  17.227
90728W        W91592  26.746  13.921  18.077
90729W        W91593  26.593  11.532  14.963
90730W        W91594  28.007  11.791  15.322
90731W        W91595  27.949  13.966  17.571
90732W        W91596  26.816  12.609  16.500
90733W        W91597  26.276  14.391  16.932
90734W        W91598  28.955  14.365  14.646
90735W        W91599  25.892  13.054  17.796
90736W        W91600  27.913  13.273  16.509
90737W        W91601  26.133  13.246  15.695
90738W        W91602  26.722  14.012  16.963
90739W        W91603  27.224  11.277  16.165
90740W        W91604  25.390  13.094  14.930
90741W        W91605  27.284  12.177  14.835
90742W        W91606  25.751  12.932  15.867
90743W        W91607  26.947  11.485  17.460
90744W        W91608  28.800  11.220  14.659
90745W        W91609  28.894  12.927  17.952
90746W        W91610  27.528  14.328  17.984
90747W        W91611   0.091  13.245  17.581
90748W        W91612  28.637  14.047  18.110
90749W        W91613  26.444  14.497  16.465
90750W        W91614   0.213  13.082  15.514
90751W        W91615  27.939  12.339  16.358
90752W        W91616  27.425  11.023  15.767
90753W        W91617  26.597  13.983  15.724
90754W        W91618  26.986  11.807  17.015
90755W        W91619  26.806  11.163  16.427
90756W        W91620  25.874  14.131  15.079
90757W        W91621  27.695  13.345  15.682
90758W        W91622  26.632  14.078  17.455
90759W        W91623  25.461  12.840  15.418
90760W        W91624  25.756  11.548  16.528
90761W        W91625  27.434  13.423  16.439
90762W        W91626  25.583  11.282  15.415
90763W        W91627  28.519  12.552  17.180
90764W        W91628  28.148  11.823  14.817
90765W        W91629  28.756  13.682  16.535
90766W        W91630  27.445  13.924  16.243
90767W        W91631  26.886  14.202  15.354
90768W        W91632  27.922  10.947  14.729
90769W        W91633  25.943  14.334  16.523
90770W        W91634  27.830  12.129  18.277
90771W        W91635  26.005  11.686  18.046
90772W        W91636  25.570  12.140  15.718
90773W        W91637  27.074  12.235  15.299
90774W        W91638  28.021  12.575  17.885
90775W        W91639  26.622  13.075  16.583
90776W        W91640  28.007  11.042  15.794
90777W        W91641  27.248  14.416  16.237
90778W        W91642  28.228  13.920  17.156
90779W        W91643  28.083  14.004  16.255
90780W        W91644  27.999  13.102  16.015
90781W        W91645  27.360  11.350  15.176
90782W        W91646   0.006  11.034  15.816
90783W        W91647  26.725  12.751  14.322
90784W        W91648  28.818  11.937  15.917
90785W        W91649  27.530  13.208  14.857
90786W        W91650  28.593  13.232  17.626
90787W        W91651  28.292  13.887  14.809
90788W        W91652  26.931  11.830  17.878
90789W        W91653  26.783  12.302  17.028
90790W        W91654  28.773  13.726  17.490
90791W        W91655  27.775  11.657  17.555
90792W        W91656  25.700  12.181  17.548
90793W        W91657  27.460  12.684  17.194
90794W        W91658  25.878  13.362  16.139
90795W        W91659  25.953  12.554  16.727
90796W        W91660  28.327  13.051  17.209
90797W        W91661  28.100  14.300  17.924
90798W        W91662  27.893  12.096  17.770
90799W        W91663  28.222  14.155  15.784
90800W        W91664  27.149  14.109  17.242
90801W        W91665  26.835  14.172  16.495
90802W        W91666  28.557  13.506  17.082
90803W        W91667  27.495  13.425  18.251
90804W        W91668  26.179  13.438  16.556
90805W        W91669  28.512  12.937  16.012
90806W        W91670  28.097  14.217  16.760
90807W        W91671  26.272  13.918  16.740
90808W        W91672  27.401  12.049  17.940
90809W        W91673  27.826  14.244  15.473
90810W        W91674  26.911  13.407  18.040
90811W        W91675  27.071  13.778  15.578
90812W        W91676  26.296  12.124  14.385
90813W        W91677  25.658  14.596  21.797
90814W        W91678  26.062  13.573  21.252
90815W        W91679  28.622  13.190  18.883
90816W        W91680  28.963  14.288  20.965
90817W        W91681  26.631  14.234  18.496
90818W        W91682  26.910  12.496  19.327
90819W        W91683  26.363  12.188  19.730
90820W        W91684  27.413  13.044  19.042
90821W        W91685  27.063  14.302  21.187
90822W        W91686  25.637  11.656  21.217
90823W        W91687  26.290  10.906  21.113
90824W        W91688  28.062  11.341  19.870
90825W        W91689  27.937  12.268  18.803
90826W        W91690  28.316  11.868  21.593
90827W        W91691  25.733  11.311  20.833
90828W        W91692  25.865  14.129  21.850
90829W        W91693  27.014  13.655  18.484
90830W        W91694  25.697  12.085  20.281
90831W        W91695  26.840  12.196  21.382
90832W        W91696  28.900  11.828  19.993
90833W        W91697  28.871  13.080  20.920
90834W        W91698  27.272  12.284  19.710
90835W        W91699  27.879  13.788  20.293
90836W        W91700  26.189  12.997  20.587
90837W        W91701  25.497  12.571  20.251
90838W        W91702  26.858  12.526  21.007
90839W        W91703  28.860  12.443  21.558
90840W        W91704  26.517  13.701  19.964
90841W        W91705  27.681  13.606  20.979
90842W        W91706  26.945  12.074  20.083
90843W        W91707  27.192  12.900  19.957
90844W        W91708  28.003  13.828  21.747
90845W        W91709  27.253  13.065  21.675
90846W        W91710  27.235  12.857  21.166
90847W        W91711  25.289  11.922  21.532
90848W        W91712  28.421  13.808  21.439
90849W        W91713  26.041  11.213  19.357
90850W        W91714  26.612  13.332  20.535
90851W        W91715   0.039  13.453  19.841
90852W        W91716  28.411  11.683  20.137
90853W        W91717  28.661  11.826  18.243
90854W        W91718   0.007  12.580  20.830
90855W        W91719  27.156  14.121  20.387
90856W        W91720  28.782  13.665  18.949
90857W        W91721  26.008  14.477  19.028
90858W        W91722  26.383  14.448  19.408
90859W        W91723  26.351  11.229  20.678
90860W        W91724  28.772  12.129  20.945
90861W        W91725  28.140  12.622  19.576
90862W        W91726  28.030  12.593  18.422
90863W        W91727  27.451  13.592  20.503
90864W        W91728  27.321  11.779  19.646
90865W        W91729  27.794  14.056  20.746
90866W        W91730  28.708  12.787  19.217
90867W        W91731  27.754  11.430  19.026
90868W        W91732  26.259  14.020  19.132
90869W        W91733  25.681  11.527  19.515
90870W        W91734  28.264  12.181  19.928
90871W        W91735  26.011  13.832  20.084
90872W        W91736  27.081  14.110  18.733
90873W        W91737  28.326  12.241  18.158
90874W        W91738  25.784  13.896  20.553
90875W        W91739  26.508  13.586  20.969
90876W        W91740  26.878  12.982  19.569
90877W        W91741  26.763  11.411  20.420
90878W        W91742  28.888  10.930  19.977
90879W        W91743  26.383  13.175  17.981
90880W        W91744  26.181  11.742  18.534
90881W        W91745  26.159  13.778  19.584
90882W        W91746  26.896  13.509  19.652
90883W        W91747  28.519  14.253  21.209
90884W        W91748  27.698  11.826  18.719
90885W        W91749  28.707  14.371  19.695
90886W        W91750  28.432  12.285  21.318
90887W        W91751   0.104  13.677  19.376
90888W        W91752  27.864  13.110  21.019
90889W        W91753  25.268  12.565  19.363
90890W        W91754  26.871  12.996  20.814
90891W        W91755  27.757  12.425  19.271
90892W        W91756  27.794  12.946  19.362
90893W        W91757  26.112  12.118  20.654
90894W        W91758  26.089  12.056  21.188
90895W        W91759  25.985  11.076  19.870
90896W        W91760  27.586  11.448  20.039
90897W        W91761  27.502  11.505  21.455
90898W        W91762  27.888  11.361  18.522
90899W        W91763  28.928  14.214  21.510
90900W        W91764  27.783  11.053  21.452
90901W        W91765  28.823  13.591  21.693
90902W        W91766  28.423  11.749  21.083
90903W        W91767  28.140  11.554  19.397
90904W        W91768  28.492  12.890  21.816
90905W        W91769  26.263  14.235  19.871
90906W        W91770  27.191  11.815  18.754
90907W        W91771  26.426  11.281  21.438
90908W        W91772  28.576  11.981  19.153
90909W        W91773  28.848  12.366  18.929
90910W        W91774  26.658  14.494  21.496
90911W        W91775  26.642  10.875  18.806
90912W        W91776  28.747  11.385  19.768
90913W        W91777   0.042  13.828  18.400
90914W        W91778  25.844  12.965  20.145
90915W        W91779  27.907  11.414  18.004
90916W        W91780   0.021  13.905  20.121
90917W        W91781   0.026  11.190  20.727
90918W        W91782  27.703  12.355  21.469
90919W        W91783  27.336  13.575  18.889
90920W        W91784  27.972  13.065  21.861
90921W        W91785  27.678  10.975  19.763
90922W        W91786  26.153  11.934  20.127
90923W        W91787  25.931  13.101  21.060
90924W        W91788  27.783  14.166  19.783
90925W        W91789  28.861  11.816  20.507
90926W        W91790  27.592  14.303  21.176
90927W        W91791  28.743  13.128  18.388
90928W        W91792  27.345  12.729  19.478
90929W        W91793   0.066  11.251  21.259
90930W        W91794  27.425  13.146  20.785
90931W        W91795  27.463  11.966  20.119
90932W        W91796  28.322  12.444  19.106
90933W        W91797  28.458  12.155  18.660
90934W        W91798  28.375  13.969  19.052
90935W        W91799  28.494  13.438  19.920
90936W        W91800  27.991  12.794  18.907
90937W        W91801  27.706  12.843  19.862
90938W        W91802  28.649  12.557  20.012
90939W        W91803  25.975  11.641  20.521
90940W        W91804  28.595  12.781  21.279
90941W        W91805   0.005  14.385  20.423
90942W        W91806  26.974  13.958  19.886
90943W        W91807  28.084  14.403  21.002
90944W        W91808  27.984  11.728  20.793
90945W        W91809  27.346  14.467  20.754
90946W        W91810  28.618  11.441  19.230
90947W        W91811  28.672  12.812  20.502
90948W        W91812  25.564  11.855  20.742
90949W        W91813  28.525  11.824  19.635
90950W        W91814  28.837  11.947  21.420
90951W        W91815  27.806  13.619  19.790
90952W        W91816  27.084  14.245  19.470
90953W        W91817  26.405  11.315  18.690
90954W        W91818  27.281  11.135  20.335
90955W        W91819  26.091  14.466  18.501
90956W        W91820  26.934  12.854  18.924
90957W        W91821  27.333  13.358  21.247
90958W        W91822  27.261  11.522  19.192
90959W        W91823  28.384  11.106  19.563
90960W        W91824  28.218  14.460  19.932
90961W        W91825  27.639  14.275  20.298
90962W        W91826  27.107  13.163  20.397
90963W        W91827  28.795  13.936  20.620
90964W        W91828  26.503  11.367  19.198
90965W        W91829  26.955  13.644  20.287
90966W        W91830  26.526  11.506  18.215
90967W        W91831  27.447  12.169  20.612
90968W        W91832  28.026  11.406  20.382
90969W        W91833  25.679  12.883  20.655
90970W        W91834  27.112  12.637  18.473
90971W        W91835  26.518  11.010  18.281
90972W        W91836  27.235  12.081  19.218
90973W        W91837  28.123  11.247  20.883
90974W        W91838  26.824  13.267  21.247
90975W        W91839  27.686  12.877  21.444
90976W        W91840  28.188  13.054  21.408
90977W        W91841  27.423  11.140  21.824
90978W        W91842  26.602  11.734  19.939
90979W        W91843  26.157  11.602  19.710
90980W        W91844  25.887  14.218  19.462
90981W        W91845  27.456  13.850  21.406
90982W        W91846  26.722  13.323  18.769
90983W        W91847  28.195  12.828  20.059
90984W        W91848  28.286  12.437  20.372
90985W        W91849  27.548  12.906  20.348
90986W        W91850  28.004  13.539  18.360
90987W        W91851  27.665  11.426  19.528
90988W        W91852   0.024  11.861  18.937
90989W        W91853  25.854  14.137  21.329
90990W        W91854  26.026  13.474  20.722
90991W        W91855  25.535  14.266  19.038
90992W        W91856  27.555  11.582  20.540
90993W        W91857  26.630  13.828  18.805
90994W        W91858  28.649  14.106  18.645
90995W        W91859  27.579  12.786  18.602
90996W        W91860  26.811  11.794  19.120
90997W        W91861  27.548  11.681  18.265
90998W        W91862  27.812  13.411  21.464
90999W        W91863  28.236  11.274  18.908
91000W        W91864  25.558  11.164  18.566
91001W        W91865  27.038  13.482  20.794
91002W        W91866  26.745  13.200  20.046
91003W        W91867  26.504  13.553  18.336
91004W        W91868  25.733  13.783  19.200
91005W        W91869  26.406  12.467  21.280
91006W        W91870  26.914  11.270  21.713
91007W        W91871  27.625  11.295  21.006
91008W        W91872  26.920  11.060  19.301
91009W        W91873  27.706  10.959  18.814
91010W        W91874  25.919  11.135  20.397
91011W        W91875  25.762  11.964  19.775
91012W        W91876  28.442  11.139  20.165
91013W        W91877  26.077  11.732  19.220
91014W        W91878  28.501  11.468  20.612
91015W        W91879  28.846  12.585  18.353
91016W        W91880  26.286  11.427  20.179
91017W        W91881  27.532  11.820  21.022
91018W        W91882  25.681  11.663  18.483
91019W        W91883  26.433  12.931  21.046
91020W        W91884  27.778  12.450  20.290
91021W        W91885  27.455  14.456  18.575
91022W        W91886  25.492  12.442  18.320
91023W        W91887  26.555  13.647  21.485
91024W        W91888  26.033  12.597  20.932
91025W        W91889  27.206  12.663  20.654
91026W        W91890  28.601  11.218  21.051
91027W        W91891   0.108  12.811  21.282
91028W        W91892  28.968  12.841  18.775
91029W        W91893  27.742  13.261  18.701
91030W        W91894  28.425  14.479  18.296
91031W        W91895  27.686  12.642  21.914
91032W        W91896  26.103  13.652  21.754
91033W        W91897   0.135  11.527  21.710
91034W        W91898  28.781  12.308  20.451
91035W        W91899  27.181  14.415  21.713
91036W        W91900  27.005  11.068  18.422
91037W        W91901  28.530  13.609  18.465
91038W        W91902  26.528  11.782  21.342
91039W        W91903  26.971  13.771  21.190
91040W        W91904  28.917  11.642  20.985
91041W        W91905  28.189  14.373  18.756
91042W        W91906  28.393  13.208  20.370
91043W        W91907  26.665  11.607  20.883
91044W        W91908  27.239  12.534  21.575
91045W        W91909  26.534  13.571  19.264
91046W        W91910  28.276  13.081  19.239
91047W        W91911  26.153  11.567  21.022
91048W        W91912  27.348  13.779  19.553
91049W        W91913   0.154  12.464  19.752
91050W        W91914  27.236  11.079  21.325
91051W        W91915  28.385  13.733  20.377
91052W        W91916  28.597  14.182  20.175
91053W        W91917  27.509  13.906  18.512
91054W        W91918  25.624  13.705  21.538
91055W        W91919  26.552  11.880  20.451
91056W        W91920  26.469  11.187  19.709
91057W        W91921  27.953  11.942  20.308
91058W        W91922  26.762  13.021  18.353
91059W        W91923  28.823  13.048  20.075
91060W        W91924  26.312  14.104  21.575
91061W        W91925  28.519  14.525  19.202
91062W        W91926  26.863  11.512  19.556
91063W        W91927  26.350  12.844  20.089
91064W        W91928  26.876  14.528  20.522
91065W        W91929  28.602  14.601  21.623
91066W        W91930  28.032  12.867  20.550
91067W        W91931  25.975  12.159  18.295
91068W        W91932  28.842  14.112  19.253
91069W        W91933  28.594  11.636  18.731
91070W        W91934  26.774  11.133  21.062
91071W        W91935  28.699  13.851  19.689
91072W        W91936  28.597  12.366  19.536
91073W        W91937  26.844  12.035  19.580
91074W        W91938  27.345  12.353  21.090
91075W        W91939  28.180  13.500  21.123
91076W        W91940  27.038  11.965  20.969
91077W        W91941  26.755  14.424  19.843
91078W        W91942  26.152  14.605  21.634
91079W        W91943  26.245  14.039  18.237
91080W        W91944  28.687  13.365  19.428
91081W        W91945  26.546  12.111  20.930
91082W        W91946   0.000  12.122  18.488
91083W        W91947  26.998  13.308  19.190
91084W        W91948  28.060  12.624  21.144
91085W        W91949  27.964  12.265  20.745
91086W        W91950  26.472  12.564  20.672
91087W        W91951  28.538  14.394  20.683
91088W        W91952  28.250  11.187  21.632
91089W        W91953  25.906  11.192  21.321
91090W        W91954  26.487  12.338  20.210
91091W        W91955  27.015  12.095  18.319
91092W        W91956  25.652  13.766  21.026
91093W        W91957  27.267  12.455  20.197
91094W        W91958  27.052  11.566  18.314
91095W        W91959  26.432  12.710  19.592
91096W        W91960  25.833  14.365  20.830
91097W        W91961  28.481  12.692  18.695
91098W        W91962  28.651  11.485  21.479
91099W        W91963  28.252  13.637  19.470
91100W        W91964  25.893  12.512  21.420
91101W        W91965  28.665  11.119  18.659
91102W        W91966  28.208  13.501  18.885
91103W        W91967  27.339  12.537  18.991
91104W        W91968  28.406  11.349  18.249
91105W        W91969  28.389  11.989  20.609
91106W        W91970  25.891  12.458  19.905
91107W        W91971  26.404  13.252  19.677
91108W        W91972  28.137  12.097  19.429
91109W        W91973  27.083  11.563  20.043
91110W        W91974   0.114  13.530  20.779
91111W        W91975  28.885  11.373  20.262
91112W        W91976  25.727  14.257  19.947
91113W        W91977  26.052  13.346  19.303
91114W        W91978  25.965  11.204  21.862
91115W        W91979  27.226  13.948  21.984
91116W        W91980   0.043  12.961  19.607
91117W        W91981  28.230  13.106  18.548
91118W        W91982  27.822  14.635  20.610
91119W        W91983  28.344  13.412  21.773
91120W        W91984  27.164  10.894  18.876
91121W        W91985  27.879  11.819  19.794
91122W        W91986  25.723  13.451  20.277
91123W        W91987  26.900  11.355  18.846
91124W        W91988  26.794  12.789  21.447
91125W        W91989  27.704  11.881  19.268
91126W        W91990  28.033  13.438  20.645
91127W        W91991  26.138  13.961  20.931
91128W        W91992  26.861  14.041  21.602
91129W        W91993  26.693  11.788  18.617
91130W        W91994  28.145  11.805  18.955
91131W        W91995  27.959  13.955  21.251
91132W        W91996  26.834  12.526  19.854
91133W        W91997  26.434  14.303  20.691
91134W        W91998  28.950  14.379  18.337
91135W        W91999  25.769  13.188  21.545
91136W        W92000  27.895  13.259  20.183
91137W        W92001  26.524  13.060  19.199
91138W        W92002  26.802  13.935  20.709
91139W        W92003  27.228  11.193  19.708
91140W        W92004  25.474  13.336  18.990
91141W        W92005  27.439  12.254  18.576
91142W        W92006  25.948  12.906  19.625
91143W        W92007  27.153  11.430  20.844
91144W        W92008  28.915  11.386  18.051
91145W        W92009  28.948  13.079  21.685
91146W        W92010  27.666  14.237  21.700
91147W        W92011   0.119  13.365  21.283
91148W        W92012  28.593  14.023  21.864
91149W        W92013  26.436  14.586  20.249
91150W        W92014   0.072  13.185  19.152
91151W        W92015  27.774  12.321  19.788
91152W        W92016  27.451  11.041  19.266
91153W        W92017  26.618  14.006  19.530
91154W        W92018  27.091  11.802  20.492
91155W        W92019  26.850  11.094  20.038
91156W        W92020  25.718  14.106  18.547
91157W        W92021  27.374  13.239  19.544
91158W        W92022  26.587  14.097  21.148
91159W        W92023  25.630  12.860  19.169
91160W        W92024  25.765  11.524  20.047
91161W        W92025  27.403  13.364  20.036
91162W        W92026  25.907  11.403  18.865
91163W        W92027  28.453  12.510  20.846
91164W        W92028  28.169  11.782  18.434
91165W        W92029  28.834  13.484  20.341
91166W        W92030  27.440  13.870  20.053
91167W        W92031  26.738  14.269  19.082
91168W        W92032  27.899  10.888  18.311
91169W        W92033  26.038  14.289  20.355
91170W        W92034  27.796  11.880  21.666
91171W        W92035  26.061  11.634  21.529
91172W        W92036  25.628  12.205  19.333
91173W        W92037  26.933  12.263  18.815
91174W        W92038  28.126  12.579  21.646
91175W        W92039  26.814  12.747  20.325
91176W        W92040  27.961  11.053  19.291
91177W        W92041  27.283  14.370  19.935
91178W        W92042  28.305  13.936  20.851
91179W        W92043  28.225  13.911  19.931
91180W        W92044  28.084  13.191  19.708
91181W        W92045  27.386  11.343  18.670
91182W        W92046  28.928  11.020  19.428
91183W        W92047  26.665  12.499  18.263
91184W        W92048   0.027  12.138  19.372
91185W        W92049  27.202  13.163  18.587
91186W        W92050  28.616  13.313  21.311
91187W        W92051  28.185  14.022  18.372
91188W        W92052  27.003  11.584  21.319
91189W        W92053  26.893  12.272  20.556
91190W        W92054  28.840  13.802  21.147
91191W        W92055  28.002  11.527  21.316
91192W        W92056  25.593  12.172  21.172
91193W        W92057  27.661  12.672  20.841
91194W        W92058  25.924  13.377  19.818
91195W        W92059  26.023  12.546  20.391
91196W        W92060  28.358  13.040  20.899
91197W        W92061  28.179  14.295  21.603
91198W        W92062  27.994  12.037  21.205
91199W        W92063  28.274  14.174  19.504
91200W        W92064  27.308  13.954  20.863
91201W        W92065  26.649  14.122  20.245
91202W        W92066  28.582  13.493  20.798
91203W        W92067  27.545  13.567  21.863
91204W        W92068  26.231  13.348  20.210
91205W        W92069  28.531  12.937  19.675
91206W        W92070  28.142  14.222  20.404
91207W        W92071  26.342  13.796  20.482
91208W        W92072  27.312  11.991  21.459
91209W        W92073  27.440  14.090  19.111
91210W        W92074  27.079  13.573  21.636
91211W        W92075  26.983  13.824  19.186
91212W        W92076  26.493  12.017  18.188
91213W        W92077  25.529  14.708  25.361
91214W        W92078  25.914  13.683  24.768
91215W        W92079  28.622  13.166  22.655
91216W        W92080  28.952  14.342  24.666
91217W        W92081  26.950  14.206  22.339
91218W        W92082  27.084  12.753  23.233
91219W        W92083  26.428  11.940  23.464
91220W        W92084  27.389  13.175  22.716
91221W        W92085  27.074  14.349  24.864
91222W        W92086  25.601  11.652  25.003
91223W        W92087  26.243  10.868  24.789
91224W        W92088  28.171  11.380  23.551
91225W        W92089  27.968  12.204  22.035
91226W        W92090  28.360  11.896  25.234
91227W        W92091  25.727  11.320  24.547
91228W        W92092  25.874  14.310  25.428
91229W        W92093  27.514  13.579  22.396
91230W        W92094  25.585  12.003  24.006
91231W        W92095  26.724  12.264  25.112
91232W        W92096  28.880  11.932  23.681
91233W        W92097  28.865  13.087  24.567
91234W        W92098  27.266  12.476  23.632
91235W        W92099  27.848  13.831  23.964
91236W        W92100  26.215  12.917  24.160
91237W        W92101  25.329  12.678  23.956
91238W        W92102  26.758  12.748  24.942
91239W        W92103  28.945  12.488  25.214
91240W        W92104  26.552  13.856  23.714
91241W        W92105  27.662  13.634  24.767
91242W        W92106  26.964  12.274  24.006
91243W        W92107  27.083  12.972  23.702
91244W        W92108  28.053  13.822  25.477
91245W        W92109  27.454  13.097  25.455
91246W        W92110  27.232  12.932  25.003
91247W        W92111  25.288  11.987  25.332
91248W        W92112  28.441  13.783  25.137
91249W        W92113  26.018  11.128  22.978
91250W        W92114  26.546  13.598  24.173
91251W        W92115   0.017  13.474  23.524
91252W        W92116  28.479  11.641  23.875
91253W        W92117  28.729  11.818  21.922
91254W        W92118   0.072  12.589  24.418
91255W        W92119  27.269  14.181  24.154
91256W        W92120  28.769  13.683  22.695
91257W        W92121  26.072  14.602  22.667
91258W        W92122  26.408  14.541  23.055
91259W        W92123  26.227  11.228  24.406
91260W        W92124  28.825  12.141  24.597
91261W        W92125  28.142  12.632  23.206
91262W        W92126  28.159  12.660  22.158
91263W        W92127  27.448  13.632  24.238
91264W        W92128  27.496  12.006  23.473
91265W        W92129  27.759  14.032  24.430
91266W        W92130  28.652  12.751  22.956
91267W        W92131  27.616  11.417  22.773
91268W        W92132  26.114  14.132  22.886
91269W        W92133  25.737  11.554  23.208
91270W        W92134  28.395  12.127  23.722
91271W        W92135  26.030  13.903  23.833
91272W        W92136  27.388  14.066  22.598
91273W        W92137  28.492  12.305  21.892
91274W        W92138  25.663  14.035  24.187
91275W        W92139  26.456  13.829  24.649
91276W        W92140  26.654  13.025  23.391
91277W        W92141  26.613  11.411  24.099
91278W        W92142  28.984  10.966  23.578
91279W        W92143  26.308  13.183  21.470
91280W        W92144  25.951  11.694  22.028
91281W        W92145  25.881  13.982  23.365
91282W        W92146  27.334  13.610  23.303
91283W        W92147  28.485  14.232  24.890
91284W        W92148  27.736  11.727  22.266
91285W        W92149  28.632  14.425  23.389
91286W        W92150  28.527  12.312  24.986
91287W        W92151   0.107  13.746  23.089
91288W        W92152  27.820  13.131  24.687
91289W        W92153  25.339  12.386  23.147
91290W        W92154  26.630  13.148  24.402
91291W        W92155  27.839  12.425  22.826
91292W        W92156  27.788  12.933  22.949
91293W        W92157  25.969  12.122  24.400
91294W        W92158  25.961  12.063  24.967
91295W        W92159  25.926  11.088  23.529
91296W        W92160  27.676  11.586  23.858
91297W        W92161  27.474  11.570  25.177
91298W        W92162  27.833  11.207  22.360
91299W        W92163  28.903  14.212  25.190
91300W        W92164  27.831  11.103  25.051
91301W        W92165  28.849  13.550  25.380
91302W        W92166  28.435  11.712  24.763
91303W        W92167  28.098  11.609  22.996
91304W        W92168  28.486  12.850  25.471
91305W        W92169  26.274  14.306  23.594
91306W        W92170  27.287  11.780  22.517
91307W        W92171  26.425  11.279  25.063
91308W        W92172  28.506  11.906  22.842
91309W        W92173  28.859  12.321  22.742
91310W        W92174  26.810  14.679  25.270
91311W        W92175  26.418  10.853  22.508
91312W        W92176  28.800  11.440  23.484
91313W        W92177   0.071  13.906  22.055
91314W        W92178  25.728  13.040  23.941
91315W        W92179  27.854  11.416  21.864
91316W        W92180  28.985  13.916  23.802
91317W        W92181   0.008  11.119  24.457
91318W        W92182  27.663  12.341  24.984
91319W        W92183  27.883  13.851  22.651
91320W        W92184  27.957  12.986  25.534
91321W        W92185  27.703  11.130  23.619
91322W        W92186  26.119  12.028  23.901
91323W        W92187  25.894  13.278  24.404
91324W        W92188  27.749  14.200  23.425
91325W        W92189  28.898  11.825  24.184
91326W        W92190  27.606  14.329  24.878
91327W        W92191  28.814  13.117  22.180
91328W        W92192  27.444  13.111  23.297
91329W        W92193   0.129  11.277  24.981
91330W        W92194  27.323  13.285  24.615
91331W        W92195  27.509  12.195  23.977
91332W        W92196  28.345  12.379  22.773
91333W        W92197  28.499  12.105  22.365
91334W        W92198  28.370  14.024  22.755
91335W        W92199  28.354  13.466  23.596
91336W        W92200  28.196  12.840  22.654
91337W        W92201  27.606  12.882  23.729
91338W        W92202  28.549  12.609  23.666
91339W        W92203  25.961  11.642  24.200
91340W        W92204  28.649  12.808  24.949
91341W        W92205  28.995  14.407  24.090
91342W        W92206  26.988  13.977  23.458
91343W        W92207  28.061  14.401  24.625
91344W        W92208  27.994  11.715  24.451
91345W        W92209  27.361  14.574  24.486
91346W        W92210  28.662  11.441  22.982
91347W        W92211  28.677  12.814  24.151
91348W        W92212  25.580  11.826  24.513
91349W        W92213  28.452  11.782  23.345
91350W        W92214  28.909  11.980  25.090
91351W        W92215  27.810  13.646  23.481
91352W        W92216  27.238  14.308  23.110
91353W        W92217  25.973  11.171  22.410
91354W        W92218  27.357  11.144  24.020
91355W        W92219  26.126  14.511  22.147
91356W        W92220  27.374  12.650  22.808
91357W        W92221  27.295  13.443  25.100
91358W        W92222  27.235  11.598  23.081
91359W        W92223  28.508  11.048  23.307
91360W        W92224  28.170  14.475  23.671
91361W        W92225  27.687  14.334  23.917
91362W        W92226  27.070  13.242  24.138
91363W        W92227  28.777  13.962  24.311
91364W        W92228  26.520  11.204  22.884
91365W        W92229  26.999  13.768  23.986
91366W        W92230  26.476  11.603  21.849
91367W        W92231  27.252  12.246  24.420
91368W        W92232  28.100  11.288  24.081
91369W        W92233  25.592  12.859  24.402
91370W        W92234  27.208  12.704  22.076
91371W        W92235  26.478  11.090  21.933
91372W        W92236  27.621  12.588  23.284
91373W        W92237  28.149  11.265  24.635
91374W        W92238  26.838  13.276  24.870
91375W        W92239  27.718  12.835  25.097
91376W        W92240  28.191  13.018  25.068
91377W        W92241  27.468  11.216  25.553
91378W        W92242  26.644  11.894  23.923
91379W        W92243  26.242  11.521  23.237
91380W        W92244  25.926  14.460  23.227
91381W        W92245  27.361  13.954  25.141
91382W        W92246  26.740  13.216  21.761
91383W        W92247  28.129  12.864  23.799
91384W        W92248  28.255  12.448  24.091
91385W        W92249  27.579  13.102  24.211
91386W        W92250  27.974  13.519  22.145
91387W        W92251  27.694  11.533  23.304
91388W        W92252  28.988  11.835  22.662
91389W        W92253  25.759  14.484  24.960
91390W        W92254  26.071  13.750  24.307
91391W        W92255  25.585  14.539  22.843
91392W        W92256  27.495  11.783  24.309
91393W        W92257  27.021  13.718  22.452
91394W        W92258  28.719  14.115  22.387
91395W        W92259  27.726  12.740  22.435
91396W        W92260  26.717  11.647  23.074
91397W        W92261  27.360  11.664  21.920
91398W        W92262  27.826  13.372  25.197
91399W        W92263  28.283  11.243  22.677
91400W        W92264  25.602  10.882  22.141
91401W        W92265  26.945  13.606  24.481
91402W        W92266  26.912  13.464  23.575
91403W        W92267  26.735  13.739  21.994
91404W        W92268  25.644  13.900  22.912
91405W        W92269  26.265  12.559  25.106
91406W        W92270  26.911  11.283  25.265
91407W        W92271  27.615  11.377  24.657
91408W        W92272  26.945  11.158  23.189
91409W        W92273  27.754  10.882  22.755
91410W        W92274  25.844  11.167  24.067
91411W        W92275  25.550  11.964  23.476
91412W        W92276  28.526  11.089  23.849
91413W        W92277  26.144  11.557  22.727
91414W        W92278  28.560  11.440  24.341
91415W        W92279  28.923  12.649  22.011
91416W        W92280  26.244  11.520  23.758
91417W        W92281  27.398  11.926  24.807
91418W        W92282  25.545  11.406  22.202
91419W        W92283  26.303  13.341  24.736
91420W        W92284  27.779  12.616  24.135
91421W        W92285  27.423  14.398  22.174
91422W        W92286  25.588  12.722  21.792
91423W        W92287  26.529  13.593  25.179
91424W        W92288  25.867  12.514  24.709
91425W        W92289  27.045  12.878  24.526
91426W        W92290  28.636  11.185  24.802
91427W        W92291   0.190  12.829  24.903
91428W        W92292   0.049  12.829  22.577
91429W        W92293  27.879  13.233  22.546
91430W        W92294  28.387  14.430  22.076
91431W        W92295  27.667  12.508  25.506
91432W        W92296  26.026  13.421  25.185
91433W        W92297   0.170  11.636  25.366
91434W        W92298  28.756  12.313  24.073
91435W        W92299  27.306  14.481  25.307
91436W        W92300  26.891  11.009  22.298
91437W        W92301  28.632  13.607  22.187
91438W        W92302  26.483  11.813  24.980
91439W        W92303  26.902  13.839  24.931
91440W        W92304  28.930  11.634  24.676
91441W        W92305  28.129  14.407  22.519
91442W        W92306  28.369  13.234  24.089
91443W        W92307  26.628  11.471  24.624
91444W        W92308  27.159  12.554  25.383
91445W        W92309  26.097  13.642  23.067
91446W        W92310  28.207  13.237  22.968
91447W        W92311  26.086  11.634  24.714
91448W        W92312   0.071  12.465  23.198
91449W        W92313  27.322  11.080  25.044
91450W        W92314  28.357  13.752  24.052
91451W        W92315  28.574  14.200  23.868
91452W        W92316  27.726  13.989  22.163
91453W        W92317  25.667  13.850  25.193
91454W        W92318  26.420  11.863  24.375
91455W        W92319  26.463  11.110  23.407
91456W        W92320  27.978  12.009  24.037
91457W        W92321  27.116  13.365  22.098
91458W        W92322  28.750  13.097  23.745
91459W        W92323  26.154  14.028  25.072
91460W        W92324  28.506  14.544  22.850
91461W        W92325  26.750  11.534  23.572
91462W        W92326  26.606  13.183  23.877
91463W        W92327  26.915  14.642  24.228
91464W        W92328  28.540  14.589  25.352
91465W        W92329  25.779  12.041  21.635
91466W        W92330  28.830  14.158  22.938
91467W        W92331  28.625  11.574  22.392
91468W        W92332  26.822  11.021  24.787
91469W        W92333  28.658  13.891  23.379
91470W        W92334  28.567  12.304  23.240
91471W        W92335  26.944  12.059  23.500
91472W        W92336  27.161  12.417  24.886
91473W        W92337  28.162  13.494  24.826
91474W        W92338  26.865  11.994  24.690
91475W        W92339  26.772  14.435  23.397
91476W        W92340  26.241  14.568  25.151
91477W        W92341  26.597  14.288  21.976
91478W        W92342  28.659  13.427  23.140
91479W        W92343  26.368  12.247  24.714
91480W        W92344  28.982  12.179  22.240
91481W        W92345  27.003  13.281  23.085
91482W        W92346  28.030  12.629  24.726
91483W        W92347  27.759  12.220  24.466
91484W        W92348  26.339  12.776  24.638
91485W        W92349  28.524  14.409  24.381
91486W        W92350  28.312  11.141  25.205
91487W        W92351  25.906  11.200  25.011
91488W        W92352  26.374  12.392  24.196
91489W        W92353  26.913  11.891  21.783
91490W        W92354  25.596  14.076  24.706
91491W        W92355  27.274  12.685  24.109
91492W        W92356  26.909  11.534  22.161
91493W        W92357  26.166  12.974  23.645
91494W        W92358  25.685  14.542  24.458
91495W        W92359  28.604  12.648  22.407
91496W        W92360  28.696  11.510  25.191
91497W        W92361  28.196  13.723  23.135
91498W        W92362  25.545  12.445  25.299
91499W        W92363  28.688  11.022  22.378
91500W        W92364  28.286  13.550  22.572
91501W        W92365  27.591  12.220  22.415
91502W        W92366  28.282  11.263  22.147
91503W        W92367  28.418  11.987  24.309
91504W        W92368  25.641  12.498  23.586
91505W        W92369  26.366  13.449  23.480
91506W        W92370  28.097  12.112  23.136
91507W        W92371  27.192  11.795  23.855
91508W        W92372   0.098  13.565  24.457
91509W        W92373  28.931  11.361  23.978
91510W        W92374  25.706  14.362  23.697
91511W        W92375  25.604  13.389  23.076
91512W        W92376  25.974  11.239  25.557
91513W        W92377  27.291  14.057  25.645
91514W        W92378  28.964  12.992  23.299
91515W        W92379  28.311  13.147  22.243
91516W        W92380  27.819  14.702  24.251
91517W        W92381  28.338  13.368  25.449
91518W        W92382  27.243  10.963  22.696
91519W        W92383  27.989  11.861  23.556
91520W        W92384  25.665  13.545  24.018
91521W        W92385  26.958  11.390  22.673
91522W        W92386  26.926  13.145  25.375
91523W        W92387  27.646  11.921  22.933
91524W        W92388  27.976  13.519  24.354
91525W        W92389  26.077  14.200  24.583
91526W        W92390  26.887  14.177  25.321
91527W        W92391  26.477  11.352  22.377
91528W        W92392  28.045  11.984  22.595
91529W        W92393  27.983  13.978  24.968
91530W        W92394  26.752  12.556  23.617
91531W        W92395  26.466  14.496  24.438
91532W        W92396  28.915  14.419  22.015
91533W        W92397  25.897  13.015  24.852
91534W        W92398  27.910  13.325  23.879
91535W        W92399  26.071  13.143  23.168
91536W        W92400  26.841  14.127  24.441
91537W        W92401  27.253  11.375  23.556
91538W        W92402  25.542  13.204  22.565
91539W        W92403  27.456  12.184  21.909
91540W        W92404  25.656  13.007  23.436
91541W        W92405  27.121  11.471  24.765
91542W        W92406  28.743  11.260  21.923
91543W        W92407  28.967  13.026  25.329
91544W        W92408  27.726  14.213  25.393
91545W        W92409   0.109  13.367  24.958
91546W        W92410  28.593  14.022  25.558
91547W        W92411  26.459  14.645  23.940
91548W        W92412   0.072  13.276  22.863
91549W        W92413  27.922  12.387  23.664
91550W        W92414  27.458  11.095  23.152
91551W        W92415  26.504  14.015  23.217
91552W        W92416  26.979  11.704  24.303
91553W        W92417  26.862  11.075  23.762
91554W        W92418  25.534  14.166  22.461
91555W        W92419  27.736  13.468  22.994
91556W        W92420  26.574  14.276  24.892
91557W        W92421  25.421  12.892  22.977
91558W        W92422  25.726  11.545  23.727
91559W        W92423  27.410  13.389  23.767
91560W        W92424  25.632  11.439  22.713
91561W        W92425  28.501  12.533  24.529
91562W        W92426  28.223  11.763  22.088
91563W        W92427  28.810  13.502  24.037
91564W        W92428  27.417  13.920  23.720
91565W        W92429  26.797  14.286  22.844
91566W        W92430  27.916  10.901  21.954
91567W        W92431  26.028  14.387  24.088
91568W        W92432  27.877  12.017  25.336
91569W        W92433  26.086  11.627  25.247
91570W        W92434  25.491  11.911  22.919
91571W        W92435  27.073  12.181  22.235
91572W        W92436  28.116  12.509  25.234
91573W        W92437  26.760  12.755  24.094
91574W        W92438  27.997  11.110  23.150
91575W        W92439  27.266  14.426  23.622
91576W        W92440  28.275  13.929  24.534
91577W        W92441  28.193  13.968  23.605
91578W        W92442  27.944  13.143  23.399
91579W        W92443  27.341  11.309  22.313
91580W        W92444  28.974  11.010  23.053
91581W        W92445  26.807  12.421  21.840
91582W        W92446  28.914  11.934  23.169
91583W        W92447  27.556  13.120  22.140
91584W        W92448  28.610  13.314  24.984
91585W        W92449  28.236  13.957  22.243
91586W        W92450  26.978  11.794  25.139
91587W        W92451  26.781  12.454  24.506
91588W        W92452  28.844  13.824  24.828
91589W        W92453  27.951  11.637  24.958
91590W        W92454  25.465  12.168  24.868
91591W        W92455  27.524  12.696  24.597
91592W        W92456  25.844  13.490  23.530
91593W        W92457  25.851  12.523  24.079
91594W        W92458  28.337  13.044  24.572
91595W        W92459  28.085  14.452  25.136
91596W        W92460  28.098  12.109  24.824
91597W        W92461  28.195  14.265  23.173
91598W        W92462  27.297  13.959  24.623
91599W        W92463  26.831  14.267  23.882
91600W        W92464  28.568  13.510  24.496
91601W        W92465  27.545  13.625  25.553
91602W        W92466  26.140  13.389  23.946
91603W        W92467  28.442  13.009  23.359
91604W        W92468  28.132  14.227  24.126
91605W        W92469  26.423  14.088  24.147
91606W        W92470  27.365  12.074  25.330
91607W        W92471  27.744  14.285  22.903
91608W        W92472  26.998  13.686  25.436
91609W        W92473  27.037  13.841  22.956
91610W        W92474  26.316  12.106  21.667
91611W        W92475  25.657  14.631  28.841
91612W        W92476  26.011  13.598  28.730
91613W        W92477  28.640  13.126  26.327
91614W        W92478  28.899  14.282  28.154
91615W        W92479  26.927  14.362  25.822
91616W        W92480  26.832  12.313  26.712
91617W        W92481  26.517  12.081  27.057
91618W        W92482  27.239  13.109  26.257
91619W        W92483  27.087  14.225  28.472
91620W        W92484  25.792  11.846  28.530
91621W        W92485  26.282  11.091  28.282
91622W        W92486  28.100  11.403  27.198
91623W        W92487  27.876  12.144  25.851
91624W        W92488  28.257  11.669  28.774
91625W        W92489  25.775  11.265  28.080
91626W        W92490  25.808  14.097  28.909
91627W        W92491  27.460  13.626  26.145
91628W        W92492  25.757  12.144  27.583
91629W        W92493  26.574  12.262  28.850
91630W        W92494  28.861  12.094  27.342
91631W        W92495  28.816  12.931  28.072
91632W        W92496  27.159  12.365  27.177
91633W        W92497  27.801  13.821  27.549
91634W        W92498  26.070  13.107  27.960
91635W        W92499  25.419  12.570  27.634
91636W        W92500  26.732  12.701  28.618
91637W        W92501  28.813  12.389  28.738
91638W        W92502  26.503  13.744  27.190
91639W        W92503  27.529  13.663  28.213
91640W        W92504  26.793  12.093  27.504
91641W        W92505  27.028  12.900  27.206
91642W        W92506  27.851  13.859   0.012
91643W        W92507  27.094  13.009  28.926
91644W        W92508  27.207  12.828  28.452
91645W        W92509  25.593  11.976  28.993
91646W        W92510  28.294  13.663  28.771
91647W        W92511  25.958  11.244  26.669
91648W        W92512  26.528  13.536  27.653
91649W        W92513  28.992  13.242  27.079
91650W        W92514  28.218  11.728  27.588
91651W        W92515  28.739  11.856  25.588
91652W        W92516   0.313  12.517  28.024
91653W        W92517  27.062  14.322  27.603
91654W        W92518  28.786  13.652  26.351
91655W        W92519  26.117  14.748  26.148
91656W        W92520  26.356  14.404  26.551
91657W        W92521  26.336  11.268  27.802
91658W        W92522  28.826  12.339  28.208
91659W        W92523  27.997  12.743  26.825
91660W        W92524  28.147  12.565  25.756
91661W        W92525  27.386  13.547  27.690
91662W        W92526  27.465  11.911  27.152
91663W        W92527  27.918  13.998  28.012
91664W        W92528  28.432  12.661  26.558
91665W        W92529  27.743  11.472  26.415
91666W        W92530  26.339  14.260  26.057
91667W        W92531  25.591  11.635  26.759
91668W        W92532  28.339  12.191  27.365
91669W        W92533  25.869  13.852  27.235
91670W        W92534  27.312  14.127  26.165
91671W        W92535  28.542  12.328  25.507
91672W        W92536  25.720  14.008  28.026
91673W        W92537  26.477  13.817  28.094
91674W        W92538  26.662  12.784  26.863
91675W        W92539  26.867  11.329  27.822
91676W        W92540   0.170  11.026  27.080
91677W        W92541  26.429  13.070  25.158
91678W        W92542  25.824  11.627  25.870
91679W        W92543  26.237  13.913  26.770
91680W        W92544  26.970  13.170  26.729
91681W        W92545  28.467  14.111  28.464
91682W        W92546  27.550  11.908  26.195
91683W        W92547  28.665  14.410  27.031
91684W        W92548  28.357  12.280  28.400
91685W        W92549   0.054  13.750  26.820
91686W        W92550  27.725  13.069  28.284
91687W        W92551  25.354  12.818  26.745
91688W        W92552  26.515  13.300  28.107
91689W        W92553  27.727  12.437  26.520
91690W        W92554  27.595  12.932  26.567
91691W        W92555  26.139  12.126  27.964
91692W        W92556  26.077  12.130  28.890
91693W        W92557  25.873  11.020  27.114
91694W        W92558  27.659  11.536  27.446
91695W        W92559  27.300  11.597  28.781
91696W        W92560  27.874  11.351  25.928
91697W        W92561  28.976  14.133  28.646
91698W        W92562  27.794  11.044  28.705
91699W        W92563  28.790  13.520  28.874
91700W        W92564  28.320  11.769  28.278
91701W        W92565  28.182  11.619  26.715
91702W        W92566  28.444  12.668  28.979
91703W        W92567  26.249  14.181  27.216
91704W        W92568  27.063  12.061  26.269
91705W        W92569  26.412  11.349  28.730
91706W        W92570  28.476  11.992  26.483
91707W        W92571  28.861  12.370  26.494
91708W        W92572  26.617  14.461  28.894
91709W        W92573  26.540  11.028  26.079
91710W        W92574  28.930  11.486  27.119
91711W        W92575   0.075  13.883  25.703
91712W        W92576  25.754  12.964  27.569
91713W        W92577  27.940  11.460  25.424
91714W        W92578  28.969  13.942  27.298
91715W        W92579  28.859  11.166  27.841
91716W        W92580  27.426  12.089  28.827
91717W        W92581  27.919  13.882  26.315
91718W        W92582  27.990  12.874   0.127
91719W        W92583  27.695  11.064  27.193
91720W        W92584  26.086  11.868  27.259
91721W        W92585  25.725  13.236  28.410
91722W        W92586  27.636  14.306  26.931
91723W        W92587  28.611  12.041  27.814
91724W        W92588  27.576  14.282  28.353
91725W        W92589  28.790  13.108  25.821
91726W        W92590  27.182  12.691  26.762
91727W        W92591   0.011  11.131  28.325
91728W        W92592  27.287  13.208  28.067
91729W        W92593  27.289  12.105  27.631
91730W        W92594  28.148  12.347  26.253
91731W        W92595  28.518  12.125  25.983
91732W        W92596  28.414  13.990  26.440
91733W        W92597  28.169  13.532  27.219
91734W        W92598  28.040  12.866  26.286
91735W        W92599  27.539  12.840  27.102
91736W        W92600  28.491  12.687  27.451
91737W        W92601  25.957  11.626  27.691
91738W        W92602  28.551  12.750  28.471
91739W        W92603  28.921  14.319  27.632
91740W        W92604  26.963  13.610  26.998
91741W        W92605  28.077  14.420  28.287
91742W        W92606  27.897  11.626  28.005
91743W        W92607  27.196  14.530  28.060
91744W        W92608  28.669  11.503  26.541
91745W        W92609  28.437  12.572  27.968
91746W        W92610  25.674  11.886  28.020
91747W        W92611  28.491  11.749  27.128
91748W        W92612  28.731  11.920  28.550
91749W        W92613  27.659  13.710  27.064
91750W        W92614  27.178  14.292  26.663
91751W        W92615  26.321  11.471  25.930
91752W        W92616  27.281  11.149  27.551
91753W        W92617  26.469  14.520  25.625
91754W        W92618  26.838  12.799  26.371
91755W        W92619  27.344  13.326  28.567
91756W        W92620  27.283  11.684  26.621
91757W        W92621  28.498  11.241  26.931
91758W        W92622  28.170  14.535  27.155
91759W        W92623  27.554  14.275  27.442
91760W        W92624  26.949  13.269  27.551
91761W        W92625  28.818  13.839  27.815
91762W        W92626  26.447  11.334  26.467
91763W        W92627  26.968  13.805  27.497
91764W        W92628  26.592  11.649  25.472
91765W        W92629  27.088  12.329  28.069
91766W        W92630  27.995  11.184  27.651
91767W        W92631  25.553  12.938  28.029
91768W        W92632  27.285  12.789  25.824
91769W        W92633  26.487  11.150  25.563
91770W        W92634  27.327  12.187  26.715
91771W        W92635  28.131  11.301  28.385
91772W        W92636  26.864  13.208  28.452
91773W        W92637  27.611  12.905  28.765
91774W        W92638  28.107  12.971  28.616
91775W        W92639  27.419  11.202   0.118
91776W        W92640  26.612  11.639  27.300
91777W        W92641  26.304  11.622  26.863
91778W        W92642  25.912  14.291  26.840
91779W        W92643  27.436  13.853  28.680
91780W        W92644  26.817  12.984  25.876
91781W        W92645  28.014  12.877  27.309
91782W        W92646  28.042  12.496  27.655
91783W        W92647  27.382  13.006  27.589
91784W        W92648  27.936  13.541  25.897
91785W        W92649  27.700  11.507  26.911
91786W        W92650  28.942  11.860  26.312
91787W        W92651  25.664  14.291  28.468
91788W        W92652  26.049  13.560  28.190
91789W        W92653  25.714  14.535  26.430
91790W        W92654  27.399  11.531  27.894
91791W        W92655  26.959  13.807  25.971
91792W        W92656  28.765  14.089  26.071
91793W        W92657  27.709  12.592  26.023
91794W        W92658  26.701  11.817  26.556
91795W        W92659  27.612  11.741  25.697
91796W        W92660  27.845  13.441  28.641
91797W        W92661  28.244  11.319  26.297
91798W        W92662  25.561  11.153  25.851
91799W        W92663  26.937  13.564  27.967
91800W        W92664  26.565  13.213  27.181
91801W        W92665  26.649  13.453  25.725
91802W        W92666  25.947  14.071  26.368
91803W        W92667  26.224  12.677  28.826
91804W        W92668  26.910  11.305  28.913
91805W        W92669  27.636  11.187  28.220
91806W        W92670  26.811  10.975  26.623
91807W        W92671  27.673  10.982  26.282
91808W        W92672  25.846  11.098  27.613
91809W        W92673  25.636  12.047  27.083
91810W        W92674  28.547  11.299  27.443
91811W        W92675  26.062  11.653  26.364
91812W        W92676  28.380  11.379  27.932
91813W        W92677  28.936  12.640  25.694
91814W        W92678  26.181  11.372  27.313
91815W        W92679  27.366  11.918  28.327
91816W        W92680  25.212  11.537  25.970
91817W        W92681  26.221  13.149  28.504
91818W        W92682  27.559  12.527  27.519
91819W        W92683  27.437  14.522  25.812
91820W        W92684  25.466  12.720  25.759
91821W        W92685  26.509  13.603  28.572
91822W        W92686  25.941  12.753  28.311
91823W        W92687  26.908  12.868  28.034
91824W        W92688  28.517  10.997  28.254
91825W        W92689   0.083  12.712  28.458
91826W        W92690   0.009  12.791  26.204
91827W        W92691  27.834  13.359  26.394
91828W        W92692  28.184  14.331  25.648
91829W        W92693  27.620  12.484   0.091
91830W        W92694  26.087  13.170   0.006
91831W        W92695   0.146  11.488  28.899
91832W        W92696  28.895  12.493  27.714
91833W        W92697  27.126  14.418  28.928
91834W        W92698  26.942  11.209  25.812
91835W        W92699  28.639  13.590  25.858
91836W        W92700  26.322  11.834  28.574
91837W        W92701  27.000  13.719  28.441
91838W        W92702  28.787  11.630  28.113
91839W        W92703  28.115  14.360  26.179
91840W        W92704  28.272  13.206  27.614
91841W        W92705  26.599  11.511  28.220
91842W        W92706  27.093  12.492   0.002
91843W        W92707  26.518  13.823  26.315
91844W        W92708  28.241  13.157  26.653
91845W        W92709  26.112  11.628  28.170
91846W        W92710  27.520  13.919  26.613
91847W        W92711   0.175  12.423  26.906
91848W        W92712  27.288  11.078  28.613
91849W        W92713  28.286  13.724  27.714
91850W        W92714  28.496  14.092  27.427
91851W        W92715  27.758  14.071  25.878
91852W        W92716  25.579  13.328  28.925
91853W        W92717  26.474  11.776  27.782
91854W        W92718  26.401  11.111  26.938
91855W        W92719  27.796  12.041  27.557
91856W        W92720  27.172  13.353  25.805
91857W        W92721  28.777  13.110  27.559
91858W        W92722  26.315  14.032  28.860
91859W        W92723  28.506  14.520  26.489
91860W        W92724  26.805  11.424  26.858
91861W        W92725  26.209  12.836  27.332
91862W        W92726  26.689  14.526  27.928
91863W        W92727  28.684  14.541  28.694
91864W        W92728  27.847  12.939  27.800
91865W        W92729  25.782  11.980  25.452
91866W        W92730  28.871  14.173  26.584
91867W        W92731  28.590  11.608  26.037
91868W        W92732  26.780  11.080  28.453
91869W        W92733  28.541  13.916  26.944
91870W        W92734  28.648  12.436  26.993
91871W        W92735  26.984  11.886  27.011
91872W        W92736  27.005  12.236  28.560
91873W        W92737  28.265  13.665  28.240
91874W        W92738  26.620  12.067  28.223
91875W        W92739  26.756  14.265  27.211
91876W        W92740  26.128  14.470  28.642
91877W        W92741  26.575  13.981  25.674
91878W        W92742  28.628  13.444  26.783
91879W        W92743  26.240  12.343  28.431
91880W        W92744   0.016  12.260  26.019
91881W        W92745  26.797  13.371  26.245
91882W        W92746  27.532  12.443  28.474
91883W        W92747  27.626  12.236  28.001
91884W        W92748  26.432  12.785  28.196
91885W        W92749  28.487  14.591  27.585
91886W        W92750  28.273  11.162  28.862
91887W        W92751  25.912  11.309  28.572
91888W        W92752  26.253  12.293  27.467
91889W        W92753  26.895  12.092  25.570
91890W        W92754  25.596  13.741  28.450
91891W        W92755  27.059  12.592  27.631
91892W        W92756  27.136  11.627  25.591
91893W        W92757  26.239  12.494  26.965
91894W        W92758  25.772  14.545  28.048
91895W        W92759  28.543  12.667  26.048
91896W        W92760  28.672  11.402  28.601
91897W        W92761  28.104  13.673  26.738
91898W        W92762  25.765  12.471   0.096
91899W        W92763  28.655  11.032  26.048
91900W        W92764  28.303  13.513  26.269
91901W        W92765  27.276  12.536  26.285
91902W        W92766  28.341  11.284  25.712
91903W        W92767  28.124  12.110  27.962
91904W        W92768  25.778  12.544  27.236
91905W        W92769  26.553  13.489  26.719
91906W        W92770  28.179  12.258  26.803
91907W        W92771  27.095  11.657  27.486
91908W        W92772   0.153  13.410  27.994
91909W        W92773  28.919  11.644  27.609
91910W        W92774  25.530  14.262  27.220
91911W        W92775  26.105  13.531  26.455
91912W        W92776  26.036  11.144   0.096
91913W        W92777  27.250  13.912   0.154
91914W        W92778  28.861  12.859  26.746
91915W        W92779  28.282  13.126  25.915
91916W        W92780  27.690  14.510  27.900
91917W        W92781  28.404  13.183  28.974
91918W        W92782  27.139  10.921  26.206
91919W        W92783  27.988  11.892  27.119
91920W        W92784  25.730  13.452  27.800
91921W        W92785  26.944  11.389  26.340
91922W        W92786  26.582  13.135  28.869
91923W        W92787  27.781  11.945  26.652
91924W        W92788  27.901  13.442  27.932
91925W        W92789  26.081  14.006  28.412
91926W        W92790  26.822  13.987  28.859
91927W        W92791  26.793  11.712  25.967
91928W        W92792  28.077  11.812  26.211
91929W        W92793  27.930  13.947  28.517
91930W        W92794  26.656  12.557  27.316
91931W        W92795  26.219  14.262  27.987
91932W        W92796  28.893  14.421  25.698
91933W        W92797  25.758  12.864  28.761
91934W        W92798  27.773  13.311  27.444
91935W        W92799  26.234  13.040  26.755
91936W        W92800  26.911  14.071  28.024
91937W        W92801  27.252  11.400  27.092
91938W        W92802  25.563  12.823  26.273
91939W        W92803  27.351  12.237  25.830
91940W        W92804  25.819  13.039  27.069
91941W        W92805  27.115  11.458  28.311
91942W        W92806  28.856  11.344  25.669
91943W        W92807  28.883  12.947  28.871
91944W        W92808  27.617  14.299  28.883
91945W        W92809   0.045  13.254  28.474
91946W        W92810  28.585  14.031  28.980
91947W        W92811  26.360  14.541  27.546
91948W        W92812   0.097  13.291  26.540
91949W        W92813  27.718  12.348  27.049
91950W        W92814  27.327  11.168  26.635
91951W        W92815  26.727  14.029  26.772
91952W        W92816  26.976  11.826  27.960
91953W        W92817  26.800  11.158  27.319
91954W        W92818  25.719  14.486  25.904
91955W        W92819  27.406  13.423  26.669
91956W        W92820  26.560  14.212  28.420
91957W        W92821  25.842  12.684  26.701
91958W        W92822  25.676  11.521  27.260
91959W        W92823  27.335  13.318  27.178
91960W        W92824  25.600  11.444  26.292
91961W        W92825  27.965  12.592  28.206
91962W        W92826  28.214  11.787  25.713
91963W        W92827  28.652  13.558  27.361
91964W        W92828  27.233  14.027  27.107
91965W        W92829  26.818  14.228  26.305
91966W        W92830  27.934  10.966  25.563
91967W        W92831  25.877  14.283  27.597
91968W        W92832  27.898  12.002  28.965
91969W        W92833  26.004  11.631  28.968
91970W        W92834  25.475  12.308  26.625
91971W        W92835  26.894  12.469  25.930
91972W        W92836  28.001  12.482  28.739
91973W        W92837  26.530  12.975  27.694
91974W        W92838  28.011  11.111  26.747
91975W        W92839  27.191  14.545  27.130
91976W        W92840  28.428  14.181  27.946
91977W        W92841  28.055  14.031  27.146
91978W        W92842  27.825  13.239  26.932
91979W        W92843  27.370  11.403  26.049
91980W        W92844  28.966  11.078  26.619
91981W        W92845  26.667  12.673  25.456
91982W        W92846  28.860  11.965  26.827
91983W        W92847  27.666  13.113  25.960
91984W        W92848  28.528  13.271  28.482
91985W        W92849  28.272  13.927  25.947
91986W        W92850  26.817  11.738  28.617
91987W        W92851  26.595  12.442  27.843
91988W        W92852  28.781  13.709  28.368
91989W        W92853  27.745  11.592  28.538
91990W        W92854  25.740  12.363  28.586
91991W        W92855  27.437  12.709  28.009
91992W        W92856  26.092  13.469  26.980
91993W        W92857  26.086  12.627  27.809
91994W        W92858  28.247  13.044  28.114
91995W        W92859  28.142  14.302  28.823
91996W        W92860  27.888  12.067  28.432
91997W        W92861  28.086  14.270  26.694
91998W        W92862  27.411  14.050  27.888
91999W        W92863  26.552  14.069  27.641
92000W        W92864  28.617  13.394  27.969
92001W        W92865  27.488  13.455   0.031
92002W        W92866  26.105  13.329  27.467
92003W        W92867  28.473  13.086  27.122
92004W        W92868  28.050  14.289  27.601
92005W        W92869  26.094  13.817  27.708
92006W        W92870  26.977  11.976   0.023
92007W        W92871  27.646  14.414  26.422
92008W        W92872  26.957  13.503  28.922
92009W        W92873  27.047  13.760  26.481
92010W        W92874  26.308  12.094  25.374
92011W        W92875  25.537  18.270   3.403
92012W        W92876  25.802  17.079   2.552
92013W        W92877  28.691  16.842   0.661
92014W        W92878  28.932  17.879   2.681
92015W        W92879  26.992  17.925   0.338
92016W        W92880  26.643  15.992   1.195
92017W        W92881  26.391  15.738   1.579
92018W        W92882  27.267  16.726   0.785
92019W        W92883  27.027  17.952   3.021
92020W        W92884  25.627  15.291   2.889
92021W        W92885  26.150  14.526   2.829
92022W        W92886  28.023  15.033   1.758
92023W        W92887  27.710  15.827   0.510
92024W        W92888  28.268  15.523   3.353
92025W        W92889  25.755  14.859   2.605
92026W        W92890  25.741  17.822   3.562
92027W        W92891  27.411  17.184   0.530
92028W        W92892  25.651  15.652   2.021
92029W        W92893  26.803  15.855   3.095
92030W        W92894  28.944  15.469   1.707
92031W        W92895  28.788  16.698   2.643
92032W        W92896  27.229  16.090   1.595
92033W        W92897  27.786  17.496   2.009
92034W        W92898  26.407  16.814   2.009
92035W        W92899  25.473  16.374   1.967
92036W        W92900  26.778  16.398   3.038
92037W        W92901  28.845  16.144   3.336
92038W        W92902  26.482  17.436   1.673
92039W        W92903  27.584  17.285   2.698
92040W        W92904  27.021  15.797   1.964
92041W        W92905  27.026  16.557   1.667
92042W        W92906  27.823  17.544   3.461
92043W        W92907  27.174  16.725   3.491
92044W        W92908  27.292  16.531   2.984
92045W        W92909  25.582  15.652   3.272
92046W        W92910  28.293  17.383   3.222
92047W        W92911  26.021  14.791   1.146
92048W        W92912  26.523  17.297   2.198
92049W        W92913  28.955  17.122   1.559
92050W        W92914  28.510  15.187   1.863
92051W        W92915  28.691  15.343  28.991
92052W        W92916   0.264  16.280   2.340
92053W        W92917  27.150  17.861   2.143
92054W        W92918  28.830  17.332   0.603
92055W        W92919  26.089  18.198   0.684
92056W        W92920  26.479  18.045   1.042
92057W        W92921  26.334  14.839   2.444
92058W        W92922  28.837  16.173   2.623
92059W        W92923  28.083  16.253   1.312
92060W        W92924  28.062  16.000   0.179
92061W        W92925  27.424  17.175   2.159
92062W        W92926  27.386  15.597   1.638
92063W        W92927  27.741  17.728   2.469
92064W        W92928  28.627  16.418   0.945
92065W        W92929  27.620  15.074   0.988
92066W        W92930  26.259  17.679   0.729
92067W        W92931  25.684  15.158   1.288
92068W        W92932  28.458  15.721   1.742
92069W        W92933  25.859  17.425   1.706
92070W        W92934  27.326  17.709   0.694
92071W        W92935  28.499  15.810  28.956
92072W        W92936  25.649  17.495   2.231
92073W        W92937  26.517  17.268   2.708
92074W        W92938  26.639  16.513   1.322
92075W        W92939  26.794  15.017   2.257
92076W        W92940   0.081  14.601   1.718
92077W        W92941  26.043  16.458   0.364
92078W        W92942  25.975  15.523   0.532
92079W        W92943  26.076  17.420   1.245
92080W        W92944  27.016  16.882   1.232
92081W        W92945  28.467  17.835   2.954
92082W        W92946  27.399  15.490   0.761
92083W        W92947  28.668  18.046   1.512
92084W        W92948  28.554  15.876   2.982
92085W        W92949   0.031  17.325   1.093
92086W        W92950  27.755  16.762   2.854
92087W        W92951  25.543  16.175   1.163
92088W        W92952  26.654  16.841   2.450
92089W        W92953  27.764  15.992   0.991
92090W        W92954  27.651  16.492   1.081
92091W        W92955  26.036  15.775   2.354
92092W        W92956  25.974  15.695   2.872
92093W        W92957  25.893  14.699   1.625
92094W        W92958  27.704  15.049   2.170
92095W        W92959  27.351  15.184   3.098
92096W        W92960  27.859  15.055   0.492
92097W        W92961  28.967  17.731   3.185
92098W        W92962  27.859  14.628   3.080
92099W        W92963  28.779  17.237   3.382
92100W        W92964  28.338  15.333   2.872
92101W        W92965  28.050  15.214   1.246
92102W        W92966  28.467  16.408   3.557
92103W        W92967  26.171  17.845   1.557
92104W        W92968  26.891  15.601   0.832
92105W        W92969  26.383  14.955   3.158
92106W        W92970  28.489  15.528   0.913
92107W        W92971  28.768  15.936   0.756
92108W        W92972  26.571  18.130   3.296
92109W        W92973  26.602  14.629   0.661
92110W        W92974  28.836  14.992   1.520
92111W        W92975   0.074  17.526   0.198
92112W        W92976  25.903  16.675   1.971
92113W        W92977  27.839  15.111  28.948
92114W        W92978   0.002  17.566   1.844
92115W        W92979   0.025  14.708   2.486
92116W        W92980  27.612  16.058   3.155
92117W        W92981  27.803  17.365   0.809
92118W        W92982  28.025  16.598   3.710
92119W        W92983  27.606  14.697   1.773
92120W        W92984  26.128  15.479   1.921
92121W        W92985  26.147  16.722   2.450
92122W        W92986  27.728  17.860   1.476
92123W        W92987  28.786  15.451   2.215
92124W        W92988  27.563  18.008   2.882
92125W        W92989  28.675  16.654   0.187
92126W        W92990  27.127  16.375   1.163
92127W        W92991   0.046  14.988   2.931
92128W        W92992  27.347  16.846   2.554
92129W        W92993  27.648  15.569   2.095
92130W        W92994  28.256  16.040   0.844
92131W        W92995  28.427  15.717   0.450
92132W        W92996  28.528  17.500   0.964
92133W        W92997  28.348  17.094   1.651
92134W        W92998  27.881  16.326   0.579
92135W        W92999  27.543  16.519   1.589
92136W        W93000  28.488  16.251   1.751
92137W        W93001  25.848  15.284   2.329
92138W        W93002  28.549  16.399   3.002
92139W        W93003  28.920  17.970   2.151
92140W        W93004  26.984  17.387   1.428
92141W        W93005  28.058  18.076   2.721
92142W        W93006  27.910  15.378   2.549
92143W        W93007  27.177  18.253   2.616
92144W        W93008  28.745  15.080   1.011
92145W        W93009  28.587  16.446   2.238
92146W        W93010  25.440  15.581   2.484
92147W        W93011  28.515  15.364   1.387
92148W        W93012  28.856  15.616   3.312
92149W        W93013  27.729  17.304   1.514
92150W        W93014  27.044  17.850   1.155
92151W        W93015  26.097  15.014   0.517
92152W        W93016  27.251  14.764   2.144
92153W        W93017  26.190  18.130   0.194
92154W        W93018  26.365  16.323   0.909
92155W        W93019  27.398  17.029   3.110
92156W        W93020  27.177  15.294   1.209
92157W        W93021  28.365  14.838   1.435
92158W        W93022  28.151  18.112   1.664
92159W        W93023  27.626  17.992   1.969
92160W        W93024  27.031  16.826   2.108
92161W        W93025  28.703  17.556   2.361
92162W        W93026  26.472  14.972   1.036
92163W        W93027  26.964  17.351   1.958
92164W        W93028  26.358  15.364   0.153
92165W        W93029  27.329  15.844   2.379
92166W        W93030  28.227  14.940   2.223
92167W        W93031  25.626  16.596   2.436
92168W        W93032  27.055  16.401   0.376
92169W        W93033  26.512  14.880   0.209
92170W        W93034  27.246  15.863   1.117
92171W        W93035  28.181  14.852   2.730
92172W        W93036  26.932  16.914   2.892
92173W        W93037  27.647  16.591   3.343
92174W        W93038  28.133  16.610   3.188
92175W        W93039  27.298  14.815   3.602
92176W        W93040  26.665  15.416   1.893
92177W        W93041  26.183  15.196   1.474
92178W        W93042  25.977  17.916   1.089
92179W        W93043  27.409  17.563   3.127
92180W        W93044  26.253  16.807   0.758
92181W        W93045  28.024  16.484   1.789
92182W        W93046  28.172  16.004   2.077
92183W        W93047  27.531  16.651   2.096
92184W        W93048  27.936  17.119   0.324
92185W        W93049  27.589  15.139   1.508
92186W        W93050   0.083  15.500   0.757
92187W        W93051  25.732  18.038   2.938
92188W        W93052  26.035  17.154   2.109
92189W        W93053  25.525  18.023   0.852
92190W        W93054  27.369  15.311   2.467
92191W        W93055  26.951  17.416   0.390
92192W        W93056  28.688  17.849   0.630
92193W        W93057  27.392  16.220   0.718
92194W        W93058  26.501  15.484   1.148
92195W        W93059  27.508  15.424   0.255
92196W        W93060  27.888  17.054   3.295
92197W        W93061  28.280  15.039   0.804
92198W        W93062  25.728  14.674   0.342
92199W        W93063  27.004  17.230   2.470
92200W        W93064  26.738  16.982   1.660
92201W        W93065  26.548  17.143   0.177
92202W        W93066  25.671  17.517   0.904
92203W        W93067  26.339  16.045   3.017
92204W        W93068  26.878  14.800   3.273
92205W        W93069  27.643  14.943   2.720
92206W        W93070  26.855  14.677   1.222
92207W        W93071  27.668  14.625   0.743
92208W        W93072  25.915  14.804   2.131
92209W        W93073  25.864  15.613   1.486
92210W        W93074  28.586  14.675   1.919
92211W        W93075  26.058  15.286   0.969
92212W        W93076  28.644  15.053   2.541
92213W        W93077  28.863  16.165   0.082
92214W        W93078  26.356  15.009   1.936
92215W        W93079  27.553  15.666   2.813
92216W        W93080  25.590  15.156   0.346
92217W        W93081  26.417  16.789   2.895
92218W        W93082  27.648  16.123   2.010
92219W        W93083  27.444  18.129   0.384
92220W        W93084  25.532  16.583   0.195
92221W        W93085  26.498  17.326   3.215
92222W        W93086  25.968  16.211   2.683
92223W        W93087  26.994  16.482   2.560
92224W        W93088  28.649  14.639   2.922
92225W        W93089   0.072  16.454   2.997
92226W        W93090  28.948  16.388   0.543
92227W        W93091  27.773  16.842   0.719
92228W        W93092  28.434  18.132   0.259
92229W        W93093  27.693  16.180   3.642
92230W        W93094  26.063  17.169   2.973
92231W        W93095   0.117  15.163   3.486
92232W        W93096  28.696  15.952   2.161
92233W        W93097  27.076  18.121   3.523
92234W        W93098  26.992  14.731   0.333
92235W        W93099  28.466  17.144   0.297
92236W        W93100  26.426  15.510   3.067
92237W        W93101  26.935  17.444   2.945
92238W        W93102  28.838  15.469   2.805
92239W        W93103  28.210  18.035   0.718
92240W        W93104  28.285  16.828   2.111
92241W        W93105  26.658  15.176   2.745
92242W        W93106  27.148  16.184   3.372
92243W        W93107  26.580  17.229   0.707
92244W        W93108  28.155  16.596   0.943
92245W        W93109  26.129  15.197   2.765
92246W        W93110  27.438  17.538   1.177
92247W        W93111   0.103  16.210   1.011
92248W        W93112  27.342  14.664   3.095
92249W        W93113  28.259  17.348   2.108
92250W        W93114  28.531  17.752   1.915
92251W        W93115  27.809  17.781   0.418
92252W        W93116  25.639  17.349   3.253
92253W        W93117  26.379  15.347   2.336
92254W        W93118  26.403  14.725   1.507
92255W        W93119  28.159  15.461   2.108
92256W        W93120  26.990  16.911   0.382
92257W        W93121  28.695  16.728   1.801
92258W        W93122  26.038  17.668   3.089
92259W        W93123  28.594  18.234   1.015
92260W        W93124  26.718  15.137   1.468
92261W        W93125  26.292  16.404   1.712
92262W        W93126  26.755  18.204   2.319
92263W        W93127  28.703  18.168   3.255
92264W        W93128  27.965  16.434   2.307
92265W        W93129  25.771  16.044   0.533
92266W        W93130  28.908  17.825   1.106
92267W        W93131  28.703  15.259   0.513
92268W        W93132  26.648  14.643   2.832
92269W        W93133  28.628  17.513   1.462
92270W        W93134  28.563  16.047   1.285
92271W        W93135  26.899  15.648   1.475
92272W        W93136  27.191  16.050   2.837
92273W        W93137  28.084  17.153   2.816
92274W        W93138  27.058  15.525   2.812
92275W        W93139  26.687  17.897   1.505
92276W        W93140  26.064  18.147   3.336
92277W        W93141  26.524  17.707   0.264
92278W        W93142  28.606  17.028   1.163
92279W        W93143  26.478  15.752   2.626
92280W        W93144  28.936  15.700   0.305
92281W        W93145  26.758  16.654   0.810
92282W        W93146  27.925  16.286   2.836
92283W        W93147  27.845  15.917   2.459
92284W        W93148  26.482  16.341   2.611
92285W        W93149  28.503  18.057   2.450
92286W        W93150  28.193  14.994   3.229
92287W        W93151  25.877  14.868   3.095
92288W        W93152  26.483  15.864   2.091
92289W        W93153  26.674  15.724   0.354
92290W        W93154  25.613  17.516   2.764
92291W        W93155  27.167  16.283   2.096
92292W        W93156  26.921  15.255   0.268
92293W        W93157  26.125  16.089   1.306
92294W        W93158  25.787  17.962   2.421
92295W        W93159  28.463  16.238   0.416
92296W        W93160  28.670  15.142   3.225
92297W        W93161  28.139  17.306   1.220
92298W        W93162  25.848  16.122   3.180
92299W        W93163  28.721  14.742   0.574
92300W        W93164  28.248  17.084   0.774
92301W        W93165  26.875  16.122   0.768
92302W        W93166  28.327  15.004   0.276
92303W        W93167  28.414  15.666   2.503
92304W        W93168  25.997  15.981   1.827
92305W        W93169  26.504  17.013   1.185
92306W        W93170  28.149  15.733   1.251
92307W        W93171  27.179  15.275   1.985
92308W        W93172   0.018  17.150   2.493
92309W        W93173  28.962  15.004   2.049
92310W        W93174  25.609  17.808   1.408
92311W        W93175  25.842  17.008   1.036
92312W        W93176  25.986  14.939   3.604
92313W        W93177  27.279  17.660   3.615
92314W        W93178  28.884  16.453   1.412
92315W        W93179  28.226  16.697   0.440
92316W        W93180  27.656  18.237   2.417
92317W        W93181  28.371  16.937   3.510
92318W        W93182  27.118  14.515   0.786
92319W        W93183  27.926  15.527   1.658
92320W        W93184  25.541  17.069   1.939
92321W        W93185  26.926  15.043   0.804
92322W        W93186  26.678  16.836   3.343
92323W        W93187  27.655  15.547   1.205
92324W        W93188  27.863  16.961   2.386
92325W        W93189  26.089  17.513   2.556
92326W        W93190  26.806  17.690   3.409
92327W        W93191  26.497  15.315   0.643
92328W        W93192  27.977  15.488   0.793
92329W        W93193  27.910  17.631   2.963
92330W        W93194  26.725  16.122   1.690
92331W        W93195  26.322  17.956   2.441
92332W        W93196  28.932  18.023   0.222
92333W        W93197  25.885  16.677   2.904
92334W        W93198  27.857  16.981   1.872
92335W        W93199  26.136  16.636   1.270
92336W        W93200  26.764  17.688   2.489
92337W        W93201  27.149  14.903   1.617
92338W        W93202  25.544  16.880   0.632
92339W        W93203  27.178  15.846   0.436
92340W        W93204  25.786  16.375   1.561
92341W        W93205  27.101  14.911   2.692
92342W        W93206  28.817  14.858   0.080
92343W        W93207  28.848  16.707   3.390
92344W        W93208  27.597  18.020   3.408
92345W        W93209   0.037  16.994   2.993
92346W        W93210  28.567  17.697   3.502
92347W        W93211  26.290  18.156   1.960
92348W        W93212   0.042  16.745   1.020
92349W        W93213  27.717  15.978   1.512
92350W        W93214  27.377  14.633   1.236
92351W        W93215  26.568  17.532   1.157
92352W        W93216  26.870  15.510   2.354
92353W        W93217  26.779  14.668   1.879
92354W        W93218  25.794  17.807   0.472
92355W        W93219  27.507  17.026   1.132
92356W        W93220  26.516  17.779   2.927
92357W        W93221  25.859  16.475   0.871
92358W        W93222  25.732  15.174   1.800
92359W        W93223  27.306  17.016   1.669
92360W        W93224  25.669  14.908   0.805
92361W        W93225  28.328  16.155   2.571
92362W        W93226  28.041  15.473   0.244
92363W        W93227  28.740  17.165   2.040
92364W        W93228  27.362  17.571   1.735
92365W        W93229  26.776  17.733   0.744
92366W        W93230  27.924  14.634   0.167
92367W        W93231  25.776  17.913   1.893
92368W        W93232  27.767  15.656   3.505
92369W        W93233  25.992  15.329   3.251
92370W        W93234  25.853  15.783   0.984
92371W        W93235  26.354  15.818   0.763
92372W        W93236  28.126  16.083   3.329
92373W        W93237  26.670  16.399   2.125
92374W        W93238  27.873  14.728   1.323
92375W        W93239  27.209  18.043   1.628
92376W        W93240  28.238  17.587   2.566
92377W        W93241  28.138  17.587   1.652
92378W        W93242  27.934  16.831   1.372
92379W        W93243  27.359  15.008   0.536
92380W        W93244  28.992  14.654   1.171
92381W        W93245  26.500  16.216   0.427
92382W        W93246  28.896  15.680   1.214
92383W        W93247  27.492  16.672   0.317
92384W        W93248  28.518  16.936   3.020
92385W        W93249  28.239  17.542   0.542
92386W        W93250  26.864  15.305   3.228
92387W        W93251  26.855  16.018   2.427
92388W        W93252  28.721  17.397   2.867
92389W        W93253  27.848  15.333   3.065
92390W        W93254  25.517  15.935   2.838
92391W        W93255  27.500  16.333   2.522
92392W        W93256  25.710  16.869   1.509
92393W        W93257  26.159  16.274   2.205
92394W        W93258  28.250  16.672   2.657
92395W        W93259  28.126  17.966   3.326
92396W        W93260  28.056  15.780   2.909
92397W        W93261  28.262  17.855   1.220
92398W        W93262  27.255  17.688   2.623
92399W        W93263  26.658  17.795   2.003
92400W        W93264  28.493  17.103   2.504
92401W        W93265  27.483  17.182   3.621
92402W        W93266  26.184  17.026   1.605
92403W        W93267  28.404  16.627   1.399
92404W        W93268  28.107  17.892   2.151
92405W        W93269  26.168  17.648   2.058
92406W        W93270  27.272  15.684   3.254
92407W        W93271  27.789  17.856   0.960
92408W        W93272  27.027  17.227   3.399
92409W        W93273  27.056  17.297   0.908
92410W        W93274  26.157  15.878   0.221
92411W        W93275  25.547  18.302   7.011
92412W        W93276  25.962  17.199   6.555
92413W        W93277  28.790  16.789   4.370
92414W        W93278  28.928  17.885   6.283
92415W        W93279  26.640  18.009   3.796
92416W        W93280  26.920  16.204   4.943
92417W        W93281  26.107  15.933   5.422
92418W        W93282  27.459  16.659   4.373
92419W        W93283  27.105  17.821   6.754
92420W        W93284  25.615  15.347   6.713
92421W        W93285  26.227  14.473   6.568
92422W        W93286  28.040  15.032   5.274
92423W        W93287  27.749  15.847   4.036
92424W        W93288  28.275  15.354   7.046
92425W        W93289  25.730  14.992   6.331
92426W        W93290  25.722  17.860   7.224
92427W        W93291  27.096  17.339   3.975
92428W        W93292  25.770  15.666   5.724
92429W        W93293  26.810  15.821   6.950
92430W        W93294  28.790  15.546   5.421
92431W        W93295  28.807  16.640   6.350
92432W        W93296  27.221  15.936   5.267
92433W        W93297  27.794  17.410   5.770
92434W        W93298  26.181  16.659   5.977
92435W        W93299  25.523  16.178   5.578
92436W        W93300  26.717  16.328   6.590
92437W        W93301  28.767  16.001   6.983
92438W        W93302  26.455  17.404   5.352
92439W        W93303  27.684  17.225   6.240
92440W        W93304  26.819  15.616   5.640
92441W        W93305  27.007  16.457   5.408
92442W        W93306  27.841  17.587   6.981
92443W        W93307  27.374  16.672   7.242
92444W        W93308  27.203  16.488   6.643
92445W        W93309  25.327  15.635   7.038
92446W        W93310  28.335  17.383   6.848
92447W        W93311  25.936  14.748   4.835
92448W        W93312  26.510  17.053   5.851
92449W        W93313  28.993  17.173   5.164
92450W        W93314  28.481  15.123   5.551
92451W        W93315  28.641  15.369   3.699
92452W        W93316  28.950  16.150   6.165
92453W        W93317  27.127  17.858   5.797
92454W        W93318  28.821  17.300   4.261
92455W        W93319  26.052  18.221   4.361
92456W        W93320  26.375  18.147   4.777
92457W        W93321  26.229  14.872   6.222
92458W        W93322  28.695  15.716   6.352
92459W        W93323  28.237  16.213   4.821
92460W        W93324  28.148  16.117   3.871
92461W        W93325  27.368  17.122   5.838
92462W        W93326  27.285  15.401   5.159
92463W        W93327  27.671  17.788   6.159
92464W        W93328  28.716  16.387   4.700
92465W        W93329  27.673  15.100   4.427
92466W        W93330  26.218  17.751   4.485
92467W        W93331  25.613  15.082   5.079
92468W        W93332  28.297  15.652   5.509
92469W        W93333  25.941  17.478   5.449
92470W        W93334  27.035  17.838   4.058
92471W        W93335  28.531  15.877   3.633
92472W        W93336  25.679  17.534   5.904
92473W        W93337  26.410  17.290   6.297
92474W        W93338  27.033  16.716   4.962
92475W        W93339  26.733  15.006   5.982
92476W        W93340   0.046  14.600   5.322
92477W        W93341  26.250  16.479   3.261
92478W        W93342  25.822  15.435   3.722
92479W        W93343  26.063  17.491   4.943
92480W        W93344  26.795  17.197   4.937
92481W        W93345  28.307  17.893   6.780
92482W        W93346  27.424  15.555   4.317
92483W        W93347  28.750  17.978   5.129
92484W        W93348  28.336  15.861   6.712
92485W        W93349   0.158  17.156   4.661
92486W        W93350  27.798  16.744   6.381
92487W        W93351  25.324  16.233   4.873
92488W        W93352  26.661  16.678   6.189
92489W        W93353  27.807  16.026   4.546
92490W        W93354  27.860  16.532   4.670
92491W        W93355  26.069  15.768   6.198
92492W        W93356  26.023  15.775   6.721
92493W        W93357  25.972  14.732   5.348
92494W        W93358  27.572  15.117   5.496
92495W        W93359  27.364  15.127   6.857
92496W        W93360  27.736  15.340   3.945
92497W        W93361  28.823  17.796   6.792
92498W        W93362  27.735  14.748   6.907
92499W        W93363  28.749  17.229   7.113
92500W        W93364  28.314  15.376   6.525
92501W        W93365  28.076  15.171   4.758
92502W        W93366  28.421  16.455   7.214
92503W        W93367  26.237  17.877   5.245
92504W        W93368  27.004  15.468   4.033
92505W        W93369  26.360  14.892   6.924
92506W        W93370  28.453  15.476   4.542
92507W        W93371  28.794  15.887   4.576
92508W        W93372  26.554  17.988   6.992
92509W        W93373  26.423  14.637   4.191
92510W        W93374  28.869  15.062   5.174
92511W        W93375   0.025  17.469   3.788
92512W        W93376  25.805  16.607   5.621
92513W        W93377  27.730  15.044   3.465
92514W        W93378  28.983  17.616   5.463
92515W        W93379  28.785  14.831   5.984
92516W        W93380  27.596  16.040   6.716
92517W        W93381  27.517  17.135   4.186
92518W        W93382  27.919  16.653   7.258
92519W        W93383  27.648  14.652   5.318
92520W        W93384  26.267  15.469   5.583
92521W        W93385  25.806  16.755   6.328
92522W        W93386  27.718  17.898   5.150
92523W        W93387  28.692  15.413   5.910
92524W        W93388  27.688  17.994   6.651
92525W        W93389  28.883  16.966   3.850
92526W        W93390  27.397  16.339   4.781
92527W        W93391  28.999  14.762   6.534
92528W        W93392  27.292  16.801   6.236
92529W        W93393  27.377  15.593   5.652
92530W        W93394  28.299  15.923   4.353
92531W        W93395  28.706  15.695   4.099
92532W        W93396  28.467  17.596   4.599
92533W        W93397  28.153  17.146   5.467
92534W        W93398  28.240  16.419   4.331
92535W        W93399  27.506  16.493   5.260
92536W        W93400  28.544  16.349   5.286
92537W        W93401  26.027  15.280   5.992
92538W        W93402  28.518  16.355   6.685
92539W        W93403  28.960  18.026   5.780
92540W        W93404  26.925  17.590   5.239
92541W        W93405  28.092  18.097   6.349
92542W        W93406  27.889  15.256   6.233
92543W        W93407  27.249  18.030   6.306
92544W        W93408  28.662  15.035   4.688
92545W        W93409  28.614  16.444   5.887
92546W        W93410  25.633  15.493   6.226
92547W        W93411  28.421  15.344   5.089
92548W        W93412  28.747  15.508   6.824
92549W        W93413  27.716  17.244   5.218
92550W        W93414  27.078  17.863   4.813
92551W        W93415  25.970  14.966   4.126
92552W        W93416  27.294  14.676   5.712
92553W        W93417  26.148  18.156   3.846
92554W        W93418  26.995  16.480   4.474
92555W        W93419  27.397  16.981   6.717
92556W        W93420  27.225  15.038   4.672
92557W        W93421  28.445  14.788   5.083
92558W        W93422  28.083  18.169   5.466
92559W        W93423  27.634  17.910   5.661
92560W        W93424  26.973  16.796   5.799
92561W        W93425  28.805  17.475   5.982
92562W        W93426  26.340  14.967   4.597
92563W        W93427  26.911  17.347   5.696
92564W        W93428  26.420  15.306   3.543
92565W        W93429  27.372  15.842   6.127
92566W        W93430  28.104  14.791   5.722
92567W        W93431  25.540  16.459   6.028
92568W        W93432  27.260  16.345   3.869
92569W        W93433  26.474  14.767   3.639
92570W        W93434  27.256  15.838   4.761
92571W        W93435  28.123  14.888   6.552
92572W        W93436  26.835  16.847   6.635
92573W        W93437  27.658  16.528   6.838
92574W        W93438  28.132  16.676   6.785
92575W        W93439  27.364  14.793   7.267
92576W        W93440  26.635  15.182   5.377
92577W        W93441  26.148  15.178   5.120
92578W        W93442  25.898  17.978   4.834
92579W        W93443  27.497  17.511   6.613
92580W        W93444  26.703  17.095   4.212
92581W        W93445  28.004  16.313   5.287
92582W        W93446  28.233  16.138   5.708
92583W        W93447  27.395  16.504   5.794
92584W        W93448  27.978  17.143   3.808
92585W        W93449  27.626  15.036   4.979
92586W        W93450  28.954  15.392   4.439
92587W        W93451  25.770  17.932   6.648
92588W        W93452  25.988  17.139   6.025
92589W        W93453  25.567  18.087   4.460
92590W        W93454  27.452  15.093   5.996
92591W        W93455  26.559  17.601   4.117
92592W        W93456  28.644  17.767   4.058
92593W        W93457  27.768  16.347   4.128
92594W        W93458  26.964  15.465   4.555
92595W        W93459  27.322  15.332   3.624
92596W        W93460  27.901  17.132   6.709
92597W        W93461  28.156  15.139   4.238
92598W        W93462  25.578  14.638   3.968
92599W        W93463  26.896  17.138   6.183
92600W        W93464  26.717  16.950   5.381
92601W        W93465  26.635  17.294   3.715
92602W        W93466  25.724  17.573   4.533
92603W        W93467  26.217  16.305   6.728
92604W        W93468  26.862  14.819   6.997
92605W        W93469  27.607  14.882   6.441
92606W        W93470  26.869  14.641   4.783
92607W        W93471  27.751  14.829   3.947
92608W        W93472  25.825  14.797   5.873
92609W        W93473  25.799  15.571   5.184
92610W        W93474  28.579  14.619   5.555
92611W        W93475  25.862  15.263   4.671
92612W        W93476  28.339  15.065   6.089
92613W        W93477   0.020  16.018   3.812
92614W        W93478  26.299  14.940   5.691
92615W        W93479  27.438  15.428   6.440
92616W        W93480  25.470  15.137   3.963
92617W        W93481  26.288  16.801   6.499
92618W        W93482  27.628  16.076   5.586
92619W        W93483  27.468  18.069   3.926
92620W        W93484  25.474  16.350   3.444
92621W        W93485  26.507  17.214   6.791
92622W        W93486  25.851  16.215   6.380
92623W        W93487  27.047  16.344   6.170
92624W        W93488  28.529  14.633   6.391
92625W        W93489   0.046  16.299   6.648
92626W        W93490   0.034  16.302   4.282
92627W        W93491  27.943  16.823   4.220
92628W        W93492  28.458  18.137   3.720
92629W        W93493  27.643  16.208   7.293
92630W        W93494  26.081  17.159   7.065
92631W        W93495   0.060  15.139   7.091
92632W        W93496  28.677  15.905   5.804
92633W        W93497  27.008  17.983   7.228
92634W        W93498  26.914  14.647   3.950
92635W        W93499  28.489  17.310   3.846
92636W        W93500  26.482  15.428   6.817
92637W        W93501  27.010  17.332   6.642
92638W        W93502  28.765  15.193   6.351
92639W        W93503  28.264  18.123   4.192
92640W        W93504  28.261  16.667   5.589
92641W        W93505  26.615  15.058   6.501
92642W        W93506  27.213  16.150   7.039
92643W        W93507  26.399  17.281   4.584
92644W        W93508  28.328  16.756   4.701
92645W        W93509  26.105  15.308   6.496
92646W        W93510  27.283  17.365   4.922
92647W        W93511   0.043  15.942   5.159
92648W        W93512  27.256  14.651   6.745
92649W        W93513  28.305  17.401   5.895
92650W        W93514  28.526  17.790   5.604
92651W        W93515  27.656  17.572   3.951
92652W        W93516  25.655  17.433   6.917
92653W        W93517  26.508  15.457   6.148
92654W        W93518  26.441  14.762   5.108
92655W        W93519  28.000  15.297   5.732
92656W        W93520  27.101  16.821   4.031
92657W        W93521  28.826  16.741   5.508
92658W        W93522  26.154  17.622   6.792
92659W        W93523  28.707  18.052   4.553
92660W        W93524  26.762  15.128   4.890
92661W        W93525  26.277  16.409   5.533
92662W        W93526  26.831  18.213   6.065
92663W        W93527  28.665  18.259   7.010
92664W        W93528  27.904  16.477   5.932
92665W        W93529  25.696  15.941   3.675
92666W        W93530  28.957  17.615   4.807
92667W        W93531  28.651  15.096   4.132
92668W        W93532  26.780  14.555   6.506
92669W        W93533  28.554  17.499   5.139
92670W        W93534  28.540  15.870   5.076
92671W        W93535  26.828  15.628   5.097
92672W        W93536  27.111  15.980   6.552
92673W        W93537  28.297  17.167   6.366
92674W        W93538  26.916  15.500   6.539
92675W        W93539  26.729  18.064   5.166
92676W        W93540  26.079  18.134   7.007
92677W        W93541  26.298  17.721   3.539
92678W        W93542  28.664  17.149   4.751
92679W        W93543  26.497  15.847   6.522
92680W        W93544   0.217  15.800   4.245
92681W        W93545  27.116  17.017   4.536
92682W        W93546  28.002  16.261   6.484
92683W        W93547  27.871  15.979   6.044
92684W        W93548  26.359  16.240   6.218
92685W        W93549  28.494  18.165   5.999
92686W        W93550  28.205  14.835   7.061
92687W        W93551  25.868  14.872   6.807
92688W        W93552  26.413  15.898   5.831
92689W        W93553  26.851  15.670   3.582
92690W        W93554  25.553  17.493   6.417
92691W        W93555  27.110  16.057   5.739
92692W        W93556  26.872  15.098   3.705
92693W        W93557  26.555  16.543   5.116
92694W        W93558  25.847  18.146   6.178
92695W        W93559  28.609  16.232   4.030
92696W        W93560  28.608  15.019   6.795
92697W        W93561  28.168  17.236   4.919
92698W        W93562  25.719  16.201   6.907
92699W        W93563  28.751  14.546   4.114
92700W        W93564  28.340  17.137   4.336
92701W        W93565  27.348  16.088   4.308
92702W        W93566  28.176  15.127   3.724
92703W        W93567  28.253  15.626   6.063
92704W        W93568  25.774  16.159   5.112
92705W        W93569  26.309  17.029   5.029
92706W        W93570  28.104  15.705   4.865
92707W        W93571  27.081  15.154   5.617
92708W        W93572   0.120  17.086   6.198
92709W        W93573   0.025  15.135   5.648
92710W        W93574  25.680  17.920   5.286
92711W        W93575  25.911  17.072   4.668
92712W        W93576  25.992  14.898   7.331
92713W        W93577  27.296  17.474   7.085
92714W        W93578   0.034  16.469   5.105
92715W        W93579  28.431  16.753   3.988
92716W        W93580  27.837  18.319   5.926
92717W        W93581  28.317  16.967   7.194
92718W        W93582  27.193  14.598   4.384
92719W        W93583  27.818  15.520   5.279
92720W        W93584  25.626  17.082   5.643
92721W        W93585  26.821  14.968   4.361
92722W        W93586  26.887  16.536   7.059
92723W        W93587  27.634  15.504   4.790
92724W        W93588  28.044  16.970   5.961
92725W        W93589  26.036  17.658   6.276
92726W        W93590  26.782  17.541   7.070
92727W        W93591  26.461  15.126   4.028
92728W        W93592  27.945  15.554   4.397
92729W        W93593  28.000  17.585   6.484
92730W        W93594  26.670  16.052   5.387
92731W        W93595  26.356  18.016   6.030
92732W        W93596  28.958  17.975   3.675
92733W        W93597  25.870  16.711   6.837
92734W        W93598  27.729  16.847   5.571
92735W        W93599  26.623  16.808   4.654
92736W        W93600  26.740  17.653   6.089
92737W        W93601  27.167  14.886   5.179
92738W        W93602  25.530  16.884   4.363
92739W        W93603  27.323  15.830   3.757
92740W        W93604  26.016  16.629   5.151
92741W        W93605  27.107  15.011   6.390
92742W        W93606  28.623  14.853   3.663
92743W        W93607  28.897  16.578   7.040
92744W        W93608  27.496  17.961   7.121
92745W        W93609   0.061  16.925   6.693
92746W        W93610  28.533  17.705   7.233
92747W        W93611  26.382  18.256   5.570
92748W        W93612   0.229  16.645   4.650
92749W        W93613  27.687  15.982   5.047
92750W        W93614  27.414  14.562   4.857
92751W        W93615  26.562  17.670   4.879
92752W        W93616  27.057  15.424   6.057
92753W        W93617  26.815  14.705   5.501
92754W        W93618  25.849  17.811   4.091
92755W        W93619  27.514  16.874   4.877
92756W        W93620  26.623  17.681   6.582
92757W        W93621  25.731  16.552   4.735
92758W        W93622  25.832  15.184   5.535
92759W        W93623  27.249  16.992   5.347
92760W        W93624  25.565  14.890   4.458
92761W        W93625  28.402  16.111   6.215
92762W        W93626  28.208  15.595   3.940
92763W        W93627  28.654  17.227   5.555
92764W        W93628  27.367  17.509   5.479
92765W        W93629  26.718  17.965   4.443
92766W        W93630  28.055  14.639   3.564
92767W        W93631  25.963  17.942   5.706
92768W        W93632  27.882  15.708   6.986
92769W        W93633  26.036  15.314   7.014
92770W        W93634  25.586  15.786   4.750
92771W        W93635  26.910  15.987   4.017
92772W        W93636  28.048  16.199   6.987
92773W        W93637  26.687  16.342   5.814
92774W        W93638  27.969  14.646   4.895
92775W        W93639  27.227  18.006   5.308
92776W        W93640  28.450  17.716   6.293
92777W        W93641  28.075  17.640   5.410
92778W        W93642  27.980  16.790   5.116
92779W        W93643  27.279  15.033   4.083
92780W        W93644  28.959  14.620   4.815
92781W        W93645  26.611  16.138   3.474
92782W        W93646  28.871  15.504   4.916
92783W        W93647  27.573  16.743   3.851
92784W        W93648  28.566  16.910   6.733
92785W        W93649  28.149  17.733   3.820
92786W        W93650  26.927  15.317   7.026
92787W        W93651  26.825  15.882   6.131
92788W        W93652  28.776  17.351   6.505
92789W        W93653  27.844  15.256   6.757
92790W        W93654  25.528  15.853   6.576
92791W        W93655  27.537  16.314   6.277
92792W        W93656  25.752  17.082   5.151
92793W        W93657  25.959  16.167   5.872
92794W        W93658  28.299  16.637   6.275
92795W        W93659  27.996  18.054   7.153
92796W        W93660  27.904  15.709   6.472
92797W        W93661  28.249  17.918   5.012
92798W        W93662  27.238  17.511   6.165
92799W        W93663  26.645  17.823   5.613
92800W        W93664  28.618  16.962   5.989
92801W        W93665  27.663  17.111   7.156
92802W        W93666  26.135  16.993   5.518
92803W        W93667  28.495  16.900   5.167
92804W        W93668  28.097  17.860   5.889
92805W        W93669  26.282  17.527   5.835
92806W        W93670  27.324  15.646   6.920
92807W        W93671  27.362  17.617   4.394
92808W        W93672  27.021  17.043   7.086
92809W        W93673  26.884  17.480   4.508
92810W        W93674  26.155  15.779   3.429
92811W        W93675  25.503  18.127  10.825
92812W        W93676  26.072  17.113  10.283
92813W        W93677  28.643  16.900   7.977
92814W        W93678  28.893  17.990  10.029
92815W        W93679  26.618  17.903   7.540
92816W        W93680  26.831  16.030   8.526
92817W        W93681  26.474  15.756   8.858
92818W        W93682  27.258  16.734   7.948
92819W        W93683  27.104  17.854  10.468
92820W        W93684  25.688  15.341  10.390
92821W        W93685  26.220  14.545  10.249
92822W        W93686  28.122  14.993   9.039
92823W        W93687  27.860  15.738   7.485
92824W        W93688  28.275  15.457  10.634
92825W        W93689  25.847  14.962   9.998
92826W        W93690  25.870  17.772  10.843
92827W        W93691  27.308  17.114   7.541
92828W        W93692  25.588  15.752   9.472
92829W        W93693  26.737  15.896  10.581
92830W        W93694  28.949  15.426   9.028
92831W        W93695  28.837  16.718   9.960
92832W        W93696  27.278  16.130   9.003
92833W        W93697  27.820  17.424   9.312
92834W        W93698  26.195  16.715   9.533
92835W        W93699  25.411  16.241   9.393
92836W        W93700  26.656  16.291  10.253
92837W        W93701  28.743  16.061  10.619
92838W        W93702  26.450  17.562   9.079
92839W        W93703  27.658  17.217  10.115
92840W        W93704  26.990  15.886   9.352
92841W        W93705  27.068  16.617   9.074
92842W        W93706  27.934  17.592  10.824
92843W        W93707  27.287  16.661  10.849
92844W        W93708  27.218  16.511  10.347
92845W        W93709  25.555  15.701  10.730
92846W        W93710  28.347  17.393  10.564
92847W        W93711  26.076  14.811   8.531
92848W        W93712  26.513  17.142   9.620
92849W        W93713   0.007  17.103   8.906
92850W        W93714  28.512  15.252   9.232
92851W        W93715  28.693  15.459   7.344
92852W        W93716  28.920  16.194   9.873
92853W        W93717  27.188  17.683   9.594
92854W        W93718  28.947  17.323   7.995
92855W        W93719  25.970  18.141   8.040
92856W        W93720  26.377  18.119   8.397
92857W        W93721  26.346  14.863   9.807
92858W        W93722  28.721  15.735   9.965
92859W        W93723  28.154  16.307   8.562
92860W        W93724  28.088  16.219   7.541
92861W        W93725  27.446  17.225   9.619
92862W        W93726  27.487  15.654   9.008
92863W        W93727  27.770  17.605   9.791
92864W        W93728  28.667  16.482   8.289
92865W        W93729  27.584  15.148   8.221
92866W        W93730  26.181  17.682   8.130
92867W        W93731  25.756  15.207   8.615
92868W        W93732  28.524  15.742   9.025
92869W        W93733  25.927  17.548   9.070
92870W        W93734  27.008  17.545   7.532
92871W        W93735  28.334  15.845   7.244
92872W        W93736  25.713  17.574   9.565
92873W        W93737  26.533  17.269  10.114
92874W        W93738  26.686  16.645   8.726
92875W        W93739  26.787  15.092   9.576
92876W        W93740   0.192  14.640   8.952
92877W        W93741  26.419  16.745   6.989
92878W        W93742  26.000  15.389   7.520
92879W        W93743  26.029  17.424   8.583
92880W        W93744  26.993  17.087   8.844
92881W        W93745  28.462  17.838  10.267
92882W        W93746  27.487  15.660   8.102
92883W        W93747  28.726  18.032   8.802
92884W        W93748  28.345  15.882  10.313
92885W        W93749   0.115  17.353   8.473
92886W        W93750  27.820  16.741  10.032
92887W        W93751  25.529  16.039   8.557
92888W        W93752  26.526  16.735   9.930
92889W        W93753  27.818  16.002   8.305
92890W        W93754  27.663  16.449   8.486
92891W        W93755  26.095  15.803   9.723
92892W        W93756  26.035  15.749  10.491
92893W        W93757  25.972  14.624   9.006
92894W        W93758  27.639  15.201   9.210
92895W        W93759  27.425  15.235  10.500
92896W        W93760  27.694  15.313   7.742
92897W        W93761  28.894  17.823  10.548
92898W        W93762  27.695  14.795  10.574
92899W        W93763  28.768  17.180  10.764
92900W        W93764  28.373  15.373  10.109
92901W        W93765  28.087  15.260   8.391
92902W        W93766  28.454  16.440  10.837
92903W        W93767  26.189  17.962   8.866
92904W        W93768  27.147  15.392   7.821
92905W        W93769  26.423  14.921  10.574
92906W        W93770  28.493  15.534   8.197
92907W        W93771  28.848  15.996   8.098
92908W        W93772  26.435  18.025  10.725
92909W        W93773  26.545  14.637   7.948
92910W        W93774  28.790  14.952   8.843
92911W        W93775   0.049  17.467   7.486
92912W        W93776  25.728  16.631   9.179
92913W        W93777  27.832  15.120   7.275
92914W        W93778   0.022  17.562   9.169
92915W        W93779  28.880  14.682   9.695
92916W        W93780  27.583  16.121  10.383
92917W        W93781  27.360  17.195   8.167
92918W        W93782  27.796  16.741  11.022
92919W        W93783  27.693  14.703   9.117
92920W        W93784  26.112  15.594   9.209
92921W        W93785  26.017  16.672  10.030
92922W        W93786  27.710  17.778   8.857
92923W        W93787  28.880  15.445   9.553
92924W        W93788  27.625  17.973  10.343
92925W        W93789  28.732  16.777   7.480
92926W        W93790  27.161  16.440   8.602
92927W        W93791  28.981  14.764  10.192
92928W        W93792  27.322  16.851   9.969
92929W        W93793  27.788  15.647   9.429
92930W        W93794  28.337  16.028   8.177
92931W        W93795  28.487  15.805   7.737
92932W        W93796  28.530  17.459   8.244
92933W        W93797  28.460  17.113   8.993
92934W        W93798  28.012  16.400   8.040
92935W        W93799  27.579  16.548   8.995
92936W        W93800  28.553  16.255   9.080
92937W        W93801  26.072  15.273   9.617
92938W        W93802  28.577  16.378  10.263
92939W        W93803   0.005  18.012   9.484
92940W        W93804  26.907  17.586   8.873
92941W        W93805  28.043  18.021   9.988
92942W        W93806  27.905  15.476   9.924
92943W        W93807  26.997  17.989   9.978
92944W        W93808  28.703  15.080   8.324
92945W        W93809  28.627  16.449   9.556
92946W        W93810  25.714  15.499   9.904
92947W        W93811  28.473  15.336   8.719
92948W        W93812  28.751  15.559  10.445
92949W        W93813  27.752  17.257   8.837
92950W        W93814  27.034  17.891   8.480
92951W        W93815  26.143  14.953   7.815
92952W        W93816  27.270  14.882   9.481
92953W        W93817  26.109  18.038   7.542
92954W        W93818  26.861  16.425   8.168
92955W        W93819  27.350  17.008  10.470
92956W        W93820  27.265  15.355   8.603
92957W        W93821  28.342  14.837   8.609
92958W        W93822  28.234  18.113   8.993
92959W        W93823  27.599  17.897   9.354
92960W        W93824  27.044  16.856   9.532
92961W        W93825  28.789  17.581   9.708
92962W        W93826  26.541  14.972   8.372
92963W        W93827  26.898  17.335   9.335
92964W        W93828  26.467  15.210   7.321
92965W        W93829  27.383  15.888   9.693
92966W        W93830  28.111  14.684   9.469
92967W        W93831  25.666  16.642   9.679
92968W        W93832  27.240  16.323   7.612
92969W        W93833  26.548  14.697   7.407
92970W        W93834  27.346  15.914   8.546
92971W        W93835  28.076  14.905   9.934
92972W        W93836  26.882  16.887  10.252
92973W        W93837  27.684  16.608  10.522
92974W        W93838  28.170  16.667  10.451
92975W        W93839  27.398  14.935  10.971
92976W        W93840  26.648  15.504   9.275
92977W        W93841  26.274  15.252   8.776
92978W        W93842  25.859  17.914   8.477
92979W        W93843  27.510  17.498  10.543
92980W        W93844  26.918  17.159   7.895
92981W        W93845  28.075  16.441   9.080
92982W        W93846  28.181  15.997   9.346
92983W        W93847  27.581  16.705   9.538
92984W        W93848  27.813  17.062   7.643
92985W        W93849  27.724  15.079   8.722
92986W        W93850  28.994  15.473   8.067
92987W        W93851  25.828  17.885  10.341
92988W        W93852  25.975  17.140   9.754
92989W        W93853  25.461  17.995   8.093
92990W        W93854  27.483  15.307   9.691
92991W        W93855  26.508  17.455   7.767
92992W        W93856  28.691  17.748   7.827
92993W        W93857  27.661  16.060   7.808
92994W        W93858  26.743  15.454   8.474
92995W        W93859  27.352  15.317   7.343
92996W        W93860  27.872  17.105  10.600
92997W        W93861  28.283  14.935   8.062
92998W        W93862  25.672  14.591   7.667
92999W        W93863  26.991  17.248   9.872
93000W        W93864  26.646  16.895   9.190
93001W        W93865  26.576  17.147   7.331
93002W        W93866  25.667  17.531   8.202
93003W        W93867  26.303  16.184  10.663
93004W        W93868  26.884  14.932  10.776
93005W        W93869  27.581  14.918  10.059
93006W        W93870  26.919  14.727   8.615
93007W        W93871  27.812  14.798   7.865
93008W        W93872  25.929  14.776   9.521
93009W        W93873  25.626  15.522   9.020
93010W        W93874  28.575  14.694   9.237
93011W        W93875  26.125  15.263   8.253
93012W        W93876  28.523  15.053   9.704
93013W        W93877  28.839  16.236   7.439
93014W        W93878  26.378  15.069   9.260
93015W        W93879  27.408  15.597  10.129
93016W        W93880  25.619  15.091   7.692
93017W        W93881  26.346  16.660  10.418
93018W        W93882  27.680  16.164   9.344
93019W        W93883  27.339  18.029   7.624
93020W        W93884  25.592  16.524   7.317
93021W        W93885  26.543  17.098  10.591
93022W        W93886  26.046  16.191  10.205
93023W        W93887  26.974  16.474   9.900
93024W        W93888  28.497  14.649  10.064
93025W        W93889   0.127  16.439  10.260
93026W        W93890  28.967  16.504   7.872
93027W        W93891  27.754  16.846   8.148
93028W        W93892  28.391  18.214   7.436
93029W        W93893  27.600  16.252  10.899
93030W        W93894  26.082  17.107  10.822
93031W        W93895   0.065  15.201  10.686
93032W        W93896  28.733  15.933   9.464
93033W        W93897  26.932  18.032  10.909
93034W        W93898  28.572  17.264   7.606
93035W        W93899  26.464  15.454  10.540
93036W        W93900  26.976  17.369  10.399
93037W        W93901  28.881  15.251  10.037
93038W        W93902  28.148  18.227   8.000
93039W        W93903  28.358  16.855   9.443
93040W        W93904  26.616  15.140  10.142
93041W        W93905  27.130  16.178  10.719
93042W        W93906  26.403  17.219   8.254
93043W        W93907  28.252  16.774   8.294
93044W        W93908  26.152  15.367  10.137
93045W        W93909  27.334  17.460   8.616
93046W        W93910   0.181  16.100   8.779
93047W        W93911  27.203  14.778  10.398
93048W        W93912  28.335  17.370   9.423
93049W        W93913  28.578  17.794   9.243
93050W        W93914  27.607  17.558   7.478
93051W        W93915  25.719  17.378  10.550
93052W        W93916  26.514  15.503   9.774
93053W        W93917  26.461  14.751   8.860
93054W        W93918  28.053  15.201   9.507
93055W        W93919  26.932  16.759   7.529
93056W        W93920  28.771  16.721   9.149
93057W        W93921  26.225  17.542  10.544
93058W        W93922  28.575  18.227   8.345
93059W        W93923  26.786  15.168   8.902
93060W        W93924  26.234  16.628   9.024
93061W        W93925  26.718  18.287   9.666
93062W        W93926  28.613  18.237  10.608
93063W        W93927  28.032  16.447   9.607
93064W        W93928  25.799  15.747   7.183
93065W        W93929  28.896  17.808   8.321
93066W        W93930  28.652  15.182   7.784
93067W        W93931  26.729  14.639  10.175
93068W        W93932  28.693  17.515   8.753
93069W        W93933  28.651  16.091   8.607
93070W        W93934  26.983  15.686   8.885
93071W        W93935  27.116  16.032  10.191
93072W        W93936  28.159  17.125  10.170
93073W        W93937  26.871  15.578  10.197
93074W        W93938  26.696  18.053   8.840
93075W        W93939  25.968  18.256  10.672
93076W        W93940  26.289  17.608   7.281
93077W        W93941  28.678  17.034   8.502
93078W        W93942  26.418  15.836  10.158
93079W        W93943  28.997  15.792   7.636
93080W        W93944  26.975  16.890   8.364
93081W        W93945  28.028  16.295  10.144
93082W        W93946  27.880  15.974   9.798
93083W        W93947  26.341  16.270   9.806
93084W        W93948  28.500  18.019   9.709
93085W        W93949  28.216  14.908  10.720
93086W        W93950  25.929  14.896  10.512
93087W        W93951  26.460  15.972   9.380
93088W        W93952  26.843  15.578   7.449
93089W        W93953  25.613  17.500  10.060
93090W        W93954  27.211  16.339   9.476
93091W        W93955  26.940  15.032   7.468
93092W        W93956  26.340  16.240   8.694
93093W        W93957  25.775  18.042   9.850
93094W        W93958  28.499  16.342   7.812
93095W        W93959  28.617  15.058  10.441
93096W        W93960  28.197  17.234   8.560
93097W        W93961  25.772  16.190  10.626
93098W        W93962  28.671  14.650   7.755
93099W        W93963  28.193  17.173   7.976
93100W        W93964  27.344  16.250   8.145
93101W        W93965  28.227  14.884   7.566
93102W        W93966  28.354  15.595   9.624
93103W        W93967  25.743  16.030   9.033
93104W        W93968  26.468  17.146   8.765
93105W        W93969  28.210  15.774   8.596
93106W        W93970  27.143  15.351   9.260
93107W        W93971   0.109  17.164   9.842
93108W        W93972  28.993  15.004   9.317
93109W        W93973  25.673  17.993   8.942
93110W        W93974  25.846  17.033   8.287
93111W        W93975  25.993  14.917  11.101
93112W        W93976  27.166  17.560  10.910
93113W        W93977  28.966  16.590   8.697
93114W        W93978  28.224  16.745   7.673
93115W        W93979  27.504  18.042   9.847
93116W        W93980  28.311  16.950  10.848
93117W        W93981  27.102  14.564   8.074
93118W        W93982  28.035  15.501   9.000
93119W        W93983  25.663  17.139   9.277
93120W        W93984  27.051  15.061   8.227
93121W        W93985  26.804  16.599  10.669
93122W        W93986  27.732  15.572   8.563
93123W        W93987  27.969  17.106   9.695
93124W        W93988  26.128  17.588  10.028
93125W        W93989  26.681  17.567  10.785
93126W        W93990  26.645  15.148   7.874
93127W        W93991  28.017  15.638   8.000
93128W        W93992  27.964  17.596  10.295
93129W        W93993  26.759  16.199   9.009
93130W        W93994  26.296  18.007   9.764
93131W        W93995  28.894  18.016   7.441
93132W        W93996  25.850  16.706  10.546
93133W        W93997  27.916  16.925   9.205
93134W        W93998  26.224  16.751   8.508
93135W        W93999  26.673  17.638   9.757
93136W        W94000  27.264  14.965   8.943
93137W        W94001  25.601  16.773   7.805
93138W        W94002  27.328  15.821   7.439
93139W        W94003  25.847  16.443   8.716
93140W        W94004  27.106  15.103   9.999
93141W        W94005  28.663  14.897   7.300
93142W        W94006  28.908  16.624  10.673
93143W        W94007  27.469  17.959  10.832
93144W        W94008   0.086  16.982  10.334
93145W        W94009  28.568  17.680  10.931
93146W        W94010  26.390  18.224   9.271
93147W        W94011   0.084  16.855   8.258
93148W        W94012  27.789  16.048   8.836
93149W        W94013  27.407  14.731   8.491
93150W        W94014  26.493  17.650   8.563
93151W        W94015  27.020  15.531   9.720
93152W        W94016  26.864  14.724   9.177
93153W        W94017  25.746  17.727   7.734
93154W        W94018  27.434  16.903   8.620
93155W        W94019  26.612  17.763  10.274
93156W        W94020  25.802  16.497   8.202
93157W        W94021  25.879  15.106   9.122
93158W        W94022  27.402  17.006   9.151
93159W        W94023  25.738  14.923   8.160
93160W        W94024  28.385  16.101   9.832
93161W        W94025  28.219  15.390   7.571
93162W        W94026  28.806  17.156   9.402
93163W        W94027  27.345  17.508   9.131
93164W        W94028  26.689  17.829   8.087
93165W        W94029  27.858  14.572   7.382
93166W        W94030  25.957  17.979   9.361
93167W        W94031  27.851  15.777  10.921
93168W        W94032  26.004  15.346  10.805
93169W        W94033  25.971  15.691   8.683
93170W        W94034  27.063  15.907   7.874
93171W        W94035  28.040  16.178  10.633
93172W        W94036  26.687  16.454   9.464
93173W        W94037  27.909  14.737   8.373
93174W        W94038  27.221  17.995   8.972
93175W        W94039  28.279  17.560   9.884
93176W        W94040  28.186  17.571   8.972
93177W        W94041  27.954  16.796   8.710
93178W        W94042  27.335  14.924   7.786
93179W        W94043   0.021  14.675   8.445
93180W        W94044  26.839  16.095   7.392
93181W        W94045  28.874  15.636   8.551
93182W        W94046  27.679  16.569   7.694
93183W        W94047  28.587  16.922  10.362
93184W        W94048  28.116  17.402   7.372
93185W        W94049  26.967  15.427  10.680
93186W        W94050  26.775  15.988   9.808
93187W        W94051  28.761  17.403  10.239
93188W        W94052  27.948  15.175  10.342
93189W        W94053  25.613  15.872  10.229
93190W        W94054  27.505  16.344   9.918
93191W        W94055  25.866  16.974   8.816
93192W        W94056  26.012  16.251   9.403
93193W        W94057  28.325  16.685   9.942
93194W        W94058  28.122  18.033  10.589
93195W        W94059  27.859  15.685  10.408
93196W        W94060  28.313  17.832   8.546
93197W        W94061  27.327  17.598  10.075
93198W        W94062  26.798  17.881   9.312
93199W        W94063  28.560  17.131   9.847
93200W        W94064  27.499  17.163  10.958
93201W        W94065  26.178  17.122   9.215
93202W        W94066  28.454  16.653   8.760
93203W        W94067  28.101  17.842   9.445
93204W        W94068  26.217  17.552   9.523
93205W        W94069  27.392  15.734  10.672
93206W        W94070  27.178  17.665   8.010
93207W        W94071  26.991  17.085  10.843
93208W        W94072  26.888  17.397   8.366
93209W        W94073  26.339  15.714   7.210
93210W        W94074  25.526  18.265  14.351
93211W        W94075  26.031  17.190  13.884
93212W        W94076  28.645  16.910  11.628
93213W        W94077  28.933  17.945  13.561
93214W        W94078  26.591  17.960  11.305
93215W        W94079  26.850  16.062  12.018
93216W        W94080  26.369  15.712  12.338
93217W        W94081  27.292  16.594  11.773
93218W        W94082  27.005  17.863  14.055
93219W        W94083  25.691  15.420  13.937
93220W        W94084  26.251  14.591  13.801
93221W        W94085  28.079  15.028  12.607
93222W        W94086  27.989  15.902  11.412
93223W        W94087  28.193  15.550  14.246
93224W        W94088  25.710  15.069  13.563
93225W        W94089  25.763  17.835  14.515
93226W        W94090  27.152  17.292  11.351
93227W        W94091  25.699  15.779  12.957
93228W        W94092  26.714  15.839  14.178
93229W        W94093  28.988  15.520  12.611
93230W        W94094  28.763  16.720  13.430
93231W        W94095  27.284  15.985  12.616
93232W        W94096  27.802  17.491  13.033
93233W        W94097  26.146  16.694  13.189
93234W        W94098  25.670  16.460  12.713
93235W        W94099  26.687  16.235  13.845
93236W        W94100  28.739  16.148  14.116
93237W        W94101  26.500  17.504  12.694
93238W        W94102  27.616  17.274  13.678
93239W        W94103  26.896  15.763  12.915
93240W        W94104  27.078  16.629  12.648
93241W        W94105  27.913  17.625  14.440
93242W        W94106  27.300  16.619  14.427
93243W        W94107  27.227  16.449  13.929
93244W        W94108  25.496  15.677  14.342
93245W        W94109  28.319  17.384  14.247
93246W        W94110  26.034  14.904  12.049
93247W        W94111  26.645  17.273  13.182
93248W        W94112  28.966  17.088  12.475
93249W        W94113  28.470  15.350  12.610
93250W        W94114  28.681  15.467  10.961
93251W        W94115   0.090  16.170  13.373
93252W        W94116  27.252  17.873  13.187
93253W        W94117  28.823  17.405  11.628
93254W        W94118  26.084  18.173  11.641
93255W        W94119  26.427  18.090  12.070
93256W        W94120  26.175  14.896  13.384
93257W        W94121  28.689  15.825  13.473
93258W        W94122  28.178  16.326  12.199
93259W        W94123  28.054  16.313  11.130
93260W        W94124  27.483  17.122  13.192
93261W        W94125  27.362  15.485  12.471
93262W        W94126  27.715  17.773  13.442
93263W        W94127  28.582  16.455  11.880
93264W        W94128  27.772  15.126  11.828
93265W        W94129  26.294  17.704  11.743
93266W        W94130  25.658  15.220  12.116
93267W        W94131  28.524  15.852  12.707
93268W        W94132  25.975  17.451  12.701
93269W        W94133  27.092  17.811  11.358
93270W        W94134  28.362  15.910  10.933
93271W        W94135  25.736  17.522  13.184
93272W        W94136  26.501  17.362  13.676
93273W        W94137  26.911  16.565  12.127
93274W        W94138  26.611  15.076  13.172
93275W        W94139  28.939  14.664  12.894
93276W        W94140  26.365  16.667  10.942
93277W        W94141  26.109  15.463  11.311
93278W        W94142  26.094  17.504  12.202
93279W        W94143  26.904  17.078  12.217
93280W        W94144  28.446  17.757  13.887
93281W        W94145  27.631  15.555  11.585
93282W        W94146  28.629  18.011  12.362
93283W        W94147  28.319  15.930  13.840
93284W        W94148   0.114  17.404  12.084
93285W        W94149  27.798  16.793  13.749
93286W        W94150  25.522  16.315  11.964
93287W        W94151  26.548  16.853  13.457
93288W        W94152  27.745  16.049  11.859
93289W        W94153  27.741  16.549  12.011
93290W        W94154  25.981  15.829  13.422
93291W        W94155  26.027  15.809  14.102
93292W        W94156  25.891  14.795  12.534
93293W        W94157  27.606  15.133  12.815
93294W        W94158  27.280  15.133  14.080
93295W        W94159  27.825  15.125  11.324
93296W        W94160  28.930  17.795  14.047
93297W        W94161  27.736  14.787  14.118
93298W        W94162  28.699  17.046  14.342
93299W        W94163  28.271  15.337  13.803
93300W        W94164  28.164  15.275  12.157
93301W        W94165  28.509  16.462  14.439
93302W        W94166  26.235  17.890  12.513
93303W        W94167  27.131  15.566  11.543
93304W        W94168  26.438  14.908  14.207
93305W        W94169  28.587  15.569  11.870
93306W        W94170  28.835  15.996  11.701
93307W        W94171  26.614  18.086  14.328
93308W        W94172  26.628  14.585  11.580
93309W        W94173  28.897  15.008  12.526
93310W        W94174   0.023  17.465  11.132
93311W        W94175  26.172  16.539  12.710
93312W        W94176  27.830  15.247  10.828
93313W        W94177  28.956  17.644  12.773
93314W        W94178  28.798  14.854  13.349
93315W        W94179  27.531  16.037  14.047
93316W        W94180  27.401  17.109  11.779
93317W        W94181  27.778  16.742  14.619
93318W        W94182  27.716  14.677  12.577
93319W        W94183  26.150  15.596  12.806
93320W        W94184  25.907  16.744  13.644
93321W        W94185  27.689  17.983  12.430
93322W        W94186  28.592  15.469  13.095
93323W        W94187  27.634  18.012  13.888
93324W        W94188  28.742  16.772  11.126
93325W        W94189  27.334  16.254  12.172
93326W        W94190  28.992  14.741  13.826
93327W        W94191  27.330  16.784  13.539
93328W        W94192  27.561  15.629  12.935
93329W        W94193  28.313  15.992  11.815
93330W        W94194  28.504  15.757  11.396
93331W        W94195  28.434  17.677  11.985
93332W        W94196  28.324  17.050  12.673
93333W        W94197  28.079  16.403  11.653
93334W        W94198  27.577  16.494  12.566
93335W        W94199  28.507  16.358  12.619
93336W        W94200  25.919  15.355  13.190
93337W        W94201  28.605  16.295  13.641
93338W        W94202  28.943  18.099  13.066
93339W        W94203  26.976  17.533  12.526
93340W        W94204  28.107  18.056  13.646
93341W        W94205  27.834  15.318  13.484
93342W        W94206  27.241  18.191  13.596
93343W        W94207  28.746  15.083  11.922
93344W        W94208  28.661  16.297  13.113
93345W        W94209  25.521  15.560  13.451
93346W        W94210  28.677  15.624  14.023
93347W        W94211  27.799  17.267  12.559
93348W        W94212  27.147  17.864  12.173
93349W        W94213  26.364  15.036  11.500
93350W        W94214  27.459  14.706  13.084
93351W        W94215  26.127  18.108  11.138
93352W        W94216  26.816  16.447  11.628
93353W        W94217  27.371  16.962  14.028
93354W        W94218  27.273  15.230  11.980
93355W        W94219  28.457  14.873  12.303
93356W        W94220  28.092  18.224  12.673
93357W        W94221  27.662  18.046  12.942
93358W        W94222  26.989  16.880  13.142
93359W        W94223  28.671  17.626  13.273
93360W        W94224  26.507  15.109  12.022
93361W        W94225  27.099  17.413  13.018
93362W        W94226  26.477  15.226  11.006
93363W        W94227  27.257  15.823  13.292
93364W        W94228  27.965  14.845  13.074
93365W        W94229  25.649  16.602  13.218
93366W        W94230  27.154  16.317  11.224
93367W        W94231  26.500  14.729  11.081
93368W        W94232  27.273  15.746  12.040
93369W        W94233  28.009  14.871  13.686
93370W        W94234  26.896  16.846  13.835
93371W        W94235  27.746  16.510  14.160
93372W        W94236  28.246  16.415  14.010
93373W        W94237  27.417  14.803  14.513
93374W        W94238  26.592  15.370  12.728
93375W        W94239  26.153  15.243  12.411
93376W        W94240  25.932  17.983  12.102
93377W        W94241  27.455  17.557  14.165
93378W        W94242  26.423  16.818  11.513
93379W        W94243  28.027  16.385  12.790
93380W        W94244  28.042  15.874  12.915
93381W        W94245  27.412  16.631  13.040
93382W        W94246  27.985  17.202  11.181
93383W        W94247  27.671  15.120  12.314
93384W        W94248   0.063  15.477  11.686
93385W        W94249  25.743  17.968  13.941
93386W        W94250  26.075  17.165  13.371
93387W        W94251  25.579  18.116  11.759
93388W        W94252  27.379  15.213  13.267
93389W        W94253  26.684  17.483  11.455
93390W        W94254  28.632  17.866  11.476
93391W        W94255  27.626  16.377  11.425
93392W        W94256  26.799  15.531  11.936
93393W        W94257  27.442  15.433  11.104
93394W        W94258  27.817  17.163  14.184
93395W        W94259  28.271  14.981  11.740
93396W        W94260  25.460  14.926  11.304
93397W        W94261  27.061  17.232  13.501
93398W        W94262  26.806  17.090  12.722
93399W        W94263  26.541  17.141  11.103
93400W        W94264  25.768  17.585  11.811
93401W        W94265  26.329  16.225  14.229
93402W        W94266  26.930  14.824  14.362
93403W        W94267  27.513  14.896  13.655
93404W        W94268  26.931  14.768  12.091
93405W        W94269  27.735  14.673  11.603
93406W        W94270  25.750  14.872  13.098
93407W        W94271  25.810  15.621  12.418
93408W        W94272  28.507  14.939  12.909
93409W        W94273  26.104  15.427  11.913
93410W        W94274  28.325  15.110  13.356
93411W        W94275  28.891  16.237  11.073
93412W        W94276  26.191  15.038  12.880
93413W        W94277  27.383  15.499  13.708
93414W        W94278  25.620  15.398  11.166
93415W        W94279  26.366  16.636  13.896
93416W        W94280  27.600  16.157  12.980
93417W        W94281  27.506  18.125  11.348
93418W        W94282  25.862  16.493  11.032
93419W        W94283  26.520  17.081  14.100
93420W        W94284  26.034  16.238  13.777
93421W        W94285  26.918  16.471  13.461
93422W        W94286  28.494  14.831  13.772
93423W        W94287   0.061  16.448  13.799
93424W        W94288  28.942  16.501  11.520
93425W        W94289  27.806  16.850  11.562
93426W        W94290  28.406  18.158  11.077
93427W        W94291  27.600  16.200  14.535
93428W        W94292  26.117  17.205  14.400
93429W        W94293   0.193  15.226  14.351
93430W        W94294  28.939  15.849  13.005
93431W        W94295  27.097  18.029  14.531
93432W        W94296  26.996  14.749  11.254
93433W        W94297  28.530  17.245  11.222
93434W        W94298  26.369  15.423  14.103
93435W        W94299  26.991  17.352  13.981
93436W        W94300  28.743  15.305  13.592
93437W        W94301  28.176  18.179  11.537
93438W        W94302  28.329  16.715  13.064
93439W        W94303  26.526  15.066  13.723
93440W        W94304  27.117  16.130  14.333
93441W        W94305  26.501  17.219  11.859
93442W        W94306  28.205  16.825  11.910
93443W        W94307  26.121  15.378  13.658
93444W        W94308  27.370  17.367  12.239
93445W        W94309   0.236  16.075  12.409
93446W        W94310  27.261  14.626  14.034
93447W        W94311  28.296  17.443  12.986
93448W        W94312  28.516  17.905  12.847
93449W        W94313  27.590  17.615  11.223
93450W        W94314  25.669  17.402  14.212
93451W        W94315  26.419  15.568  13.251
93452W        W94316  26.520  14.891  12.502
93453W        W94317  28.058  15.359  13.007
93454W        W94318  26.844  16.726  11.185
93455W        W94319  28.792  16.729  12.818
93456W        W94320  26.106  17.650  14.120
93457W        W94321  28.551  18.222  11.900
93458W        W94322  26.905  15.216  12.346
93459W        W94323  26.595  16.689  12.501
93460W        W94324  26.827  18.222  13.285
93461W        W94325  28.587  18.055  14.324
93462W        W94326  27.846  16.540  13.281
93463W        W94327  25.967  15.871  10.990
93464W        W94328  28.910  17.846  11.922
93465W        W94329  28.637  15.262  11.445
93466W        W94330  26.762  14.620  13.911
93467W        W94331  28.562  17.484  12.489
93468W        W94332  28.673  16.082  12.216
93469W        W94333  26.889  15.719  12.409
93470W        W94334  27.104  15.951  13.779
93471W        W94335  28.195  17.127  13.819
93472W        W94336  26.838  15.495  13.814
93473W        W94337  26.737  18.007  12.486
93474W        W94338  26.110  18.142  14.269
93475W        W94339  26.274  17.596  11.107
93476W        W94340  28.649  17.191  12.060
93477W        W94341  26.403  15.818  13.738
93478W        W94342   0.004  15.772  11.266
93479W        W94343  26.912  16.952  11.680
93480W        W94344  27.873  16.244  13.717
93481W        W94345  27.758  15.865  13.368
93482W        W94346  26.396  16.312  13.419
93483W        W94347  28.513  18.171  13.335
93484W        W94348  28.223  15.010  14.195
93485W        W94349  25.947  14.964  14.024
93486W        W94350  26.445  16.031  12.950
93487W        W94351  27.014  15.781  11.050
93488W        W94352  25.611  17.499  13.706
93489W        W94353  27.073  16.242  13.030
93490W        W94354  26.972  15.251  11.169
93491W        W94355  26.408  16.256  12.268
93492W        W94356  25.762  18.041  13.424
93493W        W94357  28.494  16.278  11.386
93494W        W94358  28.744  15.124  14.111
93495W        W94359  28.170  17.260  12.208
93496W        W94360  25.743  16.231  14.214
93497W        W94361  28.722  14.742  11.424
93498W        W94362  28.275  17.282  11.666
93499W        W94363  27.252  16.093  11.676
93500W        W94364  28.294  14.953  11.223
93501W        W94365  28.218  15.652  13.403
93502W        W94366  26.034  16.055  12.595
93503W        W94367  26.413  17.142  12.358
93504W        W94368  28.223  15.796  12.277
93505W        W94369  27.086  15.272  12.847
93506W        W94370   0.001  17.193  13.400
93507W        W94371   0.016  15.189  13.017
93508W        W94372  25.705  17.890  12.552
93509W        W94373  25.989  17.096  11.902
93510W        W94374  26.029  14.911  14.536
93511W        W94375  27.029  17.508  14.488
93512W        W94376  28.971  16.520  12.379
93513W        W94377  28.257  16.762  11.324
93514W        W94378  27.717  18.296  13.400
93515W        W94379  28.205  16.850  14.292
93516W        W94380  27.170  14.523  11.688
93517W        W94381  27.897  15.516  12.559
93518W        W94382  25.766  17.029  12.938
93519W        W94383  26.870  15.069  11.659
93520W        W94384  26.800  16.531  14.240
93521W        W94385  27.759  15.586  12.080
93522W        W94386  27.979  17.072  13.335
93523W        W94387  26.077  17.663  13.602
93524W        W94388  26.597  17.570  14.225
93525W        W94389  26.612  15.484  11.450
93526W        W94390  28.131  15.477  11.671
93527W        W94391  27.939  17.598  13.922
93528W        W94392  26.801  16.199  12.587
93529W        W94393  26.353  18.020  13.343
93530W        W94394  28.902  18.057  11.064
93531W        W94395  25.913  16.736  14.165
93532W        W94396  27.841  16.873  12.880
93533W        W94397  26.374  16.736  12.038
93534W        W94398  26.815  17.717  13.464
93535W        W94399  27.241  14.874  12.519
93536W        W94400  25.692  16.859  11.401
93537W        W94401  27.475  15.912  11.255
93538W        W94402  25.925  16.453  12.262
93539W        W94403  27.018  15.004  13.613
93540W        W94404  28.735  14.908  10.941
93541W        W94405  28.971  16.619  14.280
93542W        W94406  27.603  18.033  14.407
93543W        W94407   0.069  16.943  13.841
93544W        W94408  28.758  17.559  14.463
93545W        W94409  26.435  18.210  12.878
93546W        W94410   0.047  16.849  11.971
93547W        W94411  27.773  16.024  12.425
93548W        W94412  27.463  14.732  12.060
93549W        W94413  26.605  17.609  12.180
93550W        W94414  26.923  15.444  13.321
93551W        W94415  26.966  14.773  12.957
93552W        W94416  25.737  17.818  11.351
93553W        W94417  27.361  16.830  12.235
93554W        W94418  26.485  17.882  13.839
93555W        W94419  25.958  16.585  11.756
93556W        W94420  25.708  15.239  12.731
93557W        W94421  27.334  17.077  12.697
93558W        W94422  25.850  15.101  11.592
93559W        W94423  28.207  16.169  13.325
93560W        W94424  28.185  15.453  11.150
93561W        W94425  28.747  17.214  12.944
93562W        W94426  27.443  17.624  12.702
93563W        W94427  26.799  17.893  11.781
93564W        W94428  27.888  14.662  11.055
93565W        W94429  25.972  17.947  12.963
93566W        W94430  27.698  15.642  14.387
93567W        W94431  25.946  15.411  14.418
93568W        W94432  25.750  15.829  11.951
93569W        W94433  26.795  15.962  11.476
93570W        W94434  28.008  16.037  14.253
93571W        W94435  26.627  16.538  12.999
93572W        W94436  27.986  14.741  12.122
93573W        W94437  27.210  18.088  12.669
93574W        W94438  28.185  17.544  13.480
93575W        W94439  28.093  17.706  12.594
93576W        W94440  27.993  16.777  12.396
93577W        W94441  27.355  15.046  11.496
93578W        W94442   0.030  14.693  12.104
93579W        W94443  26.692  16.224  11.015
93580W        W94444   0.001  15.707  12.134
93581W        W94445  27.343  16.818  11.324
93582W        W94446  28.602  16.764  13.928
93583W        W94447  28.185  17.676  11.290
93584W        W94448  26.827  15.310  14.288
93585W        W94449  26.766  15.957  13.382
93586W        W94450  28.698  17.307  13.846
93587W        W94451  27.782  15.265  14.010
93588W        W94452  25.629  15.911  13.805
93589W        W94453  27.415  16.279  13.464
93590W        W94454  25.945  16.955  12.443
93591W        W94455  25.976  16.218  13.084
93592W        W94456  28.256  16.667  13.561
93593W        W94457  28.091  18.034  14.168
93594W        W94458  27.868  15.720  13.840
93595W        W94459  28.125  18.083  12.157
93596W        W94460  27.282  17.669  13.678
93597W        W94461  26.785  17.825  12.960
93598W        W94462  28.483  17.136  13.384
93599W        W94463  27.430  17.139  14.537
93600W        W94464  26.294  17.051  12.858
93601W        W94465  28.529  16.761  12.304
93602W        W94466  28.106  17.922  13.136
93603W        W94467  26.256  17.572  13.128
93604W        W94468  27.209  15.644  14.192
93605W        W94469  27.421  17.702  11.738
93606W        W94470  26.967  17.008  14.348
93607W        W94471  26.998  17.435  11.866
93608W        W94472  26.476  15.740  10.998
93609W        W94473  25.567  18.175  18.072
93610W        W94474  25.961  17.067  17.505
93611W        W94475  28.620  16.830  15.238
93612W        W94476  28.818  17.983  17.363
93613W        W94477  26.635  18.002  14.851
93614W        W94478  26.838  16.138  15.594
93615W        W94479  26.347  15.897  16.115
93616W        W94480  27.257  16.406  15.331
93617W        W94481  27.167  17.970  17.602
93618W        W94482  25.681  15.298  17.552
93619W        W94483  26.288  14.482  17.443
93620W        W94484  28.132  15.046  16.153
93621W        W94485  27.885  15.881  14.841
93622W        W94486  28.292  15.425  17.884
93623W        W94487  25.780  14.981  17.152
93624W        W94488  25.842  17.722  18.115
93625W        W94489  27.017  17.192  14.924
93626W        W94490  25.800  15.661  16.602
93627W        W94491  26.807  15.926  17.754
93628W        W94492  28.876  15.589  16.294
93629W        W94493  28.811  16.720  17.230
93630W        W94494  27.339  15.945  16.180
93631W        W94495  27.767  17.450  16.696
93632W        W94496  26.027  16.589  16.763
93633W        W94497  25.544  16.110  16.498
93634W        W94498  26.712  16.294  17.382
93635W        W94499  28.821  16.084  17.852
93636W        W94500  26.460  17.400  16.261
93637W        W94501  27.572  17.270  17.151
93638W        W94502  26.975  15.663  16.458
93639W        W94503  27.112  16.580  16.299
93640W        W94504  28.001  17.627  18.152
93641W        W94505  27.261  16.723  18.004
93642W        W94506  27.166  16.547  17.518
93643W        W94507  25.619  15.613  17.951
93644W        W94508  28.351  17.381  17.817
93645W        W94509  26.007  14.726  15.733
93646W        W94510  26.746  17.276  16.675
93647W        W94511  28.913  17.074  16.123
93648W        W94512  28.461  15.329  16.486
93649W        W94513  28.714  15.432  14.541
93650W        W94514   0.145  16.110  17.034
93651W        W94515  27.069  17.994  16.770
93652W        W94516  28.790  17.386  15.292
93653W        W94517  26.067  18.177  15.328
93654W        W94518  26.421  18.113  15.716
93655W        W94519  26.402  14.870  17.042
93656W        W94520  28.792  15.778  17.256
93657W        W94521  28.176  16.306  15.736
93658W        W94522  28.079  16.328  14.678
93659W        W94523  27.494  17.017  16.696
93660W        W94524  27.271  15.449  16.071
93661W        W94525  27.863  17.703  17.163
93662W        W94526  28.651  16.474  15.629
93663W        W94527  27.695  15.117  15.393
93664W        W94528  26.236  17.697  15.438
93665W        W94529  25.748  15.179  15.827
93666W        W94530  28.359  15.818  16.267
93667W        W94531  25.927  17.453  16.376
93668W        W94532  27.046  17.727  14.980
93669W        W94533  28.467  15.921  14.498
93670W        W94534  25.746  17.474  16.886
93671W        W94535  26.521  17.209  17.164
93672W        W94536  26.816  16.650  15.875
93673W        W94537  26.895  15.018  16.894
93674W        W94538  28.993  14.631  16.250
93675W        W94539  26.384  16.737  14.459
93676W        W94540  26.027  15.481  14.929
93677W        W94541  26.107  17.456  15.887
93678W        W94542  26.830  17.179  15.913
93679W        W94543  28.446  18.054  17.721
93680W        W94544  27.660  15.437  14.954
93681W        W94545  28.643  18.059  16.056
93682W        W94546  28.385  15.890  17.641
93683W        W94547   0.090  17.333  15.721
93684W        W94548  27.824  16.777  17.303
93685W        W94549  25.588  16.340  15.591
93686W        W94550  26.500  16.815  16.833
93687W        W94551  27.901  16.032  15.358
93688W        W94552  27.734  16.506  15.536
93689W        W94553  26.137  15.785  16.968
93690W        W94554  26.060  15.677  17.530
93691W        W94555  26.056  14.739  16.224
93692W        W94556  27.712  15.184  16.419
93693W        W94557  27.582  15.233  17.676
93694W        W94558  28.016  15.053  15.011
93695W        W94559  28.788  17.666  17.785
93696W        W94560  27.787  14.722  17.784
93697W        W94561  28.835  17.161  17.994
93698W        W94562  28.429  15.425  17.393
93699W        W94563  28.121  15.247  15.654
93700W        W94564  28.446  16.414  18.114
93701W        W94565  26.233  17.872  16.203
93702W        W94566  27.157  15.466  15.072
93703W        W94567  26.441  14.862  17.760
93704W        W94568  28.551  15.535  15.454
93705W        W94569  28.905  15.918  15.347
93706W        W94570  26.596  18.137  17.931
93707W        W94571  26.613  14.595  15.167
93708W        W94572  28.814  15.090  16.114
93709W        W94573   0.078  17.479  14.861
93710W        W94574  25.716  16.572  16.306
93711W        W94575  27.828  15.144  14.524
93712W        W94576  28.952  17.713  16.296
93713W        W94577  28.913  14.800  17.062
93714W        W94578  27.643  15.991  17.610
93715W        W94579  27.429  16.918  15.437
93716W        W94580  27.975  16.642  18.182
93717W        W94581  27.661  14.740  16.172
93718W        W94582  26.287  15.503  16.442
93719W        W94583  25.762  16.677  17.212
93720W        W94584  27.747  17.970  16.132
93721W        W94585  28.904  15.446  16.828
93722W        W94586  27.631  18.119  17.452
93723W        W94587  28.814  16.698  14.763
93724W        W94588  27.247  16.336  15.839
93725W        W94589   0.039  14.810  17.557
93726W        W94590  27.350  16.797  17.127
93727W        W94591  27.480  15.615  16.559
93728W        W94592  28.410  16.026  15.365
93729W        W94593  28.584  15.728  14.971
93730W        W94594  28.371  17.550  15.579
93731W        W94595  28.257  17.104  16.442
93732W        W94596  28.165  16.449  15.208
93733W        W94597  27.585  16.398  16.213
93734W        W94598  28.622  16.280  16.309
93735W        W94599  26.095  15.275  16.855
93736W        W94600  28.534  16.398  17.576
93737W        W94601  28.968  18.008  16.713
93738W        W94602  26.948  17.566  16.269
93739W        W94603  28.124  18.141  17.279
93740W        W94604  27.993  15.349  17.076
93741W        W94605  27.197  18.299  17.199
93742W        W94606  28.804  15.115  15.588
93743W        W94607  28.711  16.381  16.867
93744W        W94608  25.694  15.502  17.074
93745W        W94609  28.484  15.431  15.959
93746W        W94610  28.807  15.578  17.745
93747W        W94611  27.739  17.144  16.244
93748W        W94612  27.078  17.810  15.823
93749W        W94613  26.170  14.983  15.023
93750W        W94614  27.410  14.740  16.628
93751W        W94615  26.135  18.131  14.804
93752W        W94616  26.768  16.466  15.179
93753W        W94617  27.463  17.007  17.597
93754W        W94618  27.258  15.297  15.573
93755W        W94619  28.472  14.817  15.847
93756W        W94620  28.180  18.195  16.308
93757W        W94621  27.564  17.920  16.664
93758W        W94622  27.009  16.819  16.739
93759W        W94623  28.721  17.631  16.982
93760W        W94624  26.432  14.942  15.496
93761W        W94625  27.229  17.490  16.719
93762W        W94626  26.409  15.271  14.609
93763W        W94627  27.394  15.954  16.934
93764W        W94628  27.978  14.746  16.583
93765W        W94629  25.499  16.579  16.794
93766W        W94630  27.185  16.300  14.826
93767W        W94631  26.526  14.785  14.697
93768W        W94632  27.248  15.828  15.684
93769W        W94633  28.104  14.841  17.071
93770W        W94634  26.795  16.778  17.247
93771W        W94635  27.650  16.511  17.726
93772W        W94636  28.129  16.700  17.704
93773W        W94637  27.413  14.804  18.183
93774W        W94638  26.749  15.249  16.257
93775W        W94639  26.241  15.218  15.997
93776W        W94640  25.899  17.927  15.806
93777W        W94641  27.554  17.571  17.597
93778W        W94642  26.554  16.968  15.063
93779W        W94643  28.101  16.301  16.247
93780W        W94644  28.262  16.092  16.686
93781W        W94645  27.454  16.486  16.716
93782W        W94646  28.052  17.187  14.674
93783W        W94647  27.667  15.168  15.898
93784W        W94648   0.083  15.441  15.301
93785W        W94649  25.764  17.947  17.646
93786W        W94650  26.044  17.057  16.997
93787W        W94651  25.574  18.065  15.426
93788W        W94652  27.536  15.175  16.902
93789W        W94653  26.582  17.510  15.067
93790W        W94654  28.571  17.878  15.194
93791W        W94655  27.677  16.366  15.019
93792W        W94656  26.838  15.597  15.454
93793W        W94657  27.322  15.310  14.571
93794W        W94658  27.871  17.119  17.927
93795W        W94659  28.390  14.932  15.346
93796W        W94660  25.767  14.604  14.875
93797W        W94661  27.048  17.195  17.092
93798W        W94662  26.686  16.892  16.333
93799W        W94663  26.591  17.228  14.615
93800W        W94664  25.701  17.541  15.495
93801W        W94665  26.342  16.167  17.716
93802W        W94666  26.918  14.725  17.987
93803W        W94667  27.659  14.879  17.308
93804W        W94668  26.911  14.681  15.661
93805W        W94669  27.746  14.655  15.199
93806W        W94670  25.984  14.792  16.730
93807W        W94671  25.886  15.621  16.089
93808W        W94672  28.494  14.687  16.440
93809W        W94673  26.092  15.317  15.448
93810W        W94674  28.515  15.125  16.980
93811W        W94675  28.940  16.173  14.616
93812W        W94676  26.409  15.002  16.533
93813W        W94677  27.497  15.582  17.279
93814W        W94678  25.660  15.122  14.840
93815W        W94679  26.274  16.639  17.261
93816W        W94680  27.748  16.062  16.564
93817W        W94681  27.407  18.120  14.941
93818W        W94682  25.626  16.552  14.602
93819W        W94683  26.575  17.417  17.628
93820W        W94684  26.012  16.173  17.316
93821W        W94685  27.055  16.388  17.021
93822W        W94686  28.511  14.784  17.417
93823W        W94687   0.084  16.387  17.494
93824W        W94688  28.934  16.431  15.175
93825W        W94689  27.863  16.855  15.123
93826W        W94690  28.371  18.147  14.772
93827W        W94691  27.612  16.288  18.192
93828W        W94692  26.169  17.319  17.923
93829W        W94693   0.156  15.106  18.006
93830W        W94694  28.754  15.913  16.676
93831W        W94695  27.097  18.157  18.081
93832W        W94696  27.005  14.655  14.842
93833W        W94697  28.648  17.183  14.830
93834W        W94698  26.535  15.477  17.701
93835W        W94699  27.062  17.484  17.499
93836W        W94700  28.901  15.258  17.330
93837W        W94701  28.183  18.279  15.233
93838W        W94702  28.330  16.620  16.634
93839W        W94703  26.705  15.106  17.378
93840W        W94704  27.243  16.188  17.865
93841W        W94705  26.492  17.236  15.514
93842W        W94706  28.208  16.811  15.560
93843W        W94707  26.197  15.217  17.364
93844W        W94708  27.315  17.325  15.840
93845W        W94709   0.080  16.044  16.067
93846W        W94710  27.287  14.759  17.651
93847W        W94711  28.256  17.473  16.847
93848W        W94712  28.510  17.824  16.527
93849W        W94713  27.473  17.637  14.710
93850W        W94714  25.646  17.304  17.873
93851W        W94715  26.581  15.452  16.967
93852W        W94716  26.541  14.809  16.032
93853W        W94717  28.003  15.602  16.603
93854W        W94718  26.862  16.701  14.733
93855W        W94719  28.806  16.750  16.508
93856W        W94720  26.240  17.798  17.737
93857W        W94721  28.612  18.261  15.567
93858W        W94722  26.797  15.183  15.760
93859W        W94723  26.243  16.555  16.280
93860W        W94724  26.701  18.253  17.023
93861W        W94725  28.935  18.155  17.851
93862W        W94726  27.934  16.420  16.913
93863W        W94727  25.852  15.906  14.621
93864W        W94728  28.829  17.781  15.656
93865W        W94729  28.694  15.211  15.025
93866W        W94730  26.804  14.598  17.440
93867W        W94731  28.564  17.491  16.063
93868W        W94732  28.621  15.984  15.837
93869W        W94733  26.817  15.684  15.963
93870W        W94734  27.167  16.024  17.389
93871W        W94735  28.212  17.163  17.343
93872W        W94736  26.934  15.568  17.386
93873W        W94737  26.725  18.004  16.142
93874W        W94738  26.101  18.164  18.091
93875W        W94739  26.279  17.675  14.620
93876W        W94740  28.621  17.092  15.695
93877W        W94741  26.493  15.839  17.330
93878W        W94742   0.091  15.720  14.849
93879W        W94743  26.913  16.913  15.433
93880W        W94744  28.020  16.287  17.419
93881W        W94745  27.911  15.896  17.066
93882W        W94746  26.406  16.241  16.963
93883W        W94747  28.533  18.136  16.962
93884W        W94748  28.270  14.806  17.927
93885W        W94749  25.931  14.835  17.628
93886W        W94750  26.554  15.922  16.583
93887W        W94751  26.837  15.655  14.665
93888W        W94752  25.612  17.472  17.386
93889W        W94753  27.094  16.142  16.574
93890W        W94754  26.887  15.144  14.774
93891W        W94755  26.408  16.330  15.847
93892W        W94756  25.787  17.953  17.137
93893W        W94757  28.533  16.255  14.914
93894W        W94758  28.677  15.089  17.798
93895W        W94759  28.166  17.183  15.936
93896W        W94760  25.845  16.064  17.807
93897W        W94761  28.737  14.675  15.032
93898W        W94762  28.271  17.202  15.182
93899W        W94763  27.437  15.906  15.198
93900W        W94764  28.370  14.889  14.683
93901W        W94765  28.403  15.638  16.924
93902W        W94766  25.890  16.153  16.054
93903W        W94767  26.362  16.965  15.950
93904W        W94768  28.151  15.773  15.750
93905W        W94769  27.194  15.182  16.503
93906W        W94770   0.067  17.128  17.056
93907W        W94771  28.854  14.996  16.604
93908W        W94772  25.605  17.870  16.249
93909W        W94773  26.004  17.074  15.568
93910W        W94774  26.050  14.926  18.265
93911W        W94775  27.219  17.707  18.325
93912W        W94776   0.006  16.562  16.048
93913W        W94777  28.305  16.770  14.822
93914W        W94778  27.719  18.314  16.971
93915W        W94779  28.389  16.929  18.099
93916W        W94780  27.234  14.569  15.283
93917W        W94781  27.785  15.633  16.121
93918W        W94782  25.705  17.015  16.601
93919W        W94783  26.930  15.014  15.269
93920W        W94784  26.954  17.011  17.679
93921W        W94785  27.695  15.597  15.581
93922W        W94786  28.003  17.007  16.886
93923W        W94787  26.121  17.518  17.300
93924W        W94788  26.883  17.709  17.933
93925W        W94789  26.540  15.332  15.116
93926W        W94790  28.090  15.561  15.231
93927W        W94791  27.995  17.808  17.671
93928W        W94792  26.828  16.169  16.131
93929W        W94793  26.314  17.919  17.047
93930W        W94794  28.869  17.977  14.768
93931W        W94795  25.958  16.562  17.680
93932W        W94796  27.861  16.715  16.490
93933W        W94797  26.417  16.717  15.503
93934W        W94798  26.803  17.646  17.049
93935W        W94799  27.178  14.934  16.041
93936W        W94800  25.520  16.835  15.017
93937W        W94801  27.325  15.807  14.707
93938W        W94802  25.972  16.611  15.816
93939W        W94803  27.212  15.140  17.306
93940W        W94804  28.869  14.923  14.604
93941W        W94805  28.898  16.612  17.928
93942W        W94806  27.579  17.959  17.998
93943W        W94807   0.101  16.959  17.577
93944W        W94808  28.512  17.781  18.208
93945W        W94809  26.325  18.225  16.628
93946W        W94810   0.045  16.811  15.576
93947W        W94811  27.713  16.068  15.837
93948W        W94812  27.488  14.708  15.690
93949W        W94813  26.595  17.633  15.818
93950W        W94814  27.123  15.488  16.920
93951W        W94815  26.893  14.747  16.435
93952W        W94816  25.874  17.764  15.048
93953W        W94817  27.412  16.819  15.949
93954W        W94818  26.667  17.908  17.463
93955W        W94819  25.923  16.624  15.294
93956W        W94820  25.851  15.188  16.377
93957W        W94821  27.169  17.109  16.317
93958W        W94822  25.753  14.930  15.332
93959W        W94823  28.409  16.102  17.166
93960W        W94824  28.218  15.439  14.741
93961W        W94825  28.724  17.322  16.545
93962W        W94826  27.464  17.570  16.275
93963W        W94827  26.760  17.909  15.384
93964W        W94828  27.904  14.648  14.694
93965W        W94829  25.953  17.883  16.645
93966W        W94830  27.797  15.655  18.009
93967W        W94831  26.088  15.267  17.868
93968W        W94832  25.711  15.844  15.650
93969W        W94833  26.929  15.954  15.091
93970W        W94834  28.035  16.162  17.914
93971W        W94835  26.674  16.427  16.560
93972W        W94836  28.000  14.719  15.666
93973W        W94837  27.227  18.035  16.278
93974W        W94838  28.369  17.682  17.346
93975W        W94839  28.089  17.600  16.317
93976W        W94840  27.930  16.715  15.980
93977W        W94841  27.386  14.988  14.993
93978W        W94842  28.986  14.652  15.735
93979W        W94843  26.700  16.177  14.631
93980W        W94844  28.954  15.584  15.784
93981W        W94845  27.351  16.778  14.935
93982W        W94846  28.576  16.908  17.630
93983W        W94847  28.352  17.616  14.770
93984W        W94848  27.012  15.198  17.792
93985W        W94849  26.858  15.920  16.987
93986W        W94850  28.735  17.321  17.402
93987W        W94851  28.075  15.084  17.541
93988W        W94852  25.587  15.815  17.455
93989W        W94853  27.545  16.336  17.233
93990W        W94854  25.885  17.019  16.097
93991W        W94855  26.071  16.114  16.546
93992W        W94856  28.310  16.651  17.178
93993W        W94857  28.083  18.135  18.063
93994W        W94858  27.959  15.602  17.521
93995W        W94859  28.190  18.050  15.797
93996W        W94860  27.342  17.768  17.148
93997W        W94861  26.611  17.802  16.597
93998W        W94862  28.542  17.041  16.929
93999W        W94863  27.628  17.418  18.446
94000W        W94864  26.205  17.027  16.491
94001W        W94865  28.458  16.734  16.077
94002W        W94866  28.069  17.963  16.763
94003W        W94867  26.267  17.469  16.777
94004W        W94868  27.280  15.656  17.758
94005W        W94869  27.343  17.852  15.390
94006W        W94870  27.283  17.320  17.975
94007W        W94871  26.970  17.438  15.443
94008W        W94872  26.341  15.770  14.522
94009W        W94873  25.574  18.292  21.685
94010W        W94874  26.040  17.166  21.252
94011W        W94875  28.690  16.857  18.904
94012W        W94876  28.922  17.891  20.941
94013W        W94877  26.792  18.009  18.460
94014W        W94878  27.680  16.357  19.634
94015W        W94879  26.528  15.843  20.019
94016W        W94880  27.375  16.856  18.861
94017W        W94881  27.103  17.867  21.440
94018W        W94882  25.625  15.407  21.245
94019W        W94883  26.227  14.462  21.154
94020W        W94884  28.109  15.014  19.935
94021W        W94885  28.030  15.828  18.784
94022W        W94886  28.217  15.506  21.592
94023W        W94887  25.766  15.023  20.920
94024W        W94888  25.818  17.849  21.802
94025W        W94889  27.412  17.368  18.924
94026W        W94890  25.685  15.860  20.301
94027W        W94891  26.693  15.873  21.550
94028W        W94892  28.844  15.586  19.991
94029W        W94893  28.788  16.659  20.874
94030W        W94894  27.325  16.169  19.972
94031W        W94895  27.772  17.466  20.301
94032W        W94896  26.311  16.830  20.537
94033W        W94897  25.623  16.357  20.178
94034W        W94898  26.728  16.345  21.333
94035W        W94899  28.786  16.051  21.541
94036W        W94900  26.481  17.687  20.121
94037W        W94901  27.630  17.253  21.069
94038W        W94902  26.969  15.811  20.344
94039W        W94903  27.161  16.654  20.142
94040W        W94904  27.975  17.593  21.779
94041W        W94905  27.320  16.625  21.851
94042W        W94906  27.260  16.472  21.332
94043W        W94907  25.505  15.763  21.582
94044W        W94908  28.383  17.357  21.457
94045W        W94909  25.971  14.747  19.484
94046W        W94910  26.546  17.286  20.498
94047W        W94911  28.937  17.097  19.789
94048W        W94912  28.554  15.166  20.152
94049W        W94913  28.690  15.405  18.241
94050W        W94914  28.983  16.176  20.747
94051W        W94915  27.297  17.851  20.519
94052W        W94916  28.823  17.368  18.913
94053W        W94917  26.066  18.338  18.909
94054W        W94918  26.406  18.181  19.297
94055W        W94919  26.225  14.774  20.739
94056W        W94920  28.735  15.747  20.931
94057W        W94921  28.166  16.348  19.474
94058W        W94922  28.064  16.191  18.426
94059W        W94923  27.379  17.339  20.621
94060W        W94924  27.368  15.366  19.674
94061W        W94925  27.767  17.662  20.786
94062W        W94926  28.614  16.423  19.194
94063W        W94927  27.715  15.178  19.081
94064W        W94928  26.160  17.791  19.069
94065W        W94929  25.556  15.080  19.680
94066W        W94930  28.352  15.667  20.103
94067W        W94931  25.939  17.581  20.007
94068W        W94932  27.169  17.819  18.828
94069W        W94933  28.465  15.893  18.190
94070W        W94934  25.656  17.601  20.437
94071W        W94935  26.368  17.393  20.947
94072W        W94936  26.903  16.770  19.718
94073W        W94937  26.657  15.003  20.577
94074W        W94938   0.177  14.630  19.871
94075W        W94939  26.447  16.913  17.654
94076W        W94940  25.911  15.425  18.335
94077W        W94941  25.864  17.625  19.499
94078W        W94942  27.160  17.196  19.841
94079W        W94943  28.494  17.815  21.237
94080W        W94944  27.698  15.516  18.526
94081W        W94945  28.611  18.080  19.703
94082W        W94946  28.380  15.898  21.284
94083W        W94947   0.084  17.371  19.376
94084W        W94948  27.735  16.738  21.054
94085W        W94949  25.508  16.246  19.313
94086W        W94950  26.666  16.932  20.898
94087W        W94951  27.802  16.092  19.181
94088W        W94952  27.750  16.628  19.195
94089W        W94953  26.034  15.899  20.685
94090W        W94954  26.013  15.851  21.449
94091W        W94955  25.993  14.693  19.992
94092W        W94956  27.634  15.159  20.088
94093W        W94957  27.350  15.207  21.537
94094W        W94958  27.807  15.010  18.595
94095W        W94959  28.954  17.751  21.463
94096W        W94960  27.858  14.688  21.436
94097W        W94961  28.802  17.125  21.714
94098W        W94962  28.334  15.396  21.103
94099W        W94963  28.167  15.131  19.351
94100W        W94964  28.375  16.429  21.785
94101W        W94965  26.197  17.946  19.735
94102W        W94966  27.196  15.476  18.611
94103W        W94967  26.510  14.981  21.475
94104W        W94968  28.500  15.514  19.178
94105W        W94969  28.831  15.939  18.983
94106W        W94970  26.641  18.094  21.657
94107W        W94971  26.467  14.607  18.822
94108W        W94972  28.896  15.057  19.733
94109W        W94973   0.068  17.503  18.323
94110W        W94974  25.978  16.711  20.137
94111W        W94975  27.888  15.133  18.092
94112W        W94976  28.954  17.535  20.100
94113W        W94977  28.808  14.851  20.582
94114W        W94978  27.560  16.020  21.361
94115W        W94979  27.917  17.485  19.017
94116W        W94980  27.821  16.782  21.912
94117W        W94981  27.729  14.656  19.954
94118W        W94982  26.128  15.591  20.229
94119W        W94983  25.996  16.756  20.944
94120W        W94984  27.694  17.859  19.676
94121W        W94985  28.813  15.437  20.503
94122W        W94986  27.646  18.012  21.217
94123W        W94987  28.759  16.739  18.403
94124W        W94988  27.471  16.819  19.720
94125W        W94989   0.112  14.792  21.057
94126W        W94990  27.208  16.982  20.970
94127W        W94991  27.468  15.683  20.080
94128W        W94992  28.343  15.986  19.142
94129W        W94993  28.515  15.679  18.684
94130W        W94994  28.422  17.614  19.146
94131W        W94995  28.422  17.135  19.899
94132W        W94996  28.131  16.387  18.936
94133W        W94997  27.678  16.557  20.131
94134W        W94998  28.556  16.165  19.945
94135W        W94999  26.091  15.268  20.621
94136W        W95000  28.525  16.399  21.271
94137W        W95001  28.948  17.993  20.364
94138W        W95002  26.911  17.628  19.790
94139W        W95003  28.104  18.042  20.973
94140W        W95004  27.917  15.382  20.791
94141W        W95005  27.214  18.181  20.951
94142W        W95006  28.687  15.050  19.246
94143W        W95007  28.617  16.413  20.450
94144W        W95008  25.624  15.521  20.722
94145W        W95009  28.457  15.364  19.689
94146W        W95010  28.755  15.539  21.407
94147W        W95011  27.693  17.301  19.790
94148W        W95012  27.031  17.943  19.344
94149W        W95013  25.986  14.932  18.793
94150W        W95014  27.340  14.750  20.310
94151W        W95015  26.282  17.998  18.590
94152W        W95016  27.375  16.347  18.990
94153W        W95017  27.429  16.948  21.448
94154W        W95018  27.281  14.982  19.292
94155W        W95019  28.465  14.814  19.641
94156W        W95020  28.134  18.110  19.968
94157W        W95021  27.676  17.994  20.188
94158W        W95022  26.998  17.015  20.480
94159W        W95023  28.741  17.547  20.586
94160W        W95024  26.362  14.932  19.208
94161W        W95025  26.966  17.508  20.317
94162W        W95026  26.530  15.200  18.130
94163W        W95027  27.318  15.840  20.741
94164W        W95028  28.283  14.734  20.372
94165W        W95029  25.661  16.734  20.556
94166W        W95030  27.250  16.502  18.484
94167W        W95031  26.508  14.690  18.283
94168W        W95032  27.591  15.830  19.580
94169W        W95033  28.080  14.913  20.975
94170W        W95034  26.904  16.846  21.356
94171W        W95035  27.715  16.473  21.532
94172W        W95036  28.133  16.707  21.401
94173W        W95037  27.439  14.850  21.907
94174W        W95038  26.656  15.401  20.241
94175W        W95039  26.054  15.185  19.765
94176W        W95040  25.862  18.110  19.346
94177W        W95041  27.528  17.558  21.466
94178W        W95042  26.896  17.062  18.884
94179W        W95043  28.184  16.518  20.002
94180W        W95044  28.203  16.107  20.353
94181W        W95045  27.432  16.705  20.597
94182W        W95046  28.075  17.172  18.405
94183W        W95047  27.722  15.017  19.581
94184W        W95048  28.994  15.450  18.978
94185W        W95049  25.769  18.001  21.259
94186W        W95050  25.960  17.184  20.651
94187W        W95051  25.534  18.377  19.025
94188W        W95052  27.474  15.394  20.531
94189W        W95053  26.804  17.514  18.590
94190W        W95054  28.671  17.849  18.747
94191W        W95055  27.743  16.533  18.653
94192W        W95056  27.547  15.665  19.005
94193W        W95057  27.394  15.318  18.149
94194W        W95058  27.907  17.150  21.512
94195W        W95059  28.196  14.846  18.935
94196W        W95060  25.599  14.605  18.616
94197W        W95061  26.901  17.392  20.857
94198W        W95062  26.684  17.188  20.022
94199W        W95063  26.759  17.249  18.111
94200W        W95064  25.670  17.629  19.019
94201W        W95065  26.260  16.282  21.574
94202W        W95066  26.971  14.874  21.660
94203W        W95067  27.529  14.994  20.892
94204W        W95068  26.847  14.710  19.426
94205W        W95069  27.700  14.665  19.002
94206W        W95070  25.794  14.747  20.477
94207W        W95071  25.691  15.562  19.858
94208W        W95072  28.719  14.689  20.096
94209W        W95073  25.861  15.207  19.268
94210W        W95074  28.390  15.156  20.646
94211W        W95075  28.890  16.237  18.326
94212W        W95076  26.281  15.061  20.207
94213W        W95077  27.404  15.548  21.157
94214W        W95078  25.554  15.114  18.531
94215W        W95079  26.385  16.737  21.297
94216W        W95080  27.626  16.095  20.379
94217W        W95081  27.347  18.176  18.522
94218W        W95082  25.616  16.406  18.104
94219W        W95083  26.547  17.224  21.400
94220W        W95084  26.007  16.270  21.099
94221W        W95085  26.996  16.511  20.912
94222W        W95086  28.572  14.754  21.061
94223W        W95087   0.045  16.380  21.214
94224W        W95088  28.935  16.428  18.799
94225W        W95089  27.858  17.001  18.832
94226W        W95090  28.256  18.112  18.531
94227W        W95091  27.555  16.124  21.877
94228W        W95092  26.041  17.241  21.767
94229W        W95093   0.228  15.202  21.693
94230W        W95094  28.719  15.920  20.385
94231W        W95095  27.108  18.099  21.900
94232W        W95096  26.943  14.627  18.590
94233W        W95097  28.604  17.266  18.447
94234W        W95098  26.366  15.481  21.446
94235W        W95099  27.065  17.346  21.358
94236W        W95100  28.798  15.223  20.963
94237W        W95101  28.073  17.974  18.998
94238W        W95102  28.321  16.822  20.410
94239W        W95103  26.444  15.184  21.009
94240W        W95104  27.067  16.193  21.709
94241W        W95105  26.485  17.387  18.980
94242W        W95106  28.228  16.819  19.182
94243W        W95107  26.066  15.541  21.042
94244W        W95108  27.343  17.529  19.482
94245W        W95109   0.203  16.002  19.727
94246W        W95110  27.342  14.735  21.319
94247W        W95111  28.288  17.350  20.367
94248W        W95112  28.521  17.798  20.148
94249W        W95113  27.763  17.885  18.599
94250W        W95114  25.682  17.486  21.448
94251W        W95115  26.481  15.620  20.687
94252W        W95116  26.442  14.830  19.756
94253W        W95117  27.902  15.637  20.333
94254W        W95118  27.170  17.179  18.464
94255W        W95119  28.720  16.685  20.044
94256W        W95120  26.207  17.637  21.462
94257W        W95121  28.504  18.193  19.192
94258W        W95122  26.859  15.183  19.704
94259W        W95123  26.494  16.709  20.058
94260W        W95124  26.745  18.311  20.683
94261W        W95125  28.695  18.190  21.550
94262W        W95126  27.911  16.478  20.597
94263W        W95127  25.777  15.940  18.310
94264W        W95128  28.877  17.827  19.230
94265W        W95129  28.631  15.181  18.733
94266W        W95130  26.684  14.669  21.003
94267W        W95131  28.619  17.560  19.655
94268W        W95132  28.739  15.994  19.485
94269W        W95133  27.006  15.700  19.847
94270W        W95134  27.087  15.987  21.222
94271W        W95135  28.125  17.125  21.059
94272W        W95136  26.780  15.581  21.126
94273W        W95137  26.699  18.071  19.729
94274W        W95138  26.150  18.164  21.562
94275W        W95139  26.443  17.696  18.200
94276W        W95140  28.619  17.142  19.340
94277W        W95141  26.407  15.945  21.114
94278W        W95142  28.995  15.763  18.524
94279W        W95143  27.183  17.044  19.330
94280W        W95144  28.002  16.268  21.147
94281W        W95145  27.912  15.948  20.758
94282W        W95146  26.462  16.427  20.887
94283W        W95147  28.517  18.012  20.646
94284W        W95148  28.293  14.999  21.456
94285W        W95149  26.023  15.085  21.375
94286W        W95150  26.474  16.108  20.460
94287W        W95151  26.915  15.572  18.133
94288W        W95152  25.770  17.565  20.945
94289W        W95153  27.163  16.269  20.487
94290W        W95154  26.975  15.080  18.355
94291W        W95155  25.740  16.082  19.745
94292W        W95156  25.771  18.063  20.727
94293W        W95157  28.508  16.196  18.660
94294W        W95158  28.821  15.029  21.432
94295W        W95159  28.145  17.309  19.473
94296W        W95160  25.678  16.238  21.514
94297W        W95161  28.631  14.665  18.718
94298W        W95162  28.325  17.199  18.874
94299W        W95163  27.592  16.039  18.644
94300W        W95164  28.287  14.977  18.417
94301W        W95165  28.331  15.667  20.631
94302W        W95166  26.091  16.130  20.124
94303W        W95167  26.723  17.215  19.509
94304W        W95168  28.265  15.851  19.629
94305W        W95169  27.141  15.282  20.151
94306W        W95170   0.065  17.130  20.743
94307W        W95171   0.079  15.134  20.188
94308W        W95172  25.653  17.986  19.810
94309W        W95173  25.750  17.129  19.180
94310W        W95174  25.988  14.979  21.953
94311W        W95175  27.209  17.598  21.887
94312W        W95176  28.932  16.446  19.632
94313W        W95177  28.276  16.732  18.595
94314W        W95178  27.675  18.161  20.690
94315W        W95179  28.313  16.971  21.803
94316W        W95180  27.184  14.539  19.041
94317W        W95181  27.924  15.488  19.800
94318W        W95182  25.647  17.125  20.209
94319W        W95183  26.847  14.954  18.970
94320W        W95184  26.785  16.629  21.798
94321W        W95185  27.984  15.607  19.275
94322W        W95186  27.851  17.040  20.619
94323W        W95187  26.196  17.865  21.004
94324W        W95188  26.734  17.599  21.704
94325W        W95189  26.465  15.077  18.625
94326W        W95190  28.142  15.338  18.846
94327W        W95191  27.988  17.611  21.252
94328W        W95192  26.822  16.260  20.080
94329W        W95193  26.259  18.152  20.594
94330W        W95194  28.960  18.025  18.357
94331W        W95195  25.888  16.702  21.446
94332W        W95196  27.967  17.010  20.107
94333W        W95197  26.214  17.273  19.395
94334W        W95198  26.639  17.790  20.648
94335W        W95199  27.263  14.869  19.804
94336W        W95200  25.551  16.908  18.718
94337W        W95201  27.363  15.829  18.238
94338W        W95202  25.751  16.641  19.660
94339W        W95203  26.967  15.092  21.164
94340W        W95204  28.782  14.881  18.276
94341W        W95205  28.865  16.605  21.623
94342W        W95206  27.593  17.982  21.746
94343W        W95207   0.073  16.927  21.218
94344W        W95208  28.590  17.632  21.830
94345W        W95209  26.414  18.226  20.126
94346W        W95210   0.056  16.811  19.269
94347W        W95211  27.900  16.017  19.953
94348W        W95212  27.510  14.535  19.478
94349W        W95213  26.539  17.691  19.419
94350W        W95214  26.975  15.411  20.680
94351W        W95215  26.841  14.865  20.112
94352W        W95216  25.735  18.028  18.584
94353W        W95217  27.684  17.126  19.308
94354W        W95218  26.670  17.739  21.196
94355W        W95219  25.800  16.622  19.109
94356W        W95220  25.761  15.194  20.209
94357W        W95221  27.473  17.052  20.212
94358W        W95222  25.586  14.793  19.118
94359W        W95223  28.410  16.148  20.830
94360W        W95224  28.171  15.492  18.363
94361W        W95225  28.757  17.108  20.311
94362W        W95226  27.367  17.628  20.026
94363W        W95227  26.671  17.871  18.955
94364W        W95228  27.905  14.604  18.293
94365W        W95229  25.924  18.027  20.232
94366W        W95230  27.701  15.585  21.630
94367W        W95231  25.895  15.451  21.753
94368W        W95232  25.526  15.685  19.365
94369W        W95233  26.919  16.109  18.245
94370W        W95234  28.001  16.030  21.622
94371W        W95235  26.745  16.569  20.481
94372W        W95236  28.028  14.626  19.439
94373W        W95237  27.222  18.091  19.814
94374W        W95238  28.291  17.565  20.836
94375W        W95239  28.110  17.581  19.924
94376W        W95240  27.978  16.827  19.632
94377W        W95241  27.323  14.959  18.743
94378W        W95242   0.010  14.643  19.365
94379W        W95243  26.788  16.482  17.858
94380W        W95244  28.908  15.512  19.486
94381W        W95245  27.592  16.918  18.356
94382W        W95246  28.573  16.919  21.278
94383W        W95247  28.222  17.619  18.622
94384W        W95248  26.842  15.369  21.601
94385W        W95249  26.822  16.020  20.803
94386W        W95250  28.799  17.388  21.127
94387W        W95251  27.810  15.217  21.274
94388W        W95252  25.654  15.898  21.089
94389W        W95253  27.512  16.287  20.905
94390W        W95254  25.815  17.156  19.726
94391W        W95255  26.052  16.397  20.563
94392W        W95256  28.273  16.659  20.902
94393W        W95257  28.127  18.034  21.534
94394W        W95258  27.924  15.709  21.195
94395W        W95259  28.178  17.884  19.500
94396W        W95260  27.303  17.670  21.012
94397W        W95261  26.890  18.015  20.221
94398W        W95262  28.544  17.104  20.779
94399W        W95263  27.560  17.239  21.853
94400W        W95264  26.178  17.177  20.172
94401W        W95265  28.494  16.719  19.602
94402W        W95266  28.093  17.845  20.433
94403W        W95267  26.153  17.644  20.523
94404W        W95268  27.216  15.714  21.658
94405W        W95269  27.578  17.853  19.143
94406W        W95270  27.066  17.083  21.817
94407W        W95271  26.958  17.486  19.150
94408W        W95272  26.204  15.746  18.023
94409W        W95273  25.699  18.289  25.263
94410W        W95274  26.037  17.106  24.846
94411W        W95275  28.604  16.863  22.560
94412W        W95276  28.879  18.000  24.493
94413W        W95277  26.656  18.003  22.162
94414W        W95278  26.890  16.054  23.009
94415W        W95279  26.443  15.875  23.426
94416W        W95280  27.324  16.692  22.660
94417W        W95281  27.019  17.952  24.941
94418W        W95282  25.663  15.412  24.944
94419W        W95283  26.093  14.757  24.683
94420W        W95284  28.099  15.378  23.526
94421W        W95285  27.818  15.716  22.101
94422W        W95286  28.304  15.434  25.230
94423W        W95287  25.709  15.119  24.524
94424W        W95288  25.856  17.825  25.395
94425W        W95289  27.035  17.289  22.305
94426W        W95290  25.713  15.696  23.972
94427W        W95291  26.762  15.958  25.042
94428W        W95292  28.961  15.445  23.632
94429W        W95293  28.763  16.731  24.520
94430W        W95294  27.323  16.002  23.390
94431W        W95295  26.335  16.682  24.109
94432W        W95296  25.488  16.154  23.929
94433W        W95297  26.784  16.370  24.739
94434W        W95298  28.814  16.095  25.167
94435W        W95299  26.514  17.418  23.597
94436W        W95300  27.592  17.331  24.621
94437W        W95301  26.929  15.798  23.872
94438W        W95302  27.174  16.643  23.583
94439W        W95303  27.871  17.518  25.436
94440W        W95304  27.023  16.672  25.291
94441W        W95305  27.256  16.533  24.846
94442W        W95306  25.640  15.719  25.366
94443W        W95307  28.315  17.388  25.147
94444W        W95308  26.050  14.926  23.102
94445W        W95309  26.607  17.147  24.111
94446W        W95310  28.944  17.117  23.463
94447W        W95311  28.522  15.238  23.805
94448W        W95312  28.710  15.474  21.919
94449W        W95313  28.884  16.197  24.435
94450W        W95314  27.100  17.969  24.058
94451W        W95315  28.773  17.345  22.646
94452W        W95316  26.018  18.171  22.635
94453W        W95317  26.391  18.148  23.031
94454W        W95318  26.392  14.991  24.352
94455W        W95319  28.743  15.708  24.564
94456W        W95320  28.113  16.323  23.172
94457W        W95321  28.035  16.208  22.125
94458W        W95322  27.458  17.256  24.116
94459W        W95323  27.395  15.459  23.336
94460W        W95324  27.702  17.837  24.487
94461W        W95325  28.642  16.490  22.893
94462W        W95326  27.743  15.111  22.748
94463W        W95327  26.248  17.727  22.751
94464W        W95328  25.694  15.289  23.126
94465W        W95329  28.521  15.740  23.602
94466W        W95330  25.924  17.472  23.673
94467W        W95331  27.084  17.797  22.357
94468W        W95332  28.421  15.905  21.872
94469W        W95333  25.749  17.528  24.202
94470W        W95334  26.510  17.188  24.610
94471W        W95335  26.799  16.681  23.206
94472W        W95336  26.786  15.152  24.091
94473W        W95337   0.225  14.657  23.515
94474W        W95338  26.271  16.760  21.803
94475W        W95339  26.026  15.431  22.263
94476W        W95340  26.122  17.465  23.201
94477W        W95341  26.850  17.217  23.234
94478W        W95342  28.460  17.801  24.786
94479W        W95343  27.562  15.506  22.510
94480W        W95344  28.673  18.003  23.380
94481W        W95345  28.409  15.884  24.927
94482W        W95346   0.094  17.371  23.040
94483W        W95347  27.753  16.698  24.809
94484W        W95348  25.566  16.236  22.915
94485W        W95349  26.755  16.755  24.403
94486W        W95350  27.775  15.970  22.537
94487W        W95351  27.705  16.619  22.999
94488W        W95352  26.104  15.889  24.251
94489W        W95353  26.052  15.749  24.935
94490W        W95354  26.011  14.770  23.631
94491W        W95355  27.642  15.209  23.730
94492W        W95356  27.421  15.262  25.089
94493W        W95357  27.820  15.128  22.250
94494W        W95358  28.992  17.862  24.974
94495W        W95359  27.695  14.808  25.066
94496W        W95360  28.890  17.118  25.327
94497W        W95361  28.340  15.413  24.707
94498W        W95362  28.174  15.235  22.991
94499W        W95363  28.463  16.386  25.457
94500W        W95364  26.252  17.863  23.506
94501W        W95365  27.068  15.456  22.465
94502W        W95366  26.417  15.034  25.269
94503W        W95367  28.534  15.559  22.816
94504W        W95368  28.827  16.013  22.706
94505W        W95369  26.735  18.210  25.328
94506W        W95370  26.571  14.562  22.455
94507W        W95371  28.770  14.912  23.472
94508W        W95372   0.058  17.468  22.036
94509W        W95373  25.740  16.562  23.656
94510W        W95374  27.875  15.110  21.759
94511W        W95375  28.925  17.598  23.651
94512W        W95376  28.849  14.797  24.371
94513W        W95377  27.627  16.208  24.985
94514W        W95378  27.384  17.212  22.702
94515W        W95379  27.980  16.538  25.558
94516W        W95380  27.731  14.710  23.571
94517W        W95381  26.182  15.630  23.796
94518W        W95382  25.780  16.704  24.546
94519W        W95383  27.613  17.875  23.267
94520W        W95384  28.860  15.384  24.183
94521W        W95385  27.518  18.039  24.911
94522W        W95386  28.695  16.735  22.079
94523W        W95387  27.239  16.419  23.108
94524W        W95388   0.127  14.835  24.812
94525W        W95389  27.383  16.863  24.480
94526W        W95390  27.428  15.705  23.798
94527W        W95391  28.270  16.006  22.753
94528W        W95392  28.519  15.777  22.352
94529W        W95393  28.377  17.678  22.756
94530W        W95394  28.395  17.146  23.555
94531W        W95395  27.999  16.419  22.622
94532W        W95396  27.645  16.406  23.481
94533W        W95397  28.609  16.261  23.649
94534W        W95398  26.055  15.378  24.237
94535W        W95399  28.559  16.379  24.835
94536W        W95400  28.730  18.046  23.946
94537W        W95401  26.970  17.644  23.515
94538W        W95402  28.026  18.130  24.838
94539W        W95403  27.935  15.349  24.388
94540W        W95404  27.205  18.223  24.514
94541W        W95405  28.637  15.042  22.866
94542W        W95406  28.549  16.434  24.131
94543W        W95407  25.700  15.658  24.485
94544W        W95408  28.566  15.339  23.291
94545W        W95409  28.806  15.570  25.068
94546W        W95410  27.743  17.337  23.443
94547W        W95411  27.083  17.935  23.098
94548W        W95412  26.281  14.993  22.399
94549W        W95413  27.366  14.822  23.983
94550W        W95414  26.152  18.132  22.117
94551W        W95415  26.865  16.464  22.689
94552W        W95416  27.394  17.030  25.011
94553W        W95417  27.242  15.189  22.899
94554W        W95418  28.260  14.899  23.390
94555W        W95419  28.256  18.164  23.643
94556W        W95420  27.618  18.033  24.024
94557W        W95421  27.096  16.893  24.040
94558W        W95422  28.562  17.648  24.268
94559W        W95423  26.519  15.044  22.939
94560W        W95424  26.993  17.455  23.986
94561W        W95425  26.415  15.279  21.921
94562W        W95426  27.379  15.918  24.259
94563W        W95427  28.083  14.974  23.890
94564W        W95428  25.496  16.643  24.126
94565W        W95429  27.097  16.310  22.207
94566W        W95430  26.528  14.792  21.962
94567W        W95431  27.270  15.720  22.899
94568W        W95432  28.094  14.911  24.635
94569W        W95433  26.906  16.928  24.858
94570W        W95434  27.532  16.601  25.291
94571W        W95435  28.175  16.631  25.087
94572W        W95436  27.388  14.951  25.494
94573W        W95437  26.635  15.432  23.669
94574W        W95438  26.213  15.343  23.358
94575W        W95439  25.902  17.959  23.106
94576W        W95440  27.367  17.561  25.108
94577W        W95441  26.522  17.025  22.414
94578W        W95442  28.115  16.485  23.713
94579W        W95443  28.241  16.023  23.936
94580W        W95444  27.548  16.604  24.033
94581W        W95445  27.981  17.209  22.147
94582W        W95446  27.761  15.103  23.249
94583W        W95447   0.015  15.515  22.664
94584W        W95448  25.872  17.932  24.864
94585W        W95449  26.071  17.098  24.319
94586W        W95450  25.521  18.017  22.659
94587W        W95451  27.450  15.328  24.184
94588W        W95452  26.598  17.544  22.402
94589W        W95453  28.732  17.778  22.347
94590W        W95454  27.600  16.456  22.285
94591W        W95455  26.783  15.505  22.890
94592W        W95456  27.402  15.374  22.024
94593W        W95457  27.862  17.004  25.280
94594W        W95458  28.214  14.965  22.538
94595W        W95459  25.650  14.666  22.310
94596W        W95460  27.018  17.217  24.443
94597W        W95461  26.739  16.934  23.665
94598W        W95462  26.568  17.173  21.928
94599W        W95463  25.757  17.550  22.825
94600W        W95464  26.331  16.210  24.958
94601W        W95465  26.941  15.189  25.304
94602W        W95466  27.580  15.030  24.608
94603W        W95467  26.953  14.754  23.035
94604W        W95468  27.698  14.664  22.514
94605W        W95469  25.946  14.879  24.145
94606W        W95470  25.794  15.683  23.440
94607W        W95471  28.560  14.718  23.926
94608W        W95472  26.146  15.369  22.797
94609W        W95473  28.431  15.083  24.295
94610W        W95474  28.824  16.233  22.017
94611W        W95475  26.300  15.126  23.864
94612W        W95476  27.499  15.568  24.646
94613W        W95477  25.574  15.173  22.203
94614W        W95478  26.297  16.715  24.630
94615W        W95479  27.734  16.119  23.918
94616W        W95480  27.513  18.063  22.263
94617W        W95481  25.815  16.500  21.936
94618W        W95482  26.512  17.171  25.121
94619W        W95483  25.929  16.195  24.657
94620W        W95484  27.142  16.430  24.334
94621W        W95485  28.574  14.733  24.808
94622W        W95486   0.087  16.441  24.824
94623W        W95487  28.949  16.487  22.465
94624W        W95488  27.812  16.905  22.569
94625W        W95489  28.448  18.099  22.004
94626W        W95490  27.629  16.123  25.511
94627W        W95491  26.110  16.954  25.357
94628W        W95492   0.154  15.217  25.290
94629W        W95493  28.762  15.892  24.036
94630W        W95494  27.239  18.115  25.386
94631W        W95495  26.994  14.676  22.145
94632W        W95496  28.573  17.238  22.179
94633W        W95497  26.515  15.508  25.073
94634W        W95498  26.876  17.464  24.878
94635W        W95499  28.806  15.207  24.680
94636W        W95500  28.189  18.126  22.461
94637W        W95501  28.300  16.870  24.034
94638W        W95502  26.656  15.326  24.612
94639W        W95503  27.179  16.184  25.238
94640W        W95504  26.479  17.272  22.861
94641W        W95505  28.207  16.788  22.902
94642W        W95506  26.158  15.274  24.755
94643W        W95507  27.311  17.459  23.175
94644W        W95508   0.068  16.115  23.394
94645W        W95509  27.183  14.840  24.946
94646W        W95510  28.159  17.368  24.014
94647W        W95511  28.428  17.672  23.708
94648W        W95512  27.534  17.509  22.291
94649W        W95513  25.730  17.332  25.220
94650W        W95514  26.536  15.596  24.168
94651W        W95515  26.479  14.881  23.440
94652W        W95516  27.910  15.609  23.942
94653W        W95517  26.953  16.788  22.266
94654W        W95518  28.758  16.759  23.784
94655W        W95519  26.179  17.569  25.069
94656W        W95520  28.457  18.157  22.922
94657W        W95521  26.880  15.186  23.295
94658W        W95522  26.395  16.529  23.604
94659W        W95523  26.720  18.287  24.275
94660W        W95524  28.625  18.194  25.094
94661W        W95525  28.031  16.420  24.218
94662W        W95526  25.853  15.972  21.931
94663W        W95527  28.864  17.826  22.850
94664W        W95528  28.641  15.259  22.388
94665W        W95529  26.641  14.830  24.801
94666W        W95530  28.629  17.522  23.222
94667W        W95531  28.584  16.081  23.176
94668W        W95532  26.936  15.689  23.361
94669W        W95533  27.194  16.019  24.730
94670W        W95534  28.049  17.118  24.807
94671W        W95535  27.030  15.538  24.896
94672W        W95536  26.711  18.077  23.448
94673W        W95537  26.223  18.168  25.153
94674W        W95538  26.290  17.655  21.981
94675W        W95539  28.623  17.042  23.057
94676W        W95540  26.471  15.812  24.636
94677W        W95541   0.028  15.823  22.247
94678W        W95542  26.908  16.984  22.766
94679W        W95543  28.058  16.266  24.731
94680W        W95544  27.899  15.895  24.372
94681W        W95545  26.396  16.274  24.409
94682W        W95546  28.333  18.406  24.094
94683W        W95547  28.199  14.938  25.126
94684W        W95548  25.900  14.983  25.113
94685W        W95549  26.472  16.070  23.918
94686W        W95550  26.840  15.686  22.026
94687W        W95551  25.683  17.463  24.722
94688W        W95552  27.233  16.215  23.862
94689W        W95553  26.909  15.172  22.074
94690W        W95554  25.998  16.083  23.190
94691W        W95555  25.812  18.098  24.388
94692W        W95556  28.473  16.321  22.395
94693W        W95557  28.685  15.068  25.188
94694W        W95558  28.164  17.297  23.106
94695W        W95559  25.865  16.146  25.187
94696W        W95560  28.655  14.744  22.383
94697W        W95561  28.243  17.213  22.590
94698W        W95562  27.312  16.172  22.654
94699W        W95563  28.307  14.929  22.000
94700W        W95564  28.368  15.585  24.193
94701W        W95565  25.981  16.098  23.717
94702W        W95566  26.377  17.004  23.296
94703W        W95567  28.214  15.731  23.177
94704W        W95568  27.129  15.296  23.752
94705W        W95569  28.962  17.222  24.409
94706W        W95570   0.012  14.985  23.907
94707W        W95571  25.620  17.871  23.543
94708W        W95572  25.983  17.057  22.917
94709W        W95573  26.007  14.799  25.587
94710W        W95574  27.410  17.692  25.627
94711W        W95575  28.960  16.620  23.302
94712W        W95576  28.201  16.741  22.260
94713W        W95577  27.712  18.353  24.455
94714W        W95578  28.348  16.966  25.447
94715W        W95579  27.190  14.564  22.621
94716W        W95580  27.810  15.840  23.472
94717W        W95581  25.725  17.055  23.931
94718W        W95582  26.849  14.989  22.559
94719W        W95583  26.525  16.659  25.088
94720W        W95584  27.763  15.576  22.991
94721W        W95585  27.870  16.945  24.341
94722W        W95586  26.155  17.568  24.555
94723W        W95587  26.929  17.697  25.386
94724W        W95588  26.556  15.431  22.407
94725W        W95589  28.076  15.523  22.569
94726W        W95590  27.871  17.638  24.945
94727W        W95591  26.847  16.217  23.508
94728W        W95592  26.312  17.979  24.292
94729W        W95593  28.969  17.973  21.933
94730W        W95594  25.979  16.608  25.012
94731W        W95595  27.826  16.995  23.832
94732W        W95596  26.422  16.747  22.845
94733W        W95597  26.687  17.623  24.376
94734W        W95598  27.299  14.931  23.423
94735W        W95599  25.702  16.898  22.302
94736W        W95600  27.311  15.847  22.224
94737W        W95601  26.061  16.595  23.204
94738W        W95602  27.086  15.059  24.494
94739W        W95603  28.818  14.964  21.944
94740W        W95604  28.853  16.618  25.224
94741W        W95605  27.744  18.022  25.367
94742W        W95606   0.088  16.968  24.858
94743W        W95607  28.701  17.661  25.355
94744W        W95608  26.360  18.279  23.869
94745W        W95609   0.042  16.862  22.844
94746W        W95610  27.673  16.094  23.025
94747W        W95611  27.498  14.734  22.998
94748W        W95612  26.605  17.680  23.142
94749W        W95613  27.028  15.560  24.353
94750W        W95614  26.905  14.810  23.726
94751W        W95615  25.855  17.760  22.329
94752W        W95616  27.285  16.932  23.142
94753W        W95617  26.511  17.884  24.797
94754W        W95618  25.876  16.595  22.696
94755W        W95619  25.817  15.251  23.721
94756W        W95620  27.233  17.171  23.614
94757W        W95621  25.785  15.027  22.661
94758W        W95622  28.392  16.049  24.427
94759W        W95623  28.230  15.420  22.095
94760W        W95624  28.686  17.247  23.966
94761W        W95625  27.426  17.643  23.741
94762W        W95626  26.736  17.957  22.703
94763W        W95627  27.893  14.607  22.014
94764W        W95628  25.956  17.930  23.925
94765W        W95629  27.898  15.700  25.409
94766W        W95630  26.068  15.419  25.374
94767W        W95631  25.767  15.744  22.842
94768W        W95632  26.869  15.929  22.501
94769W        W95633  28.076  16.143  25.234
94770W        W95634  26.790  16.479  23.956
94771W        W95635  28.021  14.722  22.960
94772W        W95636  27.233  18.110  23.571
94773W        W95637  28.108  17.533  24.503
94774W        W95638  27.920  17.770  23.676
94775W        W95639  27.978  16.857  23.363
94776W        W95640  27.337  15.016  22.400
94777W        W95641  28.973  14.675  23.057
94778W        W95642  26.629  16.171  21.985
94779W        W95643  28.907  15.693  23.144
94780W        W95644  27.433  16.958  22.237
94781W        W95645  28.551  16.946  24.945
94782W        W95646  28.243  17.650  22.236
94783W        W95647  26.997  15.699  25.413
94784W        W95648  26.834  16.031  24.319
94785W        W95649  28.777  17.400  24.866
94786W        W95650  27.892  15.294  24.914
94787W        W95651  25.534  15.919  24.882
94788W        W95652  27.606  16.324  24.484
94789W        W95653  25.875  17.023  23.422
94790W        W95654  25.925  16.366  24.160
94791W        W95655  28.258  16.705  24.570
94792W        W95656  28.225  17.886  25.246
94793W        W95657  27.910  15.791  24.882
94794W        W95658  28.189  17.828  23.236
94795W        W95659  27.203  17.693  24.514
94796W        W95660  26.632  17.837  23.894
94797W        W95661  28.455  17.163  24.453
94798W        W95662  27.453  17.199  25.519
94799W        W95663  26.220  17.050  23.789
94800W        W95664  28.456  16.662  23.359
94801W        W95665  28.129  17.910  24.129
94802W        W95666  26.260  17.516  24.053
94803W        W95667  27.450  15.760  25.146
94804W        W95668  27.430  17.754  22.751
94805W        W95669  26.987  17.186  25.319
94806W        W95670  26.958  17.503  22.791
94807W        W95671  26.315  15.770  21.884
94808W        W95672  25.618  18.288  28.829
94809W        W95673  26.128  17.087  28.518
94810W        W95674  28.677  16.910  26.174
94811W        W95675  28.865  17.886  28.207
94812W        W95676  26.986  17.930  25.862
94813W        W95677  26.730  15.971  26.820
94814W        W95678  26.275  15.738  26.810
94815W        W95679  27.303  16.639  26.176
94816W        W95680  27.065  17.926  28.485
94817W        W95681  25.735  15.432  28.425
94818W        W95682  26.285  14.721  28.209
94819W        W95683  28.081  15.043  27.170
94820W        W95684  27.737  15.783  25.909
94821W        W95685  28.234  15.377  28.711
94822W        W95686  25.701  15.057  28.045
94823W        W95687  25.807  17.815  28.954
94824W        W95688  27.442  17.183  26.061
94825W        W95689  25.874  15.830  27.590
94826W        W95690  26.485  15.766  28.848
94827W        W95691  28.874  15.590  27.278
94828W        W95692  28.680  16.666  27.891
94829W        W95693  27.102  16.033  27.181
94830W        W95694  27.782  17.540  27.338
94831W        W95695  26.035  16.854  27.647
94832W        W95696  25.325  16.259  27.608
94833W        W95697  26.745  16.413  28.640
94834W        W95698  28.736  16.078  28.592
94835W        W95699  26.629  17.393  27.241
94836W        W95700  27.623  17.296  28.236
94837W        W95701  26.774  15.782  27.522
94838W        W95702  27.045  16.544  27.284
94839W        W95703  27.837  17.468  28.971
94840W        W95704  27.102  16.684  28.916
94841W        W95705  27.157  16.565  28.374
94842W        W95706  25.499  15.770  28.891
94843W        W95707  28.307  17.350  28.744
94844W        W95708  26.026  14.807  26.727
94845W        W95709  26.478  17.137  27.672
94846W        W95710   0.044  17.076  27.045
94847W        W95711  28.163  15.355  27.559
94848W        W95712  28.720  15.426  25.569
94849W        W95713   0.173  16.183  27.843
94850W        W95714  27.032  17.846  27.680
94851W        W95715  28.785  17.394  26.242
94852W        W95716  26.171  18.309  26.133
94853W        W95717  26.413  18.072  26.513
94854W        W95718  26.448  14.996  27.808
94855W        W95719  28.611  15.914  28.095
94856W        W95720  28.077  16.291  26.775
94857W        W95721  28.122  16.083  25.774
94858W        W95722  27.437  17.387  27.691
94859W        W95723  27.408  15.586  27.174
94860W        W95724  27.756  17.726  27.982
94861W        W95725  28.593  16.496  26.462
94862W        W95726  27.661  15.124  26.424
94863W        W95727  26.068  17.727  26.340
94864W        W95728  25.716  15.259  26.742
94865W        W95729  28.364  15.785  27.353
94866W        W95730  25.828  17.488  27.120
94867W        W95731  27.344  17.700  26.166
94868W        W95732  28.467  15.866  25.453
94869W        W95733  25.709  17.679  28.006
94870W        W95734  26.467  17.333  28.172
94871W        W95735  26.691  16.537  26.864
94872W        W95736  26.962  14.979  27.898
94873W        W95737  28.965  14.736  27.307
94874W        W95738  26.217  16.429  25.442
94875W        W95739  26.209  15.687  25.863
94876W        W95740  26.127  17.342  26.727
94877W        W95741  27.052  16.910  26.927
94878W        W95742  28.431  17.808  28.479
94879W        W95743  27.410  15.535  26.223
94880W        W95744  28.614  18.024  26.923
94881W        W95745  28.274  15.886  28.499
94882W        W95746   0.125  17.378  26.622
94883W        W95747  27.683  16.748  28.227
94884W        W95748  25.449  16.137  26.746
94885W        W95749  26.349  16.839  28.068
94886W        W95750  27.810  16.004  26.403
94887W        W95751  27.627  16.463  26.550
94888W        W95752  26.058  15.802  28.125
94889W        W95753  25.998  15.812  28.679
94890W        W95754  25.969  14.614  27.214
94891W        W95755  27.673  15.154  27.471
94892W        W95756  27.315  15.243  28.823
94893W        W95757  27.809  15.255  25.911
94894W        W95758  28.799  17.543  28.722
94895W        W95759  27.801  14.703  28.629
94896W        W95760  28.732  17.060  28.868
94897W        W95761  28.328  15.450  28.191
94898W        W95762  28.065  15.260  26.709
94899W        W95763  28.377  16.323  28.880
94900W        W95764  26.249  17.766  27.228
94901W        W95765  26.937  15.739  26.273
94902W        W95766  26.428  14.893  28.691
94903W        W95767  28.474  15.461  26.469
94904W        W95768  28.858  16.050  26.341
94905W        W95769  26.672  18.164   0.000
94906W        W95770  26.643  14.678  26.140
94907W        W95771  28.856  15.135  26.972
94908W        W95772   0.139  17.508  25.609
94909W        W95773  25.630  16.606  27.310
94910W        W95774  27.851  15.195  25.408
94911W        W95775   0.017  17.616  27.393
94912W        W95776  28.898  14.783  27.846
94913W        W95777  27.236  16.189  28.747
94914W        W95778  27.851  17.340  26.347
94915W        W95779  27.924  16.498   0.080
94916W        W95780  27.681  14.719  27.214
94917W        W95781  26.348  15.573  27.303
94918W        W95782  25.871  16.720  28.221
94919W        W95783  27.661  17.920  27.014
94920W        W95784  28.609  15.520  27.740
94921W        W95785  27.565  17.971  28.397
94922W        W95786  28.725  16.751  25.705
94923W        W95787  27.161  16.352  26.764
94924W        W95788   0.045  14.771  28.342
94925W        W95789  27.294  16.991  27.999
94926W        W95790  27.259  15.848  27.632
94927W        W95791  28.336  15.964  26.306
94928W        W95792  28.658  15.800  25.929
94929W        W95793  28.421  17.775  26.227
94930W        W95794  28.357  17.155  27.071
94931W        W95795  28.105  16.427  26.280
94932W        W95796  27.485  16.649  27.031
94933W        W95797  28.420  16.296  27.269
94934W        W95798  25.999  15.337  27.636
94935W        W95799  28.490  16.392  28.299
94936W        W95800  28.941  18.052  27.702
94937W        W95801  27.003  17.425  26.887
94938W        W95802  28.075  18.088  28.252
94939W        W95803  27.887  15.288  27.974
94940W        W95804  27.181  18.172  28.055
94941W        W95805  28.753  15.016  26.448
94942W        W95806  28.334  16.284  27.775
94943W        W95807  25.607  15.569  27.942
94944W        W95808  28.436  15.415  27.013
94945W        W95809  28.712  15.566  28.499
94946W        W95810  27.902  17.337  26.862
94947W        W95811  27.169  17.910  26.787
94948W        W95812  25.977  15.230  25.887
94949W        W95813  27.327  14.767  27.590
94950W        W95814  26.203  18.132  25.659
94951W        W95815  26.801  16.248  26.400
94952W        W95816  27.304  17.025  28.534
94953W        W95817  27.197  15.303  26.696
94954W        W95818  28.431  14.881  26.842
94955W        W95819  28.136  18.148  27.157
94956W        W95820  27.533  17.960  27.582
94957W        W95821  26.905  16.788  27.733
94958W        W95822  28.713  17.578  27.812
94959W        W95823  26.442  15.005  26.486
94960W        W95824  27.058  17.159  27.396
94961W        W95825  26.566  15.445  25.578
94962W        W95826  27.162  16.012  28.111
94963W        W95827  28.021  14.819  27.636
94964W        W95828  25.577  16.660  27.822
94965W        W95829  27.240  16.399  25.702
94966W        W95830  26.434  15.005  25.801
94967W        W95831  27.208  15.822  26.715
94968W        W95832  28.133  14.978  28.327
94969W        W95833  26.833  16.951  28.229
94970W        W95834  27.567  16.602  28.729
94971W        W95835  28.057  16.576  28.549
94972W        W95836  27.442  14.800   0.052
94973W        W95837  26.744  15.268  27.485
94974W        W95838  26.217  15.251  26.888
94975W        W95839  25.975  17.900  26.808
94976W        W95840  27.404  17.534  28.658
94977W        W95841  26.807  16.504  25.948
94978W        W95842  27.944  16.520  27.221
94979W        W95843  27.945  16.062  27.443
94980W        W95844  27.455  16.835  27.521
94981W        W95845  27.908  17.170  25.804
94982W        W95846  27.627  15.159  26.952
94983W        W95847  28.943  15.472  26.232
94984W        W95848  25.710  17.941  28.460
94985W        W95849  25.954  17.205  28.041
94986W        W95850  25.729  18.146  26.388
94987W        W95851  27.432  15.540  28.042
94988W        W95852  27.030  17.410  25.835
94989W        W95853  28.791  17.782  25.874
94990W        W95854  27.688  16.318  25.992
94991W        W95855  26.670  15.460  26.619
94992W        W95856  27.445  15.469  25.590
94993W        W95857  27.839  17.048  28.658
94994W        W95858  28.227  14.947  26.335
94995W        W95859  25.529  14.956  25.801
94996W        W95860  26.919  17.334  27.867
94997W        W95861  26.643  16.862  27.265
94998W        W95862  26.609  16.831  25.558
94999W        W95863  25.602  17.523  26.239
95000W        W95864  26.304  16.269  28.922
95001W        W95865  26.930  14.893  28.857
95002W        W95866  27.473  14.987  28.035
95003W        W95867  26.826  14.670  26.645
95004W        W95868  27.811  14.764  26.073
95005W        W95869  25.968  14.833  27.677
95006W        W95870  25.856  15.599  27.128
95007W        W95871  28.557  15.066  27.384
95008W        W95872  26.095  15.418  26.387
95009W        W95873  28.424  15.039  27.886
95010W        W95874  28.916  16.200  25.665
95011W        W95875  26.315  15.018  27.324
95012W        W95876  27.353  15.707  28.522
95013W        W95877  25.509  15.468  25.836
95014W        W95878  26.278  16.582  28.504
95015W        W95879  27.479  16.294  27.430
95016W        W95880  27.478  18.142  25.855
95017W        W95881  25.645  16.484  25.500
95018W        W95882  26.623  16.917  28.696
95019W        W95883  25.892  16.242  28.443
95020W        W95884  26.703  16.459  28.124
95021W        W95885  28.536  14.645  28.204
95022W        W95886   0.005  16.455  28.251
95023W        W95887  28.991  16.506  26.081
95024W        W95888  27.800  16.836  26.227
95025W        W95889  28.471  18.148  25.601
95026W        W95890  27.525  16.172   0.177
95027W        W95891  26.167  16.790  28.965
95028W        W95892   0.101  15.130  28.743
95029W        W95893  28.759  16.007  27.598
95030W        W95894  27.180  18.149  28.920
95031W        W95895  26.935  14.879  25.751
95032W        W95896  28.662  17.280  25.747
95033W        W95897  26.198  15.339  28.662
95034W        W95898  26.943  17.404  28.443
95035W        W95899  28.849  15.240  28.107
95036W        W95900  28.251  18.217  26.049
95037W        W95901  28.283  16.767  27.533
95038W        W95902  26.631  15.121  28.270
95039W        W95903  26.813  16.111   0.037
95040W        W95904  26.524  17.439  26.367
95041W        W95905  28.253  16.914  26.458
95042W        W95906  26.147  15.258  28.150
95043W        W95907  27.459  17.504  26.654
95044W        W95908   0.118  16.132  26.795
95045W        W95909  27.307  14.745  28.528
95046W        W95910  28.251  17.422  27.521
95047W        W95911  28.552  17.870  27.410
95048W        W95912  27.829  17.701  25.949
95049W        W95913  25.575  17.099  28.875
95050W        W95914  26.428  15.534  27.823
95051W        W95915  26.445  14.628  27.010
95052W        W95916  27.718  15.629  27.612
95053W        W95917  27.093  16.901  25.761
95054W        W95918  28.759  16.701  27.332
95055W        W95919  26.504  17.424  28.721
95056W        W95920  28.612  18.262  26.411
95057W        W95921  26.708  15.073  26.970
95058W        W95922  26.205  16.590  27.211
95059W        W95923  26.685  18.204  27.913
95060W        W95924  28.806  18.067  28.725
95061W        W95925  27.839  16.520  27.736
95062W        W95926  25.912  16.067  25.689
95063W        W95927  28.858  17.813  26.521
95064W        W95928  28.549  15.220  26.019
95065W        W95929  26.809  14.662  28.410
95066W        W95930  28.740  17.508  26.966
95067W        W95931  28.579  16.108  26.803
95068W        W95932  26.903  15.547  27.076
95069W        W95933  26.868  15.901  28.526
95070W        W95934  28.120  17.194  28.263
95071W        W95935  26.493  15.599  28.341
95072W        W95936  26.776  17.891  27.235
95073W        W95937  26.112  18.161  28.690
95074W        W95938  26.468  17.859  26.028
95075W        W95939  28.698  17.053  26.673
95076W        W95940  26.387  16.086  28.447
95077W        W95941   0.183  15.846  25.969
95078W        W95942  26.896  16.788  26.452
95079W        W95943  27.551  16.245  28.342
95080W        W95944  27.652  16.049  27.884
95081W        W95945  26.193  16.329  28.038
95082W        W95946  28.459  18.093  27.885
95083W        W95947  28.265  14.822  28.807
95084W        W95948  25.912  14.929  28.498
95085W        W95949  26.339  16.019  27.644
95086W        W95950  26.703  15.882  25.828
95087W        W95951  25.662  17.395  28.441
95088W        W95952  26.922  16.251  27.687
95089W        W95953  27.006  15.404  25.860
95090W        W95954  26.299  16.239  26.695
95091W        W95955  25.804  18.214  28.042
95092W        W95956  28.522  16.332  25.976
95093W        W95957  28.628  15.052  28.534
95094W        W95958  28.353  17.432  26.605
95095W        W95959  25.787  16.185  28.982
95096W        W95960  28.493  14.661  25.959
95097W        W95961  28.301  17.284  26.103
95098W        W95962  27.308  16.119  26.297
95099W        W95963  28.319  15.030  25.608
95100W        W95964  28.145  15.799  27.858
95101W        W95965  26.124  16.063  27.174
95102W        W95966  26.599  17.122  26.797
95103W        W95967  28.158  15.779  26.752
95104W        W95968  27.230  15.332  27.622
95105W        W95969  28.976  17.133  27.928
95106W        W95970   0.009  15.209  27.597
95107W        W95971  25.559  17.946  27.168
95108W        W95972  25.847  16.906  26.432
95109W        W95973  26.015  14.969   0.008
95110W        W95974  27.371  17.596   0.177
95111W        W95975  28.920  16.604  26.853
95112W        W95976  28.241  16.783  25.930
95113W        W95977  27.680  18.277  27.987
95114W        W95978  28.254  16.858  28.932
95115W        W95979  27.163  14.621  26.242
95116W        W95980  27.927  15.549  27.145
95117W        W95981  25.636  17.100  27.428
95118W        W95982  26.931  15.094  26.300
95119W        W95983  26.635  16.616   0.129
95120W        W95984  27.664  15.596  26.689
95121W        W95985  27.860  17.066  27.817
95122W        W95986  26.123  17.634  28.425
95123W        W95987  26.910  17.691  28.901
95124W        W95988  26.550  15.395  26.115
95125W        W95989  28.002  15.540  26.284
95126W        W95990  27.937  17.629  28.486
95127W        W95991  26.614  16.227  27.261
95128W        W95992  26.225  17.898  27.992
95129W        W95993  28.966  18.091  25.498
95130W        W95994  25.724  16.636  28.710
95131W        W95995  27.901  17.031  27.299
95132W        W95996  26.241  16.763  26.732
95133W        W95997  26.752  17.755  28.118
95134W        W95998  27.180  15.071  27.183
95135W        W95999  25.600  16.576  26.039
95136W        W96000  27.236  15.892  25.834
95137W        W96001  25.852  16.414  26.890
95138W        W96002  27.130  15.219  28.352
95139W        W96003  28.856  14.946  25.698
95140W        W96004  28.820  16.572  28.713
95141W        W96005  27.644  17.944  28.919
95142W        W96006  28.981  16.963  28.413
95143W        W96007  28.564  17.637   0.158
95144W        W96008  26.360  18.161  27.532
95145W        W96009   0.127  16.881  26.433
95146W        W96010  27.613  16.084  26.952
95147W        W96011  27.368  14.783  26.706
95148W        W96012  26.549  17.685  26.815
95149W        W96013  26.913  15.518  27.988
95150W        W96014  26.808  14.760  27.425
95151W        W96015  25.798  17.903  25.920
95152W        W96016  27.438  16.979  26.578
95153W        W96017  26.549  17.936  28.548
95154W        W96018  25.838  16.264  26.401
95155W        W96019  25.816  15.089  27.208
95156W        W96020  27.461  17.185  27.079
95157W        W96021  25.698  15.042  26.281
95158W        W96022  28.029  16.217  28.179
95159W        W96023  28.220  15.543  25.780
95160W        W96024  28.722  17.199  27.446
95161W        W96025  27.268  17.646  27.258
95162W        W96026  26.870  17.834  26.376
95163W        W96027  27.857  14.708  25.550
95164W        W96028  25.888  17.953  27.586
95165W        W96029  27.768  15.623  28.827
95166W        W96030  25.867  15.465   0.038
95167W        W96031  25.799  15.782  26.640
95168W        W96032  26.428  15.857  26.330
95169W        W96033  27.861  16.124  28.720
95170W        W96034  26.464  16.538  27.652
95171W        W96035  27.909  14.759  26.735
95172W        W96036  27.209  18.169  27.226
95173W        W96037  28.253  17.627  28.021
95174W        W96038  28.236  17.664  27.060
95175W        W96039  27.902  16.827  26.803
95176W        W96040  27.358  15.040  26.005
95177W        W96041   0.003  14.684  26.745
95178W        W96042  26.718  16.280  25.459
95179W        W96043  28.847  15.660  26.748
95180W        W96044  27.589  16.774  25.766
95181W        W96045  28.474  16.882  28.455
95182W        W96046  28.299  17.652  25.714
95183W        W96047  26.743  15.344  28.730
95184W        W96048  26.656  15.963  28.027
95185W        W96049  28.624  17.356  28.288
95186W        W96050  27.679  15.245  28.453
95187W        W96051  25.522  15.896  28.394
95188W        W96052  27.339  16.477  27.899
95189W        W96053  25.811  16.924  26.961
95190W        W96054  25.950  16.343  27.586
95191W        W96055  28.178  16.717  28.056
95192W        W96056  28.155  17.868  28.912
95193W        W96057  27.832  15.739  28.293
95194W        W96058  28.173  17.988  26.635
95195W        W96059  27.264  17.644  28.109
95196W        W96060  26.536  17.667  27.660
95197W        W96061  28.445  17.121  27.877
95198W        W96062  27.482  17.090   0.023
95199W        W96063  26.196  17.125  27.216
95200W        W96064  28.400  16.671  26.918
95201W        W96065  28.060  17.904  27.603
95202W        W96066  26.046  17.452  27.602
95203W        W96067  27.070  15.675  28.964
95204W        W96068  27.626  17.978  26.507
95205W        W96069  26.997  17.195  28.921
95206W        W96070  27.044  17.306  26.383
95207W        W96071  26.332  15.897  25.383
95208W        W96072  25.576  21.959   3.420
95209W        W96073  25.923  20.752   2.807
95210W        W96074  28.634  20.477   0.740
95211W        W96075  28.953  21.535   2.681
95212W        W96076  26.923  21.581   0.403
95213W        W96077  26.733  19.578   1.127
95214W        W96078  26.326  19.329   1.395
95215W        W96079  27.288  20.351   0.794
95216W        W96080  26.970  21.541   3.066
95217W        W96081  25.642  18.971   2.891
95218W        W96082  26.201  18.235   2.850
95219W        W96083  28.060  18.758   1.687
95220W        W96084  27.731  19.425   0.445
95221W        W96085  28.301  18.980   3.288
95222W        W96086  25.785  18.460   2.608
95223W        W96087  25.742  21.466   3.488
95224W        W96088  27.377  20.852   0.643
95225W        W96089  25.653  19.530   1.940
95226W        W96090  26.751  19.536   3.221
95227W        W96091  28.851  19.248   1.804
95228W        W96092  28.807  20.321   2.682
95229W        W96093  27.089  19.772   1.490
95230W        W96094  27.811  21.093   2.037
95231W        W96095  26.244  20.343   2.088
95232W        W96096  25.402  19.978   1.856
95233W        W96097  26.765  20.036   3.103
95234W        W96098  28.794  19.678   3.248
95235W        W96099  26.449  21.105   1.726
95236W        W96100  27.616  20.912   2.748
95237W        W96101  26.994  19.519   1.940
95238W        W96102  26.982  20.233   1.718
95239W        W96103  27.843  21.201   3.512
95240W        W96104  27.082  20.355   3.455
95241W        W96105  27.236  20.182   2.992
95242W        W96106  25.531  19.315   3.285
95243W        W96107  28.294  20.964   3.313
95244W        W96108  26.016  18.431   1.127
95245W        W96109  26.445  20.894   2.211
95246W        W96110   0.013  20.717   1.628
95247W        W96111  28.526  18.790   1.911
95248W        W96112  28.610  19.024   0.092
95249W        W96113   0.127  19.845   2.426
95250W        W96114  27.147  21.452   2.214
95251W        W96115  28.811  20.965   0.772
95252W        W96116  26.074  21.753   0.695
95253W        W96117  26.394  21.662   1.123
95254W        W96118  26.293  18.482   2.392
95255W        W96119  28.764  19.621   2.717
95256W        W96120  28.087  19.895   1.343
95257W        W96121  28.097  19.656   0.174
95258W        W96122  27.364  20.947   2.278
95259W        W96123  27.353  19.333   1.609
95260W        W96124  27.720  21.348   2.499
95261W        W96125  28.641  20.058   1.033
95262W        W96126  27.617  18.673   1.073
95263W        W96127  26.184  21.253   0.832
95264W        W96128  25.700  18.804   1.238
95265W        W96129  28.350  19.301   1.914
95266W        W96130  25.844  21.144   1.801
95267W        W96131  27.245  21.360   0.757
95268W        W96132  28.543  19.504  28.975
95269W        W96133  25.671  21.255   2.276
95270W        W96134  26.439  20.855   2.831
95271W        W96135  26.719  20.093   1.290
95272W        W96136  26.732  18.693   2.134
95273W        W96137   0.010  18.342   1.797
95274W        W96138  26.137  19.988   0.416
95275W        W96139  25.998  19.232   0.496
95276W        W96140  26.037  21.081   1.333
95277W        W96141  26.903  20.599   1.356
95278W        W96142  28.498  21.494   2.948
95279W        W96143  27.465  19.109   0.760
95280W        W96144  28.702  21.674   1.519
95281W        W96145  28.327  19.512   2.955
95282W        W96146   0.114  20.979   1.200
95283W        W96147  27.729  20.415   2.793
95284W        W96148  25.484  19.892   0.974
95285W        W96149  26.553  20.474   2.478
95286W        W96150  27.766  19.566   0.945
95287W        W96151  27.675  20.064   1.024
95288W        W96152  25.948  19.414   2.370
95289W        W96153  26.018  19.334   2.877
95290W        W96154  25.923  18.323   1.611
95291W        W96155  27.625  18.686   2.160
95292W        W96156  27.410  18.848   3.282
95293W        W96157  27.861  18.749   0.470
95294W        W96158  28.983  21.520   3.190
95295W        W96159  27.840  18.391   3.108
95296W        W96160  28.779  20.772   3.438
95297W        W96161  28.312  18.966   2.770
95298W        W96162  28.110  18.843   1.176
95299W        W96163  28.462  19.971   3.550
95300W        W96164  26.145  21.540   1.585
95301W        W96165  26.937  19.231   0.778
95302W        W96166  26.359  18.607   3.177
95303W        W96167  28.512  19.238   0.985
95304W        W96168  28.796  19.631   0.792
95305W        W96169  26.613  21.773   3.403
95306W        W96170  26.591  18.179   0.543
95307W        W96171  28.894  18.780   1.564
95308W        W96172  28.937  21.150   0.280
95309W        W96173  25.834  20.252   1.775
95310W        W96174  27.923  18.771  28.922
95311W        W96175   0.000  21.149   1.906
95312W        W96176  28.909  18.424   2.339
95313W        W96177  27.542  19.776   3.111
95314W        W96178  27.787  20.971   0.973
95315W        W96179  27.970  20.191   3.675
95316W        W96180  27.689  18.372   1.624
95317W        W96181  26.055  19.210   1.908
95318W        W96182  26.028  20.331   2.543
95319W        W96183  27.755  21.471   1.556
95320W        W96184  28.587  19.087   2.325
95321W        W96185  27.552  21.620   2.918
95322W        W96186  28.657  20.345   0.243
95323W        W96187  27.273  20.224   1.302
95324W        W96188   0.003  18.361   2.848
95325W        W96189  27.257  20.544   2.611
95326W        W96190  27.524  19.181   2.081
95327W        W96191  28.272  19.700   0.897
95328W        W96192  28.437  19.412   0.491
95329W        W96193  28.430  21.139   1.057
95330W        W96194  28.487  20.733   1.709
95331W        W96195  27.933  19.942   0.586
95332W        W96196  27.505  20.151   1.752
95333W        W96197  28.486  19.856   1.812
95334W        W96198  25.824  18.887   2.312
95335W        W96199  28.490  20.010   2.991
95336W        W96200  28.974  21.593   2.147
95337W        W96201  26.953  21.094   1.510
95338W        W96202  28.063  21.696   2.716
95339W        W96203  27.729  19.058   2.534
95340W        W96204  27.130  21.782   2.629
95341W        W96205  28.726  18.762   1.068
95342W        W96206  28.672  20.063   2.265
95343W        W96207  25.456  19.250   2.331
95344W        W96208  28.473  19.058   1.471
95345W        W96209  28.725  19.198   3.049
95346W        W96210  27.717  20.934   1.516
95347W        W96211  26.981  21.504   1.187
95348W        W96212  26.064  18.695   0.524
95349W        W96213  27.216  18.384   2.088
95350W        W96214  26.113  21.718   0.192
95351W        W96215  26.574  19.925   0.748
95352W        W96216  27.317  20.673   3.105
95353W        W96217  27.168  18.943   1.202
95354W        W96218  28.452  18.512   1.450
95355W        W96219  28.168  21.755   1.744
95356W        W96220  27.609  21.589   2.045
95357W        W96221  26.984  20.499   2.171
95358W        W96222  28.742  21.181   2.375
95359W        W96223  26.444  18.551   0.891
95360W        W96224  26.912  21.009   2.011
95361W        W96225  26.378  19.099   0.121
95362W        W96226  27.249  19.416   2.433
95363W        W96227  28.039  18.401   2.085
95364W        W96228  25.624  20.302   2.242
95365W        W96229  27.020  20.049   0.452
95366W        W96230  26.501  18.601   0.245
95367W        W96231  27.267  19.466   1.105
95368W        W96232  27.996  18.588   2.605
95369W        W96233  26.841  20.529   2.937
95370W        W96234  27.624  20.269   3.293
95371W        W96235  28.101  20.318   3.148
95372W        W96236  27.432  18.496   3.653
95373W        W96237  26.549  19.134   1.845
95374W        W96238  26.194  18.829   1.432
95375W        W96239  25.878  21.552   1.137
95376W        W96240  27.424  21.178   3.170
95377W        W96241  26.455  20.396   0.502
95378W        W96242  28.035  20.140   1.802
95379W        W96243  28.054  19.690   2.064
95380W        W96244  27.513  20.445   2.173
95381W        W96245  27.931  20.806   0.374
95382W        W96246  27.565  18.874   1.662
95383W        W96247   0.023  19.153   0.813
95384W        W96248  25.859  21.572   2.953
95385W        W96249  25.942  20.799   2.283
95386W        W96250  25.529  21.675   0.771
95387W        W96251  27.201  18.878   2.398
95388W        W96252  26.916  21.063   0.464
95389W        W96253  28.639  21.459   0.638
95390W        W96254  27.441  19.821   0.631
95391W        W96255  26.611  19.002   1.113
95392W        W96256  27.484  19.015   0.226
95393W        W96257  27.800  20.765   3.230
95394W        W96258  28.258  18.559   0.768
95395W        W96259  25.716  18.305   0.339
95396W        W96260  26.881  20.892   2.518
95397W        W96261  26.623  20.599   1.807
95398W        W96262  26.506  20.873   0.217
95399W        W96263  25.690  21.106   0.943
95400W        W96264  26.347  19.750   2.954
95401W        W96265  26.861  18.546   3.302
95402W        W96266  27.520  18.627   2.741
95403W        W96267  26.867  18.355   1.218
95404W        W96268  27.776  18.311   0.727
95405W        W96269  25.848  18.399   2.113
95406W        W96270  25.816  19.241   1.472
95407W        W96271  28.531  18.273   1.970
95408W        W96272  26.099  18.989   0.957
95409W        W96273  28.436  18.589   2.372
95410W        W96274  28.852  19.871   0.127
95411W        W96275  26.268  18.667   1.902
95412W        W96276  27.377  19.177   2.892
95413W        W96277  25.602  18.799   0.312
95414W        W96278  26.365  20.302   2.923
95415W        W96279  27.533  19.678   1.957
95416W        W96280  27.430  21.737   0.406
95417W        W96281  25.759  20.241   0.117
95418W        W96282  26.536  20.963   3.345
95419W        W96283  25.913  19.839   2.664
95420W        W96284  26.920  20.142   2.586
95421W        W96285  28.455  18.403   2.854
95422W        W96286   0.089  19.979   2.935
95423W        W96287  28.952  20.105   0.601
95424W        W96288  27.768  20.494   0.750
95425W        W96289  28.398  21.799   0.302
95426W        W96290  27.656  19.714   3.616
95427W        W96291  26.132  20.633   3.255
95428W        W96292   0.227  18.784   3.485
95429W        W96293  28.723  19.560   2.203
95430W        W96294  27.119  21.729   3.521
95431W        W96295  26.994  18.443   0.318
95432W        W96296  28.481  20.836   0.388
95433W        W96297  26.465  19.117   3.030
95434W        W96298  26.921  21.034   3.010
95435W        W96299  28.787  18.797   2.686
95436W        W96300  28.173  21.726   0.764
95437W        W96301  28.346  20.439   2.140
95438W        W96302  26.627  18.811   2.635
95439W        W96303  27.156  19.838   3.445
95440W        W96304  26.539  20.859   0.766
95441W        W96305  28.168  20.258   0.984
95442W        W96306  26.124  18.828   2.755
95443W        W96307  27.397  21.223   1.247
95444W        W96308   0.052  19.768   1.214
95445W        W96309  27.313  18.368   3.138
95446W        W96310  28.313  20.976   2.129
95447W        W96311  28.542  21.409   1.935
95448W        W96312  27.692  21.270   0.531
95449W        W96313  25.606  20.993   3.244
95450W        W96314  26.315  19.008   2.292
95451W        W96315  26.405  18.341   1.463
95452W        W96316  28.086  18.925   2.177
95453W        W96317  26.970  20.559   0.409
95454W        W96318  28.763  20.309   1.829
95455W        W96319  26.087  21.144   3.132
95456W        W96320  28.600  21.839   1.023
95457W        W96321  26.714  18.749   1.557
95458W        W96322  26.309  20.206   1.579
95459W        W96323  26.720  21.923   2.354
95460W        W96324  28.627  21.864   3.297
95461W        W96325  27.910  20.133   2.316
95462W        W96326  25.715  19.720   0.554
95463W        W96327  28.879  21.418   1.086
95464W        W96328  28.593  18.929   0.590
95465W        W96329  26.707  18.332   2.834
95466W        W96330  28.696  21.148   1.494
95467W        W96331  28.556  19.641   1.340
95468W        W96332  26.871  19.263   1.485
95469W        W96333  27.102  19.706   2.850
95470W        W96334  28.116  20.783   2.846
95471W        W96335  26.888  19.246   2.776
95472W        W96336  26.657  21.555   1.564
95473W        W96337  26.089  21.834   3.341
95474W        W96338  26.442  21.368   0.365
95475W        W96339  28.674  20.685   1.213
95476W        W96340  26.431  19.404   2.589
95477W        W96341  28.936  19.402   0.350
95478W        W96342  26.795  20.408   0.887
95479W        W96343  27.927  19.939   2.813
95480W        W96344  27.722  19.610   2.448
95481W        W96345  26.390  19.964   2.486
95482W        W96346  28.516  21.661   2.415
95483W        W96347  28.292  18.466   3.348
95484W        W96348  25.841  18.537   3.095
95485W        W96349  26.390  19.571   2.098
95486W        W96350  26.673  19.455   0.378
95487W        W96351  25.601  21.143   2.763
95488W        W96352  27.164  19.992   2.138
95489W        W96353  26.922  18.976   0.268
95490W        W96354  26.274  19.804   1.194
95491W        W96355  25.796  21.753   2.474
95492W        W96356  28.462  19.927   0.472
95493W        W96357  28.751  18.692   3.189
95494W        W96358  28.161  20.754   1.319
95495W        W96359  25.850  19.723   3.154
95496W        W96360  28.732  18.440   0.546
95497W        W96361  28.218  20.750   0.818
95498W        W96362  27.062  19.919   0.953
95499W        W96363  28.319  18.634   0.245
95500W        W96364  28.162  19.346   2.461
95501W        W96365  26.052  19.717   1.662
95502W        W96366  26.388  20.687   1.342
95503W        W96367  28.116  19.378   1.277
95504W        W96368  27.083  18.974   1.878
95505W        W96369   0.060  20.777   2.550
95506W        W96370   0.015  18.868   2.106
95507W        W96371  25.574  21.484   1.546
95508W        W96372  26.058  20.733   0.917
95509W        W96373  25.962  18.583   3.596
95510W        W96374  27.347  21.286   3.664
95511W        W96375  28.979  20.268   1.366
95512W        W96376  28.203  20.374   0.480
95513W        W96377  27.611  21.884   2.478
95514W        W96378  28.390  20.477   3.536
95515W        W96379  27.088  18.196   0.770
95516W        W96380  27.867  19.309   1.720
95517W        W96381  25.601  20.705   1.906
95518W        W96382  26.917  18.707   0.779
95519W        W96383  26.589  20.440   3.390
95520W        W96384  27.666  19.154   1.240
95521W        W96385  27.936  20.688   2.373
95522W        W96386  26.100  21.213   2.617
95523W        W96387  26.808  21.320   3.613
95524W        W96388  26.500  18.988   0.604
95525W        W96389  28.043  19.156   0.769
95526W        W96390  27.930  21.254   2.999
95527W        W96391  26.590  19.713   1.633
95528W        W96392  26.302  21.672   2.481
95529W        W96393  28.927  21.668   0.269
95530W        W96394  25.845  20.248   3.027
95531W        W96395  27.984  20.648   1.839
95532W        W96396  26.306  20.289   1.031
95533W        W96397  26.744  21.406   2.594
95534W        W96398  27.191  18.549   1.568
95535W        W96399  25.625  20.677   0.614
95536W        W96400  27.208  19.433   0.379
95537W        W96401  25.846  20.074   1.293
95538W        W96402  27.058  18.745   2.878
95539W        W96403  28.794  18.507   0.027
95540W        W96404  28.844  20.229   3.317
95541W        W96405  27.613  21.667   3.428
95542W        W96406   0.057  20.617   3.034
95543W        W96407  28.685  21.274   3.531
95544W        W96408  26.294  21.874   1.993
95545W        W96409   0.109  20.525   0.931
95546W        W96410  27.609  19.735   1.426
95547W        W96411  27.442  18.195   1.174
95548W        W96412  26.535  21.165   1.222
95549W        W96413  26.801  19.183   2.281
95550W        W96414  26.785  18.294   1.809
95551W        W96415  25.789  21.363   0.455
95552W        W96416  27.395  20.701   1.173
95553W        W96417  26.404  21.536   2.988
95554W        W96418  25.861  20.221   0.781
95555W        W96419  25.778  18.799   1.769
95556W        W96420  27.281  20.669   1.728
95557W        W96421  25.634  18.530   0.792
95558W        W96422  28.316  19.820   2.514
95559W        W96423  28.104  19.131   0.239
95560W        W96424  28.791  20.730   2.116
95561W        W96425  27.366  21.186   1.801
95562W        W96426  26.693  21.383   0.800
95563W        W96427  27.934  18.278   0.206
95564W        W96428  25.829  21.647   1.969
95565W        W96429  27.866  19.275   3.426
95566W        W96430  26.012  18.991   3.257
95567W        W96431  25.829  19.471   1.008
95568W        W96432  26.347  19.433   0.828
95569W        W96433  28.042  19.807   3.294
95570W        W96434  26.652  20.039   2.050
95571W        W96435  28.008  18.312   1.194
95572W        W96436  27.168  21.644   1.697
95573W        W96437  28.253  21.211   2.585
95574W        W96438  28.177  21.168   1.653
95575W        W96439  27.796  20.401   1.393
95576W        W96440  27.384  18.620   0.592
95577W        W96441   0.046  18.362   1.256
95578W        W96442  26.596  19.942   0.204
95579W        W96443  28.918  19.278   1.298
95580W        W96444  27.495  20.268   0.333
95581W        W96445  28.538  20.563   3.040
95582W        W96446  28.187  21.219   0.603
95583W        W96447  26.936  19.060   3.259
95584W        W96448  26.816  19.683   2.402
95585W        W96449  28.773  21.050   2.930
95586W        W96450  27.856  18.908   3.023
95587W        W96451  25.534  19.481   2.786
95588W        W96452  27.452  20.034   2.560
95589W        W96453  25.849  20.584   1.365
95590W        W96454  25.966  19.903   2.151
95591W        W96455  28.258  20.323   2.646
95592W        W96456  28.114  21.678   3.261
95593W        W96457  27.839  19.412   2.912
95594W        W96458  28.256  21.546   1.286
95595W        W96459  27.240  21.266   2.685
95596W        W96460  26.659  21.484   2.072
95597W        W96461  28.530  20.749   2.552
95598W        W96462  27.483  20.662   3.626
95599W        W96463  26.114  20.718   1.782
95600W        W96464  28.409  20.288   1.451
95601W        W96465  28.096  21.499   2.182
95602W        W96466  26.182  21.323   2.123
95603W        W96467  27.339  19.358   3.394
95604W        W96468  27.796  21.477   1.021
95605W        W96469  27.046  20.883   3.484
95606W        W96470  26.987  20.977   0.995
95607W        W96471  25.960  19.607   0.106
95608W        W96472  25.657  21.795   7.123
95609W        W96473  26.067  20.768   6.595
95610W        W96474  28.690  20.494   4.304
95611W        W96475  28.702  21.545   6.387
95612W        W96476  26.558  21.656   3.951
95613W        W96477  26.824  19.577   4.745
95614W        W96478  26.303  19.410   4.906
95615W        W96479  27.315  20.202   4.373
95616W        W96480  27.122  21.514   6.693
95617W        W96481  25.578  18.940   6.642
95618W        W96482  26.265  18.064   6.531
95619W        W96483  28.246  18.643   5.286
95620W        W96484  27.804  19.359   3.972
95621W        W96485  28.327  19.114   6.969
95622W        W96486  25.727  18.661   6.217
95623W        W96487  25.808  21.304   7.205
95624W        W96488  27.109  20.989   4.000
95625W        W96489  25.801  19.327   5.694
95626W        W96490  26.829  19.404   6.860
95627W        W96491   0.011  19.099   5.406
95628W        W96492  28.779  20.440   6.382
95629W        W96493  27.254  19.519   5.075
95630W        W96494  27.823  21.081   5.729
95631W        W96495  26.277  20.255   5.856
95632W        W96496  25.602  19.801   5.569
95633W        W96497  26.733  20.007   6.458
95634W        W96498  28.808  19.685   7.084
95635W        W96499  26.500  21.097   5.340
95636W        W96500  27.820  20.947   6.234
95637W        W96501  27.064  19.232   5.565
95638W        W96502  27.123  20.237   5.301
95639W        W96503  27.900  21.115   7.091
95640W        W96504  27.292  20.303   7.054
95641W        W96505  27.220  20.090   6.597
95642W        W96506  25.267  19.251   7.022
95643W        W96507  28.356  21.127   6.770
95644W        W96508  25.983  18.489   4.794
95645W        W96509  26.721  20.878   5.795
95646W        W96510   0.087  20.595   5.161
95647W        W96511  28.507  19.014   5.557
95648W        W96512  28.715  19.020   3.608
95649W        W96513   0.106  19.660   5.966
95650W        W96514  27.254  21.556   5.915
95651W        W96515  28.852  20.972   4.398
95652W        W96516  26.142  21.881   4.393
95653W        W96517  26.409  21.704   4.787
95654W        W96518  26.226  18.498   6.234
95655W        W96519  28.808  19.436   6.334
95656W        W96520  28.160  19.921   4.797
95657W        W96521  28.121  19.737   3.869
95658W        W96522  27.563  20.657   5.865
95659W        W96523  27.191  19.015   5.116
95660W        W96524  27.747  21.436   6.089
95661W        W96525  28.661  20.071   4.595
95662W        W96526  27.806  18.762   4.591
95663W        W96527  26.264  21.331   4.465
95664W        W96528  25.643  18.857   4.862
95665W        W96529  28.305  19.485   5.293
95666W        W96530  25.985  21.103   5.449
95667W        W96531  27.051  21.508   4.029
95668W        W96532  28.385  19.456   3.468
95669W        W96533  25.787  21.114   5.928
95670W        W96534  26.543  20.853   6.291
95671W        W96535  26.790  20.295   4.915
95672W        W96536  26.567  18.621   5.871
95673W        W96537   0.080  18.307   5.352
95674W        W96538  26.230  20.047   3.354
95675W        W96539  25.880  19.093   3.736
95676W        W96540  26.147  21.089   4.935
95677W        W96541  26.912  20.792   4.896
95678W        W96542  28.310  21.644   6.714
95679W        W96543  27.531  19.123   4.324
95680W        W96544  28.640  21.675   5.085
95681W        W96545  28.454  19.560   6.734
95682W        W96546   0.140  20.966   4.821
95683W        W96547  27.792  20.431   6.290
95684W        W96548  25.473  19.946   4.723
95685W        W96549  26.753  20.377   6.083
95686W        W96550  27.814  19.544   4.481
95687W        W96551  27.668  19.997   4.688
95688W        W96552  26.156  19.427   6.081
95689W        W96553  26.092  19.459   6.590
95690W        W96554  25.984  18.333   5.268
95691W        W96555  27.824  18.779   5.589
95692W        W96556  27.445  18.815   6.689
95693W        W96557  27.858  18.795   4.042
95694W        W96558  28.791  21.444   6.886
95695W        W96559  27.703  18.438   6.949
95696W        W96560  28.798  20.974   7.052
95697W        W96561  28.423  19.099   6.463
95698W        W96562  28.279  18.858   4.807
95699W        W96563  28.496  20.131   7.156
95700W        W96564  26.200  21.520   5.213
95701W        W96565  27.056  19.082   4.130
95702W        W96566  26.398  18.500   6.776
95703W        W96567  28.586  19.218   4.542
95704W        W96568  28.855  19.618   4.322
95705W        W96569  26.571  21.692   7.069
95706W        W96570  26.516  18.353   4.174
95707W        W96571  28.762  18.688   5.190
95708W        W96572   0.115  21.124   3.821
95709W        W96573  25.935  20.221   5.449
95710W        W96574  27.881  18.751   3.525
95711W        W96575  28.938  18.395   6.140
95712W        W96576  27.609  19.705   6.693
95713W        W96577  27.376  20.739   4.389
95714W        W96578  28.013  20.422   7.130
95715W        W96579  27.595  18.349   5.406
95716W        W96580  26.260  19.288   5.435
95717W        W96581  25.820  20.375   6.373
95718W        W96582  27.671  21.593   5.056
95719W        W96583  28.979  19.144   5.921
95720W        W96584  27.595  21.699   6.522
95721W        W96585  28.815  20.365   3.809
95722W        W96586  27.180  19.969   4.848
95723W        W96587   0.048  18.489   6.641
95724W        W96588  27.295  20.336   6.171
95725W        W96589  27.560  19.230   5.404
95726W        W96590  28.327  19.637   4.388
95727W        W96591  28.545  19.449   3.956
95728W        W96592  28.494  21.223   4.688
95729W        W96593  28.305  20.675   5.377
95730W        W96594  28.042  20.057   4.298
95731W        W96595  27.570  20.027   5.209
95732W        W96596  28.586  19.909   5.369
95733W        W96597  26.065  18.936   5.923
95734W        W96598  28.531  20.048   6.642
95735W        W96599   0.018  21.649   5.917
95736W        W96600  27.000  21.156   5.243
95737W        W96601  28.076  21.774   6.267
95738W        W96602  27.996  19.019   6.151
95739W        W96603  27.167  21.891   6.322
95740W        W96604  28.727  18.711   4.575
95741W        W96605  28.682  19.967   5.895
95742W        W96606  25.694  19.185   6.201
95743W        W96607  28.628  19.163   5.054
95744W        W96608  28.821  19.225   6.816
95745W        W96609  27.806  20.828   5.260
95746W        W96610  27.089  21.488   4.846
95747W        W96611  26.081  18.657   4.089
95748W        W96612  27.328  18.335   5.864
95749W        W96613  26.052  21.774   3.871
95750W        W96614  26.834  20.011   4.468
95751W        W96615  27.372  20.621   6.603
95752W        W96616  27.293  18.703   4.689
95753W        W96617  28.473  18.375   4.896
95754W        W96618  28.068  21.818   5.311
95755W        W96619  27.669  21.649   5.607
95756W        W96620  27.091  20.516   5.733
95757W        W96621  28.748  21.167   6.021
95758W        W96622  26.413  18.645   4.579
95759W        W96623  27.218  21.052   5.757
95760W        W96624  26.486  18.993   3.529
95761W        W96625  27.432  19.392   5.897
95762W        W96626  28.253  18.586   5.796
95763W        W96627  25.733  20.180   5.916
95764W        W96628  27.066  19.943   3.992
95765W        W96629  26.502  18.497   3.674
95766W        W96630  27.114  19.179   4.633
95767W        W96631  28.242  18.588   6.330
95768W        W96632  26.850  20.514   6.583
95769W        W96633  27.692  20.227   6.762
95770W        W96634  28.160  20.373   6.644
95771W        W96635  27.297  18.427   7.267
95772W        W96636  26.785  18.817   5.421
95773W        W96637  26.191  18.916   5.001
95774W        W96638  25.891  21.506   4.795
95775W        W96639  27.453  21.103   6.786
95776W        W96640  26.662  20.275   4.054
95777W        W96641  28.079  19.969   5.305
95778W        W96642  28.250  19.731   5.740
95779W        W96643  27.438  20.134   5.723
95780W        W96644  27.987  20.735   3.710
95781W        W96645  27.619  18.744   5.096
95782W        W96646   0.060  19.080   4.375
95783W        W96647  25.725  21.439   6.698
95784W        W96648  26.081  20.713   6.058
95785W        W96649  25.623  21.895   4.583
95786W        W96650  27.529  18.825   6.031
95787W        W96651  26.637  21.174   4.111
95788W        W96652  28.744  21.384   4.092
95789W        W96653  27.619  19.854   4.117
95790W        W96654  26.606  19.137   4.499
95791W        W96655  27.469  19.016   3.775
95792W        W96656  27.871  20.775   6.715
95793W        W96657  28.254  18.618   4.353
95794W        W96658  25.652  18.264   3.936
95795W        W96659  27.069  20.786   6.173
95796W        W96660  26.768  20.616   5.356
95797W        W96661  26.687  20.741   3.817
95798W        W96662  25.714  21.085   4.564
95799W        W96663  26.444  19.788   6.827
95800W        W96664  26.839  18.434   7.040
95801W        W96665  27.715  18.466   6.414
95802W        W96666  26.858  18.343   4.756
95803W        W96667  27.773  18.337   4.269
95804W        W96668  25.931  18.463   5.774
95805W        W96669  25.831  19.273   5.147
95806W        W96670  28.587  18.306   5.503
95807W        W96671  26.003  18.975   4.513
95808W        W96672  28.612  18.813   6.063
95809W        W96673  28.908  19.809   3.773
95810W        W96674  26.263  18.763   5.488
95811W        W96675  27.550  19.244   6.378
95812W        W96676  25.543  18.764   3.937
95813W        W96677  26.339  20.364   6.372
95814W        W96678  27.728  19.703   5.598
95815W        W96679  27.460  21.821   3.933
95816W        W96680  25.470  19.954   3.380
95817W        W96681  26.531  20.873   6.816
95818W        W96682  26.078  19.928   6.233
95819W        W96683  27.036  19.914   6.033
95820W        W96684  28.594  18.228   6.502
95821W        W96685  28.937  19.938   6.367
95822W        W96686   0.001  20.102   4.203
95823W        W96687  27.714  20.446   4.083
95824W        W96688  28.479  21.739   3.774
95825W        W96689  27.642  19.899   7.185
95826W        W96690  26.093  20.819   7.109
95827W        W96691   0.003  18.822   7.071
95828W        W96692  28.718  19.499   5.657
95829W        W96693  27.092  21.670   7.206
95830W        W96694  26.987  18.362   3.962
95831W        W96695  28.670  20.852   3.926
95832W        W96696  26.538  19.023   6.671
95833W        W96697  26.957  21.038   6.589
95834W        W96698  28.942  18.943   6.420
95835W        W96699  28.294  22.030   4.173
95836W        W96700  28.321  20.248   5.660
95837W        W96701  26.704  18.646   6.372
95838W        W96702  27.183  19.768   6.994
95839W        W96703  26.514  20.864   4.523
95840W        W96704  28.266  20.417   4.591
95841W        W96705  26.090  18.956   6.441
95842W        W96706  27.372  21.034   4.874
95843W        W96707  28.938  19.569   5.218
95844W        W96708  27.258  18.307   6.761
95845W        W96709  28.343  21.056   5.720
95846W        W96710  28.632  21.477   5.594
95847W        W96711  27.634  20.993   3.996
95848W        W96712  25.614  20.942   6.892
95849W        W96713  26.530  19.067   6.137
95850W        W96714  26.482  18.504   5.114
95851W        W96715  28.015  19.256   5.666
95852W        W96716  27.132  20.482   3.973
95853W        W96717  28.788  20.377   5.507
95854W        W96718  26.179  21.251   6.836
95855W        W96719  28.628  21.834   4.569
95856W        W96720  26.786  18.841   4.878
95857W        W96721  26.421  20.218   5.284
95858W        W96722  26.796  21.839   5.972
95859W        W96723  28.733  21.947   6.827
95860W        W96724  27.910  20.077   5.924
95861W        W96725  25.728  19.594   3.661
95862W        W96726  28.950  21.441   4.714
95863W        W96727  28.602  18.946   4.114
95864W        W96728  26.785  18.183   6.574
95865W        W96729  28.503  21.140   5.196
95866W        W96730  28.586  19.656   4.870
95867W        W96731  26.741  19.286   5.163
95868W        W96732  27.126  19.601   6.468
95869W        W96733  28.332  20.770   6.361
95870W        W96734  27.021  19.085   6.441
95871W        W96735  26.714  21.603   5.192
95872W        W96736  26.098  21.768   6.845
95873W        W96737  26.286  21.399   3.551
95874W        W96738  28.667  20.718   4.825
95875W        W96739  26.587  19.495   6.418
95876W        W96740   0.044  19.320   3.911
95877W        W96741  26.909  20.532   4.449
95878W        W96742  27.972  19.947   6.418
95879W        W96743  27.909  19.547   6.076
95880W        W96744  26.529  19.826   6.023
95881W        W96745  28.513  21.820   5.983
95882W        W96746  28.194  18.408   6.818
95883W        W96747  25.889  18.448   6.643
95884W        W96748  26.663  19.572   5.605
95885W        W96749  26.876  19.340   3.697
95886W        W96750  25.643  21.015   6.397
95887W        W96751  27.179  19.734   5.551
95888W        W96752  26.991  18.810   3.711
95889W        W96753  26.438  19.912   4.848
95890W        W96754  25.797  21.588   6.219
95891W        W96755  28.520  20.001   4.077
95892W        W96756  28.598  18.715   6.743
95893W        W96757  28.174  20.845   4.892
95894W        W96758  25.955  19.969   6.726
95895W        W96759  28.708  18.414   4.146
95896W        W96760  28.335  20.875   4.335
95897W        W96761  27.293  19.642   4.461
95898W        W96762  28.322  18.611   3.838
95899W        W96763  28.411  19.289   5.995
95900W        W96764  25.995  19.765   5.193
95901W        W96765  26.419  20.655   4.992
95902W        W96766  28.168  19.366   4.801
95903W        W96767  27.307  18.765   5.556
95904W        W96768   0.128  20.775   6.187
95905W        W96769  28.931  18.674   5.688
95906W        W96770  25.695  21.519   5.299
95907W        W96771  26.034  20.683   4.642
95908W        W96772  25.920  18.500   7.313
95909W        W96773  27.301  21.181   7.271
95910W        W96774  28.955  20.100   5.045
95911W        W96775  28.261  20.449   4.036
95912W        W96776  27.625  21.935   6.053
95913W        W96777  28.330  20.820   7.177
95914W        W96778  27.218  18.204   4.401
95915W        W96779  28.000  19.081   5.183
95916W        W96780  25.747  20.667   5.633
95917W        W96781  26.891  18.671   4.376
95918W        W96782  26.809  20.153   6.957
95919W        W96783  27.606  19.190   4.833
95920W        W96784  28.088  20.639   5.902
95921W        W96785  26.136  21.196   6.322
95922W        W96786  26.830  21.248   7.042
95923W        W96787  26.568  18.871   4.036
95924W        W96788  28.121  19.134   4.331
95925W        W96789  27.903  21.309   6.604
95926W        W96790  26.813  19.834   5.192
95927W        W96791  26.331  21.630   6.122
95928W        W96792  28.993  21.655   3.710
95929W        W96793  25.754  20.430   6.882
95930W        W96794  27.839  20.384   5.510
95931W        W96795  26.420  20.344   4.554
95932W        W96796  26.835  21.280   6.144
95933W        W96797  27.117  18.507   5.156
95934W        W96798  25.390  20.549   4.383
95935W        W96799  27.306  19.489   3.936
95936W        W96800  26.038  20.225   4.929
95937W        W96801  27.195  18.550   6.315
95938W        W96802  28.820  18.488   3.648
95939W        W96803  28.980  20.147   6.874
95940W        W96804  27.563  21.560   7.029
95941W        W96805   0.085  20.651   6.767
95942W        W96806  28.490  21.326   7.279
95943W        W96807  26.426  21.712   5.620
95944W        W96808   0.075  20.461   4.637
95945W        W96809  27.804  19.590   5.081
95946W        W96810  27.448  18.246   4.874
95947W        W96811  26.633  21.233   4.852
95948W        W96812  27.002  18.881   5.958
95949W        W96813  26.898  18.324   5.577
95950W        W96814  25.797  21.515   4.269
95951W        W96815  27.321  20.464   4.850
95952W        W96816  26.593  21.430   6.587
95953W        W96817  25.827  20.235   4.451
95954W        W96818  25.777  18.802   5.349
95955W        W96819  27.295  20.733   5.313
95956W        W96820  25.663  18.581   4.408
95957W        W96821  28.393  19.730   6.248
95958W        W96822  28.204  19.100   3.793
95959W        W96823  28.828  20.942   5.536
95960W        W96824  27.493  21.226   5.361
95961W        W96825  26.757  21.556   4.449
95962W        W96826  27.936  18.266   3.740
95963W        W96827  25.957  21.549   5.728
95964W        W96828  27.835  19.261   7.009
95965W        W96829  26.046  18.844   6.939
95966W        W96830  25.651  19.408   4.687
95967W        W96831  26.843  19.534   4.221
95968W        W96832  28.088  19.909   6.913
95969W        W96833  26.763  20.104   5.643
95970W        W96834  27.949  18.364   4.972
95971W        W96835  27.213  21.668   5.324
95972W        W96836  28.265  21.277   6.222
95973W        W96837  28.029  21.301   5.309
95974W        W96838  27.927  20.369   4.994
95975W        W96839  27.368  18.655   4.157
95976W        W96840  28.998  18.356   4.853
95977W        W96841  26.690  19.961   3.613
95978W        W96842   0.011  19.391   4.764
95979W        W96843  27.453  20.158   3.750
95980W        W96844  28.590  20.546   6.841
95981W        W96845  28.272  21.170   3.828
95982W        W96846  26.996  18.910   6.928
95983W        W96847  26.920  19.408   6.029
95984W        W96848  28.789  21.008   6.518
95985W        W96849  27.966  18.875   6.668
95986W        W96850  25.580  19.527   6.590
95987W        W96851  27.513  19.853   6.194
95988W        W96852  25.944  20.666   5.170
95989W        W96853  26.104  19.782   5.709
95990W        W96854  28.336  20.255   6.177
95991W        W96855  28.056  21.583   7.164
95992W        W96856  28.013  19.405   6.550
95993W        W96857  28.179  21.607   4.860
95994W        W96858  27.346  21.209   6.295
95995W        W96859  26.827  21.400   5.652
95996W        W96860  28.628  20.641   5.926
95997W        W96861  27.570  20.728   7.140
95998W        W96862  26.283  20.676   5.558
95999W        W96863  28.455  20.290   5.058
96000W        W96864  28.143  21.527   5.770
96001W        W96865  26.325  21.192   5.835
96002W        W96866  27.340  19.292   6.847
96003W        W96867  27.383  21.431   4.421
96004W        W96868  27.071  20.780   7.010
96005W        W96869  26.993  21.093   4.492
96006W        W96870  26.235  19.449   3.373
96007W        W96871  25.663  21.969  10.723
96008W        W96872  26.091  20.822  10.302
96009W        W96873  28.727  20.470   7.897
96010W        W96874  28.852  21.591  10.003
96011W        W96875  26.735  21.535   7.551
96012W        W96876  27.700  19.974   8.716
96013W        W96877  26.316  19.740   9.132
96014W        W96878  27.404  20.378   7.929
96015W        W96879  27.123  21.606  10.429
96016W        W96880  25.597  19.034  10.417
96017W        W96881  26.188  18.282  10.202
96018W        W96882  28.105  18.633   9.005
96019W        W96883  28.102  19.583   7.751
96020W        W96884  28.268  19.104  10.657
96021W        W96885  25.787  18.643   9.978
96022W        W96886  25.900  21.482  10.801
96023W        W96887  27.484  20.857   7.643
96024W        W96888  25.469  19.307   9.440
96025W        W96889  26.657  19.517  10.658
96026W        W96890  28.882  19.374   9.037
96027W        W96891  28.785  20.355   9.898
96028W        W96892  27.297  19.768   9.065
96029W        W96893  27.762  21.112   9.342
96030W        W96894  25.983  20.529   9.632
96031W        W96895  25.407  19.813   9.231
96032W        W96896  26.647  19.966  10.414
96033W        W96897  28.754  19.705  10.569
96034W        W96898  26.555  21.127   9.056
96035W        W96899  27.610  20.907  10.131
96036W        W96900  27.137  19.463   9.459
96037W        W96901  27.149  20.322   9.205
96038W        W96902  27.801  21.246  10.883
96039W        W96903  27.262  20.333  10.874
96040W        W96904  27.123  20.178  10.412
96041W        W96905  25.521  19.400  10.770
96042W        W96906  28.254  21.081  10.678
96043W        W96907  25.963  18.419   8.503
96044W        W96908  26.599  21.081   9.577
96045W        W96909  28.969  20.668   8.870
96046W        W96910  28.530  18.823   9.245
96047W        W96911  28.702  19.206   7.319
96048W        W96912   0.286  19.733   9.815
96049W        W96913  27.407  21.474   9.549
96050W        W96914  28.792  20.964   8.076
96051W        W96915  26.033  21.954   7.782
96052W        W96916  26.337  21.766   8.448
96053W        W96917  26.251  18.530   9.730
96054W        W96918  28.784  19.426   9.980
96055W        W96919  28.222  19.933   8.619
96056W        W96920  28.070  20.011   7.442
96057W        W96921  27.394  20.955   9.666
96058W        W96922  27.357  19.003   8.741
96059W        W96923  27.780  21.299   9.846
96060W        W96924  28.630  20.137   8.312
96061W        W96925  27.861  18.676   8.128
96062W        W96926  26.276  21.476   7.794
96063W        W96927  25.578  18.779   8.657
96064W        W96928  28.376  19.346   9.133
96065W        W96929  27.220  21.317   7.778
96066W        W96930  28.309  19.571   7.242
96067W        W96931  25.718  21.248   9.609
96068W        W96932  26.502  21.064  10.130
96069W        W96933  26.647  20.307   9.092
96070W        W96934  26.683  18.798   9.554
96071W        W96935   0.139  18.285   9.002
96072W        W96936  26.314  20.377   6.877
96073W        W96937  25.957  18.996   7.431
96074W        W96938  26.121  21.130   8.745
96075W        W96939  27.329  20.930   8.645
96076W        W96940  28.478  21.462  10.351
96077W        W96941  27.764  18.916   7.658
96078W        W96942  28.651  21.743   8.790
96079W        W96943  28.273  19.560  10.380
96080W        W96944   0.020  21.050   8.532
96081W        W96945  27.761  20.434  10.052
96082W        W96946  25.407  19.645   8.669
96083W        W96947  26.437  20.599   9.900
96084W        W96948  27.927  19.639   8.289
96085W        W96949  27.783  20.137   8.242
96086W        W96950  25.954  19.519   9.905
96087W        W96951  26.008  19.475  10.542
96088W        W96952  25.970  18.406   9.015
96089W        W96953  27.611  18.781   9.162
96090W        W96954  27.303  18.870  10.725
96091W        W96955  28.193  18.635   7.671
96092W        W96956   0.008  21.522  10.500
96093W        W96957  27.750  18.388  10.655
96094W        W96958  28.744  20.901  10.670
96095W        W96959  28.382  19.111  10.153
96096W        W96960  28.190  18.865   8.546
96097W        W96961  28.446  20.074  10.836
96098W        W96962  26.278  21.579   8.945
96099W        W96963  27.288  19.076   7.736
96100W        W96964  26.405  18.558  10.660
96101W        W96965  28.569  19.176   8.279
96102W        W96966  28.929  19.554   8.164
96103W        W96967  26.654  21.758  10.680
96104W        W96968  26.458  18.257   7.883
96105W        W96969   0.038  18.768   8.836
96106W        W96970   0.016  21.231   7.454
96107W        W96971  25.784  20.155   9.319
96108W        W96972  27.984  18.778   7.194
96109W        W96973  28.878  21.200   9.065
96110W        W96974  28.819  18.430   9.736
96111W        W96975  27.567  19.673  10.414
96112W        W96976  27.840  21.012   8.012
96113W        W96977  27.795  20.355  10.982
96114W        W96978  27.717  18.276   9.005
96115W        W96979  26.128  19.243   9.192
96116W        W96980  25.895  20.394  10.110
96117W        W96981  27.751  21.715   8.711
96118W        W96982  28.844  19.111   9.541
96119W        W96983  27.601  21.648  10.205
96120W        W96984  28.816  20.537   7.316
96121W        W96985  27.474  20.450   8.819
96122W        W96986  28.976  18.454  10.240
96123W        W96987  27.223  20.495   9.989
96124W        W96988  27.500  19.293   9.143
96125W        W96989  28.423  19.673   8.180
96126W        W96990  28.575  19.368   7.799
96127W        W96991  28.374  21.253   8.184
96128W        W96992  28.297  20.807   8.967
96129W        W96993  28.208  20.076   7.943
96130W        W96994  27.632  20.117   9.206
96131W        W96995  28.555  19.846   9.057
96132W        W96996  26.003  18.984   9.632
96133W        W96997  28.497  20.058  10.302
96134W        W96998  28.908  21.642   9.367
96135W        W96999  26.995  21.285   8.804
96136W        W97000  28.095  21.702  10.077
96137W        W97001  27.956  18.974   9.879
96138W        W97002  27.208  21.836   9.911
96139W        W97003  28.818  18.740   8.375
96140W        W97004  28.512  20.075   9.547
96141W        W97005  25.606  19.143   9.913
96142W        W97006  28.596  19.041   8.779
96143W        W97007  28.794  19.208  10.457
96144W        W97008  27.782  20.890   8.853
96145W        W97009  27.245  21.710   8.661
96146W        W97010  26.026  18.586   7.808
96147W        W97011  27.188  18.198   9.456
96148W        W97012  26.121  21.697   7.347
96149W        W97013  27.433  19.736   8.222
96150W        W97014  27.313  20.664  10.471
96151W        W97015  27.337  18.635   8.298
96152W        W97016  28.557  18.523   8.773
96153W        W97017  28.172  21.805   9.000
96154W        W97018  27.656  21.796   9.210
96155W        W97019  26.961  20.728   9.458
96156W        W97020  28.715  21.241   9.640
96157W        W97021  26.396  18.613   8.253
96158W        W97022  27.045  21.200   9.304
96159W        W97023  26.523  18.843   7.160
96160W        W97024  27.356  19.553   9.913
96161W        W97025  28.202  18.373   9.460
96162W        W97026  25.528  20.293   9.745
96163W        W97027  27.224  20.013   7.472
96164W        W97028  26.430  18.362   7.331
96165W        W97029  27.556  19.481   8.667
96166W        W97030  28.099  18.710  10.329
96167W        W97031  26.807  20.580  10.276
96168W        W97032  27.616  20.214  10.508
96169W        W97033  28.098  20.348  10.431
96170W        W97034  27.343  18.433  10.977
96171W        W97035  26.649  19.308   9.372
96172W        W97036  26.071  18.877   8.770
96173W        W97037  25.916  21.610   8.142
96174W        W97038  27.433  21.181  10.537
96175W        W97039  27.327  20.885   8.122
96176W        W97040  28.136  20.118   9.147
96177W        W97041  28.172  19.700   9.452
96178W        W97042  27.500  20.452   9.577
96179W        W97043  27.970  20.826   7.521
96180W        W97044  27.720  18.660   8.647
96181W        W97045   0.047  19.084   8.053
96182W        W97046  25.781  21.800  10.258
96183W        W97047  26.131  21.001   9.787
96184W        W97048  25.552  21.967   8.061
96185W        W97049  27.509  19.140   9.643
96186W        W97050  26.870  21.015   7.505
96187W        W97051  28.685  21.432   7.801
96188W        W97052  27.679  19.898   7.772
96189W        W97053  27.296  19.195   8.253
96190W        W97054  27.465  18.924   7.221
96191W        W97055  27.834  20.765  10.587
96192W        W97056  28.380  18.663   8.142
96193W        W97057  25.639  18.226   7.646
96194W        W97058  26.947  20.932   9.925
96195W        W97059  26.910  20.767   8.941
96196W        W97060  26.649  20.594   7.231
96197W        W97061  25.809  21.126   8.314
96198W        W97062  26.234  19.929  10.750
96199W        W97063  26.891  18.521  10.768
96200W        W97064  27.579  18.748  10.300
96201W        W97065  26.872  18.403   8.492
96202W        W97066  27.619  18.229   8.031
96203W        W97067  25.788  18.448   9.499
96204W        W97068  25.633  19.291   8.958
96205W        W97069  28.667  18.318   9.242
96206W        W97070  25.929  18.864   8.247
96207W        W97071  28.423  18.760   9.760
96208W        W97072  28.957  20.055   7.398
96209W        W97073  26.281  18.740   9.243
96210W        W97074  27.302  19.188  10.275
96211W        W97075  25.536  18.728   7.650
96212W        W97076  26.341  20.374  10.394
96213W        W97077  27.648  19.660   9.472
96214W        W97078  27.450  21.740   7.582
96215W        W97079  25.549  19.938   7.072
96216W        W97080  26.518  20.832  10.617
96217W        W97081  26.028  19.925  10.273
96218W        W97082  26.942  20.029   9.976
96219W        W97083  28.464  18.357  10.121
96220W        W97084   0.015  20.001  10.192
96221W        W97085  28.929  19.990   7.911
96222W        W97086  27.901  20.493   7.894
96223W        W97087  28.367  21.783   7.526
96224W        W97088  27.539  19.879  10.941
96225W        W97089  26.048  20.941  10.827
96226W        W97090   0.075  18.862  10.781
96227W        W97091  28.738  19.615   9.490
96228W        W97092  27.098  21.728  10.921
96229W        W97093  26.892  18.333   7.596
96230W        W97094  28.614  20.929   7.590
96231W        W97095  26.347  19.084  10.570
96232W        W97096  26.935  21.102  10.415
96233W        W97097  28.847  18.902  10.027
96234W        W97098  28.173  21.707   8.005
96235W        W97099  28.312  20.521   9.425
96236W        W97100  26.464  18.753  10.169
96237W        W97101  27.020  19.864  10.810
96238W        W97102  26.743  21.285   8.013
96239W        W97103  28.210  20.429   8.321
96240W        W97104  26.059  19.100  10.153
96241W        W97105  27.716  21.249   8.484
96242W        W97106   0.245  19.672   8.660
96243W        W97107  27.267  18.340  10.468
96244W        W97108  28.264  21.050   9.427
96245W        W97109  28.469  21.458   9.203
96246W        W97110  27.724  21.310   7.536
96247W        W97111  25.694  21.088  10.469
96248W        W97112  26.450  19.177   9.831
96249W        W97113  26.428  18.485   8.787
96250W        W97114  27.946  19.223   9.395
96251W        W97115  27.128  20.540   7.474
96252W        W97116  28.798  20.311   9.200
96253W        W97117  26.354  21.327  10.579
96254W        W97118  28.531  21.951   8.291
96255W        W97119  26.849  18.837   8.825
96256W        W97120  26.297  20.156   9.443
96257W        W97121  26.671  21.921   9.725
96258W        W97122  28.671  21.864  10.617
96259W        W97123  27.903  20.110   9.643
96260W        W97124  25.786  19.282   6.999
96261W        W97125  28.799  21.490   8.346
96262W        W97126  28.649  18.870   7.764
96263W        W97127  26.726  18.275  10.341
96264W        W97128  28.516  21.219   8.703
96265W        W97129  28.701  19.627   8.618
96266W        W97130  27.010  19.337   8.966
96267W        W97131  27.048  19.652  10.322
96268W        W97132  28.131  20.829  10.183
96269W        W97133  26.760  19.213  10.249
96270W        W97134  26.756  21.740   8.823
96271W        W97135  26.166  21.852  10.589
96272W        W97136  26.382  21.235   7.309
96273W        W97137  28.590  20.743   8.498
96274W        W97138  26.393  19.567  10.185
96275W        W97139  28.988  19.572   7.580
96276W        W97140  26.875  20.954   8.412
96277W        W97141  27.963  19.943  10.142
96278W        W97142  27.916  19.492   9.883
96279W        W97143  26.425  20.078   9.958
96280W        W97144  28.459  21.735   9.677
96281W        W97145  28.218  18.562  10.809
96282W        W97146  25.982  18.707  10.449
96283W        W97147  26.356  19.669   9.641
96284W        W97148  27.110  19.317   7.303
96285W        W97149  25.513  21.399  10.061
96286W        W97150  27.251  19.973   9.568
96287W        W97151  26.977  18.806   7.430
96288W        W97152  25.828  19.795   8.923
96289W        W97153  25.909  21.693   9.771
96290W        W97154  28.536  19.852   7.611
96291W        W97155  28.608  18.737  10.484
96292W        W97156  28.120  20.927   8.477
96293W        W97157  25.700  19.883  10.660
96294W        W97158  28.645  18.328   7.858
96295W        W97159  28.309  20.791   7.973
96296W        W97160  27.680  19.357   7.940
96297W        W97161  28.496  18.715   7.253
96298W        W97162  28.374  19.275   9.669
96299W        W97163  25.876  19.640   9.409
96300W        W97164  26.359  20.687   8.848
96301W        W97165  28.233  19.396   8.619
96302W        W97166  27.120  18.942   9.285
96303W        W97167   0.018  20.806   9.797
96304W        W97168   0.049  18.687   9.343
96305W        W97169  25.861  21.600   8.654
96306W        W97170  25.809  20.712   8.629
96307W        W97171  26.033  18.612  11.042
96308W        W97172  27.298  21.277  11.032
96309W        W97173  28.924  20.102   8.730
96310W        W97174  28.335  20.447   7.559
96311W        W97175  27.712  21.851   9.740
96312W        W97176  28.355  20.589  10.780
96313W        W97177  27.095  18.191   8.062
96314W        W97178  27.903  19.110   8.890
96315W        W97179  25.544  20.756   9.481
96316W        W97180  26.890  18.661   8.013
96317W        W97181  26.758  20.355  10.737
96318W        W97182  27.787  19.124   8.386
96319W        W97183  27.926  20.783   9.714
96320W        W97184  26.039  21.352  10.164
96321W        W97185  26.789  21.285  10.885
96322W        W97186  26.508  18.734   7.674
96323W        W97187  28.143  19.109   8.002
96324W        W97188  27.920  21.275  10.349
96325W        W97189  26.779  19.839   9.378
96326W        W97190  26.381  21.491   9.786
96327W        W97191  28.857  21.707   7.356
96328W        W97192  25.883  20.356  10.625
96329W        W97193  27.852  20.582   9.238
96330W        W97194  26.144  20.217   8.950
96331W        W97195  26.908  21.448   9.748
96332W        W97196  27.256  18.509   8.865
96333W        W97197  25.522  20.663   8.187
96334W        W97198  27.621  19.423   7.438
96335W        W97199  25.620  20.277   8.850
96336W        W97200  26.991  18.753  10.302
96337W        W97201  28.907  18.528   7.483
96338W        W97202  28.884  20.266  10.617
96339W        W97203  27.568  21.682  10.718
96340W        W97204   0.046  20.637  10.286
96341W        W97205  28.630  21.377  10.853
96342W        W97206  26.237  21.855   9.386
96343W        W97207   0.026  20.536   8.337
96344W        W97208  27.929  19.622   9.011
96345W        W97209  27.479  18.178   8.536
96346W        W97210  26.550  21.320   8.558
96347W        W97211  27.021  19.092   9.819
96348W        W97212  26.834  18.448   9.165
96349W        W97213  25.696  21.586   7.643
96350W        W97214  27.706  20.642   8.374
96351W        W97215  26.672  21.531  10.208
96352W        W97216  25.496  20.078   8.375
96353W        W97217  25.761  18.860   9.189
96354W        W97218  27.378  20.816   9.167
96355W        W97219  25.596  18.500   8.123
96356W        W97220  28.386  19.743   9.912
96357W        W97221  28.218  19.128   7.491
96358W        W97222  28.727  20.807   9.345
96359W        W97223  27.485  21.333   8.971
96360W        W97224  26.837  21.676   8.327
96361W        W97225  27.763  18.388   7.498
96362W        W97226  25.755  21.567   9.184
96363W        W97227  27.804  19.424  10.828
96364W        W97228  25.899  19.064  10.850
96365W        W97229  25.700  19.275   8.449
96366W        W97230  27.245  19.586   7.756
96367W        W97231  27.989  19.889  10.654
96368W        W97232  26.757  20.303   9.604
96369W        W97233  28.105  18.345   8.529
96370W        W97234  27.142  21.697   9.169
96371W        W97235  28.285  21.254   9.914
96372W        W97236  28.041  21.313   8.941
96373W        W97237  27.977  20.417   8.764
96374W        W97238  27.344  18.568   7.761
96375W        W97239   0.063  18.299   8.468
96376W        W97240  26.753  19.719   7.267
96377W        W97241   0.018  19.206   8.550
96378W        W97242  27.639  20.342   7.471
96379W        W97243  28.551  20.576  10.307
96380W        W97244  28.204  21.259   7.699
96381W        W97245  26.826  19.031  10.724
96382W        W97246  26.811  19.560   9.851
96383W        W97247  28.758  21.073  10.171
96384W        W97248  27.812  18.897  10.757
96385W        W97249  25.585  19.539  10.256
96386W        W97250  27.461  20.030  10.037
96387W        W97251  25.902  20.635   9.130
96388W        W97252  25.950  20.008   9.778
96389W        W97253  28.258  20.347   9.930
96390W        W97254  28.126  21.621  10.681
96391W        W97255  27.857  19.219  10.338
96392W        W97256  28.216  21.597   8.525
96393W        W97257  27.284  21.295  10.046
96394W        W97258  26.653  21.561   9.316
96395W        W97259  28.499  20.791   9.820
96396W        W97260  27.494  20.807  10.951
96397W        W97261  26.396  20.673   9.363
96398W        W97262  28.480  20.342   8.802
96399W        W97263  28.032  21.536   9.461
96400W        W97264  26.168  21.303   9.361
96401W        W97265  27.233  19.389  10.744
96402W        W97266  27.655  21.498   8.028
96403W        W97267  26.994  20.808  10.846
96404W        W97268  27.225  21.344   8.310
96405W        W97269  26.320  19.311   7.039
96406W        W97270  25.654  22.047  14.503
96407W        W97271  25.926  20.838  13.746
96408W        W97272  28.589  20.574  11.567
96409W        W97273  28.990  21.555  13.638
96410W        W97274  26.672  21.673  11.218
96411W        W97275  26.542  19.816  12.118
96412W        W97276  26.180  19.413  12.261
96413W        W97277  27.252  20.246  11.749
96414W        W97278  27.049  21.522  13.901
96415W        W97279  25.572  18.955  13.947
96416W        W97280  26.149  18.270  13.738
96417W        W97281  28.068  18.752  12.682
96418W        W97282  27.747  19.542  11.343
96419W        W97283  28.282  19.022  14.332
96420W        W97284  25.752  18.567  13.525
96421W        W97285  25.793  21.553  14.480
96422W        W97286  27.129  20.909  11.344
96423W        W97287  25.708  19.239  12.990
96424W        W97288  26.873  19.541  14.149
96425W        W97289  28.966  19.225  12.750
96426W        W97290  28.845  20.370  13.580
96427W        W97291  27.329  19.720  12.580
96428W        W97292  27.798  21.155  12.975
96429W        W97293  26.123  20.257  13.087
96430W        W97294  25.429  19.705  12.842
96431W        W97295  26.778  19.948  13.843
96432W        W97296  28.749  19.734  14.241
96433W        W97297  26.397  21.169  12.646
96434W        W97298  27.681  20.936  13.703
96435W        W97299  26.983  19.554  12.911
96436W        W97300  27.040  20.359  12.603
96437W        W97301  28.027  21.263  14.499
96438W        W97302  27.383  20.329  14.473
96439W        W97303  27.230  20.180  13.941
96440W        W97304  25.223  19.282  14.247
96441W        W97305  28.422  21.084  14.148
96442W        W97306  26.094  18.486  12.060
96443W        W97307  26.554  21.050  13.131
96444W        W97308  28.938  20.822  12.488
96445W        W97309  28.486  19.002  12.879
96446W        W97310  28.680  19.143  10.958
96447W        W97311  28.947  19.849  13.474
96448W        W97312  27.165  21.615  13.038
96449W        W97313  28.807  21.024  11.610
96450W        W97314  26.055  21.932  11.612
96451W        W97315  26.517  21.848  12.046
96452W        W97316  26.419  18.546  13.359
96453W        W97317  28.689  19.452  13.691
96454W        W97318  28.149  20.063  12.158
96455W        W97319  28.039  19.914  11.155
96456W        W97320  27.461  20.846  13.206
96457W        W97321  27.124  19.241  12.525
96458W        W97322  27.857  21.335  13.448
96459W        W97323  28.591  20.172  11.895
96460W        W97324  27.481  18.773  11.953
96461W        W97325  26.374  21.525  11.627
96462W        W97326  25.735  18.825  12.200
96463W        W97327  28.514  19.438  12.577
96464W        W97328  25.886  21.134  12.775
96465W        W97329  27.267  21.366  11.575
96466W        W97330  28.345  19.564  10.902
96467W        W97331  25.728  21.337  13.228
96468W        W97332  26.434  20.880  13.603
96469W        W97333  26.928  20.181  12.133
96470W        W97334  26.884  18.734  13.241
96471W        W97335   0.081  18.363  12.635
96472W        W97336  26.295  20.449  10.935
96473W        W97337  26.022  19.099  11.353
96474W        W97338  26.012  21.166  12.258
96475W        W97339  26.885  20.704  12.236
96476W        W97340  28.566  21.552  13.925
96477W        W97341  27.561  19.254  11.737
96478W        W97342  28.679  21.751  12.433
96479W        W97343  28.302  19.517  14.044
96480W        W97344   0.074  21.072  12.059
96481W        W97345  27.823  20.428  13.665
96482W        W97346  25.572  19.909  12.019
96483W        W97347  26.548  20.552  13.212
96484W        W97348  27.812  19.737  11.880
96485W        W97349  27.733  20.288  11.921
96486W        W97350  26.079  19.416  13.325
96487W        W97351  25.999  19.301  13.825
96488W        W97352  26.012  18.343  12.560
96489W        W97353  27.690  18.741  13.079
96490W        W97354  27.419  18.814  14.208
96491W        W97355  27.846  18.852  11.570
96492W        W97356  28.930  21.440  14.264
96493W        W97357  27.774  18.444  14.147
96494W        W97358  28.837  20.878  14.373
96495W        W97359  28.376  19.030  13.811
96496W        W97360  27.912  19.032  12.074
96497W        W97361  28.448  20.076  14.488
96498W        W97362  26.277  21.655  12.514
96499W        W97363  27.126  19.132  11.518
96500W        W97364  26.399  18.560  14.123
96501W        W97365  28.532  19.198  11.839
96502W        W97366  28.824  19.637  11.698
96503W        W97367  26.663  21.759  14.244
96504W        W97368  26.599  18.347  11.661
96505W        W97369  28.809  18.788  12.504
96506W        W97370   0.013  21.129  11.126
96507W        W97371  25.820  20.242  12.659
96508W        W97372  27.809  18.556  11.154
96509W        W97373  28.989  21.248  12.793
96510W        W97374  28.939  18.452  13.449
96511W        W97375  27.684  19.611  13.998
96512W        W97376  27.417  20.758  11.766
96513W        W97377  27.937  20.351  14.506
96514W        W97378  27.572  18.473  12.661
96515W        W97379  26.197  19.233  12.797
96516W        W97380  25.741  20.470  13.413
96517W        W97381  27.754  21.594  12.419
96518W        W97382  28.837  19.185  13.254
96519W        W97383  27.566  21.545  13.826
96520W        W97384  28.754  20.447  11.072
96521W        W97385  27.412  19.973  12.157
96522W        W97386   0.081  18.542  13.945
96523W        W97387  27.305  20.560  13.602
96524W        W97388  27.500  19.337  12.878
96525W        W97389  28.337  19.692  11.839
96526W        W97390  28.485  19.398  11.371
96527W        W97391  28.431  21.301  11.831
96528W        W97392  28.424  20.861  12.631
96529W        W97393  28.117  20.111  11.641
96530W        W97394  27.548  20.246  12.624
96531W        W97395  28.542  19.963  12.632
96532W        W97396  26.066  18.915  13.205
96533W        W97397  28.548  19.979  13.837
96534W        W97398  28.994  21.699  13.090
96535W        W97399  26.897  21.169  12.481
96536W        W97400  28.118  21.712  13.706
96537W        W97401  28.002  18.844  13.483
96538W        W97402  27.236  21.816  13.510
96539W        W97403  28.705  18.744  11.987
96540W        W97404  28.621  20.135  13.163
96541W        W97405  25.680  19.086  13.477
96542W        W97406  28.376  19.007  12.313
96543W        W97407  28.739  19.217  14.152
96544W        W97408  27.765  21.005  12.486
96545W        W97409  27.230  21.555  12.118
96546W        W97410  26.223  18.659  11.524
96547W        W97411  27.286  18.396  13.102
96548W        W97412  26.183  21.846  11.110
96549W        W97413  26.762  20.103  11.638
96550W        W97414  27.525  20.616  14.072
96551W        W97415  27.112  19.117  12.029
96552W        W97416  28.405  18.489  12.341
96553W        W97417  28.221  21.852  12.658
96554W        W97418  27.658  21.648  12.934
96555W        W97419  27.061  20.523  13.104
96556W        W97420  28.779  21.254  13.292
96557W        W97421  26.537  18.741  11.991
96558W        W97422  27.047  21.104  12.998
96559W        W97423  26.438  18.930  11.062
96560W        W97424  27.358  19.645  13.275
96561W        W97425  28.130  18.463  13.134
96562W        W97426  25.614  20.092  13.116
96563W        W97427  27.145  20.023  11.290
96564W        W97428  26.528  18.438  11.143
96565W        W97429  27.028  19.613  12.147
96566W        W97430  28.198  18.531  13.852
96567W        W97431  26.764  20.448  13.678
96568W        W97432  27.709  20.134  14.088
96569W        W97433  28.191  20.317  14.061
96570W        W97434  27.415  18.479  14.581
96571W        W97435  26.713  19.117  12.930
96572W        W97436  26.210  18.906  12.378
96573W        W97437  26.054  21.630  12.025
96574W        W97438  27.581  21.122  14.194
96575W        W97439  26.423  20.488  11.471
96576W        W97440  28.079  20.187  12.714
96577W        W97441  28.178  19.683  12.900
96578W        W97442  27.550  20.332  13.183
96579W        W97443  28.018  20.825  11.081
96580W        W97444  27.612  18.971  12.506
96581W        W97445   0.035  19.145  11.740
96582W        W97446  25.732  21.854  14.016
96583W        W97447  26.055  20.893  13.243
96584W        W97448  25.563  21.786  11.642
96585W        W97449  27.612  19.171  13.363
96586W        W97450  26.752  21.228  11.443
96587W        W97451  28.681  21.478  11.400
96588W        W97452  27.641  20.046  11.452
96589W        W97453  26.616  19.258  12.034
96590W        W97454  27.538  19.074  11.178
96591W        W97455  27.991  20.798  14.246
96592W        W97456  28.214  18.627  11.859
96593W        W97457  25.673  18.319  11.275
96594W        W97458  26.934  20.893  13.453
96595W        W97459  26.743  20.752  12.746
96596W        W97460  26.563  20.863  11.133
96597W        W97461  25.996  21.171  11.742
96598W        W97462  26.273  20.033  13.899
96599W        W97463  26.884  18.534  14.337
96600W        W97464  27.523  18.665  13.714
96601W        W97465  26.887  18.343  12.123
96602W        W97466  27.738  18.366  11.762
96603W        W97467  25.995  18.428  13.092
96604W        W97468  25.747  19.254  12.491
96605W        W97469  28.565  18.431  12.843
96606W        W97470  26.105  19.023  11.880
96607W        W97471  28.517  18.749  13.360
96608W        W97472  28.879  19.842  11.049
96609W        W97473  26.383  18.725  12.848
96610W        W97474  27.405  19.178  13.834
96611W        W97475  25.582  18.816  11.251
96612W        W97476  26.208  20.424  13.575
96613W        W97477  27.683  19.866  12.935
96614W        W97478  27.497  21.717  11.250
96615W        W97479  25.692  20.179  11.103
96616W        W97480  26.767  20.892  13.972
96617W        W97481  25.977  19.928  13.477
96618W        W97482  27.083  20.112  13.444
96619W        W97483  28.639  18.252  13.848
96620W        W97484   0.032  20.076  13.947
96621W        W97485  28.909  20.192  11.482
96622W        W97486  27.862  20.554  11.499
96623W        W97487  28.425  21.805  11.069
96624W        W97488  27.669  19.980  14.753
96625W        W97489  26.272  21.030  14.081
96626W        W97490   0.055  18.857  14.374
96627W        W97491  28.710  19.627  13.023
96628W        W97492  27.149  21.690  14.417
96629W        W97493  26.989  18.319  11.326
96630W        W97494  28.539  20.919  11.151
96631W        W97495  26.476  19.146  13.984
96632W        W97496  27.221  21.043  13.851
96633W        W97497  28.874  18.951  13.712
96634W        W97498  28.235  21.733  11.559
96635W        W97499  28.326  20.545  13.046
96636W        W97500  26.720  18.773  13.739
96637W        W97501  27.348  19.825  14.313
96638W        W97502  26.471  20.931  11.789
96639W        W97503  28.195  20.546  11.908
96640W        W97504  26.161  18.818  13.719
96641W        W97505  27.323  21.019  12.220
96642W        W97506   0.172  19.778  12.409
96643W        W97507  27.273  18.316  14.097
96644W        W97508  28.322  21.096  13.086
96645W        W97509  28.567  21.518  12.879
96646W        W97510  27.652  21.045  11.380
96647W        W97511  25.749  21.107  14.190
96648W        W97512  26.503  19.114  13.408
96649W        W97513  26.485  18.458  12.420
96650W        W97514  27.979  19.172  12.988
96651W        W97515  26.885  20.461  11.230
96652W        W97516  28.734  20.419  12.755
96653W        W97517  26.073  21.496  14.028
96654W        W97518  28.512  21.924  11.964
96655W        W97519  26.714  18.924  12.452
96656W        W97520  26.530  20.332  12.491
96657W        W97521  26.808  21.912  13.250
96658W        W97522  28.648  21.884  14.330
96659W        W97523  28.023  20.117  13.235
96660W        W97524  25.860  19.681  11.091
96661W        W97525  28.870  21.534  11.921
96662W        W97526  28.724  18.908  11.418
96663W        W97527  26.792  18.289  13.858
96664W        W97528  28.646  21.247  12.345
96665W        W97529  28.707  19.756  12.190
96666W        W97530  26.625  19.432  12.529
96667W        W97531  27.218  19.675  13.781
96668W        W97532  28.172  20.804  13.783
96669W        W97533  26.896  19.267  13.712
96670W        W97534  26.798  21.667  12.433
96671W        W97535  26.167  21.896  14.377
96672W        W97536  26.311  21.322  11.108
96673W        W97537  28.626  20.806  12.051
96674W        W97538  26.431  19.575  13.676
96675W        W97539   0.001  19.402  11.282
96676W        W97540  26.901  20.631  11.721
96677W        W97541  28.046  19.905  13.762
96678W        W97542  27.882  19.618  13.321
96679W        W97543  26.497  20.034  13.415
96680W        W97544  28.544  21.712  13.395
96681W        W97545  28.246  18.479  14.379
96682W        W97546  25.838  18.527  14.041
96683W        W97547  26.475  19.620  13.037
96684W        W97548  26.786  19.327  11.146
96685W        W97549  25.654  21.321  13.734
96686W        W97550  27.193  20.028  12.958
96687W        W97551  26.947  18.807  11.182
96688W        W97552  26.056  19.788  11.910
96689W        W97553  25.865  21.778  13.495
96690W        W97554  28.500  19.915  11.376
96691W        W97555  28.629  18.702  14.117
96692W        W97556  28.181  21.013  12.190
96693W        W97557  25.826  19.793  13.982
96694W        W97558  28.703  18.380  11.446
96695W        W97559  28.212  20.934  11.553
96696W        W97560  27.320  19.719  11.710
96697W        W97561  28.283  18.655  11.325
96698W        W97562  28.336  19.252  13.338
96699W        W97563  25.845  19.775  12.431
96700W        W97564  26.385  20.802  12.302
96701W        W97565  27.229  18.870  12.870
96702W        W97566   0.091  20.838  13.441
96703W        W97567  28.933  18.754  13.007
96704W        W97568  25.776  21.580  12.449
96705W        W97569  26.037  20.670  11.936
96706W        W97570  25.934  18.535  14.552
96707W        W97571  27.336  21.254  14.626
96708W        W97572  28.916  20.243  12.318
96709W        W97573  28.263  20.378  11.230
96710W        W97574  27.738  21.862  13.395
96711W        W97575  28.423  20.588  14.462
96712W        W97576  27.215  18.197  11.754
96713W        W97577  28.001  19.332  12.496
96714W        W97578  25.722  20.659  12.939
96715W        W97579  26.986  18.686  11.746
96716W        W97580  26.880  20.430  14.209
96717W        W97581  27.537  19.416  12.221
96718W        W97582  27.975  20.794  13.317
96719W        W97583  26.132  21.287  13.567
96720W        W97584  26.853  21.276  14.317
96721W        W97585  26.610  19.020  11.552
96722W        W97586  28.065  19.304  11.661
96723W        W97587  27.996  21.279  13.958
96724W        W97588  26.843  19.891  12.544
96725W        W97589  26.395  21.702  13.451
96726W        W97590  28.972  21.703  11.039
96727W        W97591  25.776  20.319  13.903
96728W        W97592  27.828  20.634  12.853
96729W        W97593  26.499  20.417  11.976
96730W        W97594  26.834  21.412  13.413
96731W        W97595  27.170  18.722  12.378
96732W        W97596  25.524  20.619  11.448
96733W        W97597  27.252  19.533  11.229
96734W        W97598  26.079  20.219  12.211
96735W        W97599  28.705  18.587  10.985
96736W        W97600  28.914  20.359  14.347
96737W        W97601  27.652  21.602  14.338
96738W        W97602   0.103  20.653  13.937
96739W        W97603  28.574  21.265  14.604
96740W        W97604  26.366  21.918  12.955
96741W        W97605   0.025  20.535  11.878
96742W        W97606  27.815  19.813  12.444
96743W        W97607  27.407  18.320  12.196
96744W        W97608  26.492  21.330  12.141
96745W        W97609  27.110  19.195  13.259
96746W        W97610  26.873  18.488  12.767
96747W        W97611  25.888  21.500  11.351
96748W        W97612  27.362  20.498  12.215
96749W        W97613  26.556  21.399  13.862
96750W        W97614  25.832  20.240  11.697
96751W        W97615  25.855  18.802  12.733
96752W        W97616  27.331  20.771  12.694
96753W        W97617  25.734  18.615  11.714
96754W        W97618  28.378  19.758  13.401
96755W        W97619  28.082  19.119  11.159
96756W        W97620  28.791  20.837  13.009
96757W        W97621  27.379  21.300  12.661
96758W        W97622  26.877  21.672  11.724
96759W        W97623  27.914  18.060  11.060
96760W        W97624  25.868  21.725  12.920
96761W        W97625  27.865  19.322  14.401
96762W        W97626  26.056  18.950  14.219
96763W        W97627  25.723  19.382  11.992
96764W        W97628  26.835  19.551  11.644
96765W        W97629  28.013  19.828  14.356
96766W        W97630  26.693  20.138  12.959
96767W        W97631  27.877  18.539  12.249
96768W        W97632  27.292  21.797  12.575
96769W        W97633  28.349  21.249  13.580
96770W        W97634  28.157  21.320  12.643
96771W        W97635  27.908  20.523  12.347
96772W        W97636  27.390  18.641  11.449
96773W        W97637   0.010  18.340  12.110
96774W        W97638  26.621  20.021  11.116
96775W        W97639  28.866  19.259  12.230
96776W        W97640  27.398  20.482  11.330
96777W        W97641  28.603  20.609  13.972
96778W        W97642  28.216  21.331  11.181
96779W        W97643  26.956  19.019  14.150
96780W        W97644  26.853  19.658  13.391
96781W        W97645  28.833  21.092  13.833
96782W        W97646  27.882  18.932  14.013
96783W        W97647  25.507  19.443  13.804
96784W        W97648  27.577  19.990  13.580
96785W        W97649  25.874  20.713  12.437
96786W        W97650  25.953  19.736  12.942
96787W        W97651  28.329  20.355  13.558
96788W        W97652  28.173  21.690  14.226
96789W        W97653  27.973  19.321  13.706
96790W        W97654  28.232  21.575  12.210
96791W        W97655  27.341  21.301  13.416
96792W        W97656  26.689  21.510  12.907
96793W        W97657  28.570  20.798  13.464
96794W        W97658  27.603  20.784  14.578
96795W        W97659  26.235  20.687  12.803
96796W        W97660  28.430  20.430  12.353
96797W        W97661  28.128  21.605  13.119
96798W        W97662  26.215  21.408  13.071
96799W        W97663  27.346  19.307  14.334
96800W        W97664  27.815  21.701  11.897
96801W        W97665  27.147  20.854  14.343
96802W        W97666  26.929  21.144  11.922
96803W        W97667  26.281  19.412  10.987
96804W        W97668  25.501  21.940  18.052
96805W        W97669  26.026  20.988  17.729
96806W        W97670  28.607  20.443  15.293
96807W        W97671  28.928  21.616  17.344
96808W        W97672  26.748  21.558  14.755
96809W        W97673  26.869  19.922  15.944
96810W        W97674  26.391  19.555  16.257
96811W        W97675  27.324  20.496  15.446
96812W        W97676  27.070  21.617  17.815
96813W        W97677  25.620  18.937  17.613
96814W        W97678  26.244  18.243  17.472
96815W        W97679  28.094  18.735  16.337
96816W        W97680  27.813  19.512  15.047
96817W        W97681  28.258  19.121  17.906
96818W        W97682  25.759  18.573  17.259
96819W        W97683  25.766  21.465  18.088
96820W        W97684  27.334  20.796  15.006
96821W        W97685  25.600  19.234  16.635
96822W        W97686  26.583  19.625  17.756
96823W        W97687  28.906  19.413  16.300
96824W        W97688  28.755  20.277  17.104
96825W        W97689  27.259  19.845  16.288
96826W        W97690  27.848  21.104  16.675
96827W        W97691  26.060  20.429  17.111
96828W        W97692  25.517  19.968  16.573
96829W        W97693  26.662  20.132  17.756
96830W        W97694  28.780  19.805  17.878
96831W        W97695  26.460  21.167  16.366
96832W        W97696  27.682  20.922  17.456
96833W        W97697  27.113  19.495  16.633
96834W        W97698  27.120  20.309  16.437
96835W        W97699  27.836  21.268  18.095
96836W        W97700  27.425  20.350  18.189
96837W        W97701  27.169  20.232  17.722
96838W        W97702  25.481  19.287  17.989
96839W        W97703  28.295  21.097  17.922
96840W        W97704  26.020  18.431  15.782
96841W        W97705  26.589  20.961  16.864
96842W        W97706  28.988  20.727  16.237
96843W        W97707  28.565  18.857  16.507
96844W        W97708  28.674  19.065  14.658
96845W        W97709   0.209  19.910  17.073
96846W        W97710  27.266  21.559  16.845
96847W        W97711  28.717  20.938  15.403
96848W        W97712  26.148  21.938  15.325
96849W        W97713  26.501  21.783  15.696
96850W        W97714  26.270  18.552  17.046
96851W        W97715  28.768  19.711  17.249
96852W        W97716  28.234  19.941  15.940
96853W        W97717  28.160  19.842  14.863
96854W        W97718  27.520  20.845  16.979
96855W        W97719  27.436  19.362  16.252
96856W        W97720  27.767  21.334  17.124
96857W        W97721  28.684  20.050  15.645
96858W        W97722  27.513  18.730  15.693
96859W        W97723  26.245  21.420  15.446
96860W        W97724  25.663  18.821  15.846
96861W        W97725  28.426  19.364  16.456
96862W        W97726  25.957  21.251  16.419
96863W        W97727  27.246  21.293  15.161
96864W        W97728  28.405  19.502  14.553
96865W        W97729  25.737  21.265  16.900
96866W        W97730  26.467  21.012  17.419
96867W        W97731  26.674  20.329  16.207
96868W        W97732  26.803  18.746  16.849
96869W        W97733   0.098  18.203  16.261
96870W        W97734  26.391  20.533  14.038
96871W        W97735  25.916  19.027  14.707
96872W        W97736  26.094  21.189  15.911
96873W        W97737  27.116  20.702  16.058
96874W        W97738  28.479  21.498  17.604
96875W        W97739  27.563  19.100  15.324
96876W        W97740  28.671  21.762  16.103
96877W        W97741  28.458  19.505  17.639
96878W        W97742   0.054  21.022  15.817
96879W        W97743  27.776  20.445  17.287
96880W        W97744  25.189  20.225  15.606
96881W        W97745  26.549  20.547  17.175
96882W        W97746  27.837  19.660  15.558
96883W        W97747  27.764  20.115  15.799
96884W        W97748  25.966  19.380  16.989
96885W        W97749  26.012  19.431  17.720
96886W        W97750  25.918  18.290  16.274
96887W        W97751  27.706  18.798  16.737
96888W        W97752  27.414  18.938  17.869
96889W        W97753  27.875  18.757  15.097
96890W        W97754  28.941  21.438  17.843
96891W        W97755  27.741  18.450  17.846
96892W        W97756  28.790  20.942  18.034
96893W        W97757  28.306  19.084  17.365
96894W        W97758  28.055  18.920  15.853
96895W        W97759  28.446  20.113  18.137
96896W        W97760  26.238  21.635  16.119
96897W        W97761  27.124  19.182  15.069
96898W        W97762  26.365  18.606  17.841
96899W        W97763  28.545  19.200  15.555
96900W        W97764  28.839  19.594  15.419
96901W        W97765  26.526  21.794  18.029
96902W        W97766  26.559  18.377  15.226
96903W        W97767  28.893  18.660  16.137
96904W        W97768   0.042  21.127  14.793
96905W        W97769  25.897  20.349  16.628
96906W        W97770  27.858  18.788  14.527
96907W        W97771  28.998  21.192  16.517
96908W        W97772   0.055  18.349  17.070
96909W        W97773  27.567  19.732  17.656
96910W        W97774  27.582  20.959  15.445
96911W        W97775  27.938  20.273  18.191
96912W        W97776  27.699  18.380  16.441
96913W        W97777  26.119  19.170  16.488
96914W        W97778  25.811  20.231  17.539
96915W        W97779  27.724  21.527  16.061
96916W        W97780  28.940  19.141  16.723
96917W        W97781  27.585  21.643  17.524
96918W        W97782  28.756  20.338  14.822
96919W        W97783  27.278  20.227  15.931
96920W        W97784   0.032  18.534  17.531
96921W        W97785  27.282  20.527  17.313
96922W        W97786  27.598  19.311  16.735
96923W        W97787  28.337  19.666  15.497
96924W        W97788  28.467  19.419  15.069
96925W        W97789  28.329  21.273  15.511
96926W        W97790  28.314  20.816  16.288
96927W        W97791  28.113  20.083  15.332
96928W        W97792  27.616  20.221  16.332
96929W        W97793  28.583  19.849  16.341
96930W        W97794  25.907  18.868  16.852
96931W        W97795  28.476  20.011  17.526
96932W        W97796   0.017  21.674  16.774
96933W        W97797  26.965  21.190  16.196
96934W        W97798  28.099  21.715  17.308
96935W        W97799  27.811  19.103  17.158
96936W        W97800  27.125  21.753  17.316
96937W        W97801  28.774  18.754  15.647
96938W        W97802  28.442  19.964  16.839
96939W        W97803  25.540  19.103  17.123
96940W        W97804  28.536  19.059  16.042
96941W        W97805  28.854  19.286  17.931
96942W        W97806  27.806  20.942  16.204
96943W        W97807  27.086  21.519  15.797
96944W        W97808  26.082  18.608  15.041
96945W        W97809  27.270  18.499  16.724
96946W        W97810  26.229  21.710  14.863
96947W        W97811  27.123  20.020  15.478
96948W        W97812  27.363  20.696  17.791
96949W        W97813  27.165  19.013  15.962
96950W        W97814  28.409  18.535  15.970
96951W        W97815  28.196  21.832  16.371
96952W        W97816  27.711  21.648  16.574
96953W        W97817  26.977  20.508  16.882
96954W        W97818  28.790  21.229  17.007
96955W        W97819  26.506  18.656  15.707
96956W        W97820  27.101  21.064  16.782
96957W        W97821  26.562  18.949  14.471
96958W        W97822  27.231  19.551  17.123
96959W        W97823  28.193  18.479  16.764
96960W        W97824  25.639  20.136  17.045
96961W        W97825  27.254  20.229  14.984
96962W        W97826  26.472  18.479  14.663
96963W        W97827  27.394  19.712  15.820
96964W        W97828  28.068  18.652  17.228
96965W        W97829  26.820  20.615  17.653
96966W        W97830  27.665  20.241  17.751
96967W        W97831  28.158  20.337  17.727
96968W        W97832  27.368  18.594  18.224
96969W        W97833  26.658  19.161  16.496
96970W        W97834  26.142  18.840  16.076
96971W        W97835  25.862  21.641  15.721
96972W        W97836  27.414  21.217  17.815
96973W        W97837  26.886  20.729  15.242
96974W        W97838  28.116  20.080  16.442
96975W        W97839  28.044  19.614  16.703
96976W        W97840  27.478  20.341  16.838
96977W        W97841  28.079  20.817  14.767
96978W        W97842  27.618  18.867  16.198
96979W        W97843   0.098  19.107  15.374
96980W        W97844  25.760  21.739  17.655
96981W        W97845  25.965  20.922  17.241
96982W        W97846  25.663  22.070  15.485
96983W        W97847  27.293  18.999  17.010
96984W        W97848  26.906  21.062  14.820
96985W        W97849  28.719  21.375  15.130
96986W        W97850  27.610  20.049  15.296
96987W        W97851  26.545  19.144  15.966
96988W        W97852  27.569  19.097  14.800
96989W        W97853  27.876  20.733  17.909
96990W        W97854  28.301  18.731  15.436
96991W        W97855  25.637  18.212  14.891
96992W        W97856  26.939  20.880  17.229
96993W        W97857  26.829  20.765  16.463
96994W        W97858  26.607  20.835  14.450
96995W        W97859  25.665  21.116  15.583
96996W        W97860  26.159  19.942  17.835
96997W        W97861  26.855  18.601  18.009
96998W        W97862  27.554  18.663  17.327
96999W        W97863  26.905  18.356  15.823
97000W        W97864  27.650  18.352  15.347
97001W        W97865  25.839  18.363  16.793
97002W        W97866  25.743  19.258  16.135
97003W        W97867  28.636  18.347  16.489
97004W        W97868  26.071  18.875  15.520
97005W        W97869  28.597  18.791  17.017
97006W        W97870  28.871  19.838  14.725
97007W        W97871  26.364  18.722  16.544
97008W        W97872  27.439  19.257  17.480
97009W        W97873  25.554  18.727  14.928
97010W        W97874  26.266  20.525  17.606
97011W        W97875  27.561  19.826  16.691
97012W        W97876  27.511  21.703  14.838
97013W        W97877  25.602  20.074  14.383
97014W        W97878  26.502  20.911  17.947
97015W        W97879  25.900  19.765  17.347
97016W        W97880  26.896  20.188  17.294
97017W        W97881  28.536  18.445  17.397
97018W        W97882   0.007  20.118  17.520
97019W        W97883   0.049  20.125  15.256
97020W        W97884  27.847  20.504  15.461
97021W        W97885  28.363  21.705  14.738
97022W        W97886  27.606  19.846  18.150
97023W        W97887  25.940  20.992  18.246
97024W        W97888   0.016  18.639  18.024
97025W        W97889  28.871  19.677  16.745
97026W        W97890  27.142  21.626  18.339
97027W        W97891  26.965  18.406  14.848
97028W        W97892  28.595  20.836  14.899
97029W        W97893  26.420  19.118  17.741
97030W        W97894  26.922  21.135  17.663
97031W        W97895  28.809  19.215  17.399
97032W        W97896  28.168  21.789  15.235
97033W        W97897  28.384  20.478  16.714
97034W        W97898  26.585  18.856  17.335
97035W        W97899  27.071  19.889  18.079
97036W        W97900  26.469  20.947  15.525
97037W        W97901  28.294  20.393  15.692
97038W        W97902  26.063  18.998  17.355
97039W        W97903  27.413  21.124  15.920
97040W        W97904   0.114  19.773  15.822
97041W        W97905  27.262  18.457  17.709
97042W        W97906  28.389  21.049  16.727
97043W        W97907  28.585  21.501  16.544
97044W        W97908  27.721  21.153  14.956
97045W        W97909  25.549  21.023  17.913
97046W        W97910  26.368  19.066  16.929
97047W        W97911  26.404  18.393  16.145
97048W        W97912  28.163  19.028  16.790
97049W        W97913  26.966  20.554  14.718
97050W        W97914  28.837  20.234  16.570
97051W        W97915  26.249  21.386  17.940
97052W        W97916  28.550  21.896  15.582
97053W        W97917  26.771  18.751  16.190
97054W        W97918  26.405  20.514  16.621
97055W        W97919  26.781  21.858  16.950
97056W        W97920  28.659  21.859  17.924
97057W        W97921  27.933  20.094  16.922
97058W        W97922  25.728  19.350  14.282
97059W        W97923  28.798  21.445  15.658
97060W        W97924  28.683  18.919  15.144
97061W        W97925  26.776  18.410  17.523
97062W        W97926  28.637  21.212  16.109
97063W        W97927  28.631  19.590  15.906
97064W        W97928  26.930  19.447  16.155
97065W        W97929  27.060  19.760  17.573
97066W        W97930  28.204  20.808  17.516
97067W        W97931  26.858  19.308  17.461
97068W        W97932  26.761  21.690  16.167
97069W        W97933  26.025  21.946  18.058
97070W        W97934  26.353  21.395  14.448
97071W        W97935  28.611  20.748  15.869
97072W        W97936  26.357  19.435  17.317
97073W        W97937  28.969  19.386  14.967
97074W        W97938  26.853  20.449  15.701
97075W        W97939  27.954  19.979  17.425
97076W        W97940  27.732  19.620  17.137
97077W        W97941  26.358  20.047  17.350
97078W        W97942  28.544  21.691  17.024
97079W        W97943  28.241  18.589  17.850
97080W        W97944  25.872  18.493  17.762
97081W        W97945  26.429  19.565  16.774
97082W        W97946  26.907  19.360  14.628
97083W        W97947  25.635  21.276  17.428
97084W        W97948  27.094  19.983  16.853
97085W        W97949  27.114  18.890  14.633
97086W        W97950  26.283  20.029  16.450
97087W        W97951  25.762  21.739  17.153
97088W        W97952  28.578  19.949  15.132
97089W        W97953  28.660  18.848  17.709
97090W        W97954  28.088  20.868  15.777
97091W        W97955  25.644  19.805  17.811
97092W        W97956  28.705  18.400  15.086
97093W        W97957  28.224  20.796  15.270
97094W        W97958  27.375  19.583  15.313
97095W        W97959  28.319  18.670  14.856
97096W        W97960  28.546  19.324  16.964
97097W        W97961  25.917  19.633  16.544
97098W        W97962  26.586  20.806  16.008
97099W        W97963  28.148  19.420  15.911
97100W        W97964  27.166  18.977  16.499
97101W        W97965   0.089  20.822  17.173
97102W        W97966   0.026  18.653  16.646
97103W        W97967  25.729  21.664  16.215
97104W        W97968  25.969  20.711  15.765
97105W        W97969  25.983  18.618  18.343
97106W        W97970  27.209  21.151  18.552
97107W        W97971  28.986  20.249  16.020
97108W        W97972  28.254  20.359  14.921
97109W        W97973  27.662  21.860  17.054
97110W        W97974  28.382  20.623  18.073
97111W        W97975  27.104  18.304  15.341
97112W        W97976  27.938  19.236  16.344
97113W        W97977  25.626  20.813  16.555
97114W        W97978  27.019  18.794  15.482
97115W        W97979  26.906  20.392  18.139
97116W        W97980  27.658  19.242  15.812
97117W        W97981  28.044  20.804  17.035
97118W        W97982  26.130  21.421  17.383
97119W        W97983  26.757  21.340  18.114
97120W        W97984  26.728  18.834  14.989
97121W        W97985  28.063  19.207  15.390
97122W        W97986  27.971  21.312  17.602
97123W        W97987  26.773  19.858  16.463
97124W        W97988  26.270  21.830  17.062
97125W        W97989  28.904  21.667  14.748
97126W        W97990  25.850  20.551  17.952
97127W        W97991  27.891  20.575  16.600
97128W        W97992  26.192  20.327  16.033
97129W        W97993  26.794  21.365  17.135
97130W        W97994  27.238  18.535  16.193
97131W        W97995  25.451  20.654  15.768
97132W        W97996  27.370  19.568  14.776
97133W        W97997  25.845  19.956  16.163
97134W        W97998  27.082  18.852  17.457
97135W        W97999  28.735  18.507  14.588
97136W        W98000  28.923  20.301  17.983
97137W        W98001  27.551  21.702  18.034
97138W        W98002   0.109  20.706  17.686
97139W        W98003  28.571  21.397  18.200
97140W        W98004  26.423  21.816  16.563
97141W        W98005   0.003  20.538  15.599
97142W        W98006  27.796  19.735  16.184
97143W        W98007  27.408  18.220  15.801
97144W        W98008  26.591  21.311  15.867
97145W        W98009  26.835  19.244  16.969
97146W        W98010  26.814  18.352  16.505
97147W        W98011  25.730  21.845  14.997
97148W        W98012  27.586  20.629  15.876
97149W        W98013  26.605  21.531  17.584
97150W        W98014  25.717  20.208  15.725
97151W        W98015  25.726  18.775  16.375
97152W        W98016  27.406  20.735  16.482
97153W        W98017  25.685  18.554  15.396
97154W        W98018  28.246  19.648  17.191
97155W        W98019  28.112  19.142  14.826
97156W        W98020  28.833  20.742  16.721
97157W        W98021  27.424  21.252  16.423
97158W        W98022  26.774  21.403  15.380
97159W        W98023  27.881  18.333  14.773
97160W        W98024  25.927  21.697  16.672
97161W        W98025  27.802  19.355  18.037
97162W        W98026  25.962  19.006  18.008
97163W        W98027  25.509  19.672  15.821
97164W        W98028  26.979  19.769  15.028
97165W        W98029  28.075  19.818  17.902
97166W        W98030  26.587  20.116  16.875
97167W        W98031  27.870  18.447  15.950
97168W        W98032  27.271  21.721  16.257
97169W        W98033  28.303  21.227  17.208
97170W        W98034  28.152  21.318  16.310
97171W        W98035  28.007  20.455  16.103
97172W        W98036  27.349  18.687  15.066
97173W        W98037   0.096  18.314  15.757
97174W        W98038  26.963  20.036  14.571
97175W        W98039  28.995  19.239  15.841
97176W        W98040  27.731  20.457  14.968
97177W        W98041  28.635  20.514  17.594
97178W        W98042  28.232  21.260  14.997
97179W        W98043  26.908  19.089  17.910
97180W        W98044  26.745  19.721  17.159
97181W        W98045  28.740  21.059  17.523
97182W        W98046  27.873  18.920  17.639
97183W        W98047  25.540  19.433  17.495
97184W        W98048  27.428  20.033  17.263
97185W        W98049  26.115  20.783  16.262
97186W        W98050  26.094  19.938  16.914
97187W        W98051  28.267  20.356  17.213
97188W        W98052  28.146  21.661  17.965
97189W        W98053  27.958  19.423  17.556
97190W        W98054  28.220  21.626  15.886
97191W        W98055  27.290  21.250  17.294
97192W        W98056  26.799  21.452  16.624
97193W        W98057  28.558  20.770  17.141
97194W        W98058  27.530  20.878  18.255
97195W        W98059  26.087  20.882  16.761
97196W        W98060  28.504  20.341  16.184
97197W        W98061  28.136  21.505  16.804
97198W        W98062  26.283  21.365  16.844
97199W        W98063  27.289  19.433  17.976
97200W        W98064  27.554  21.480  15.554
97201W        W98065  27.030  20.905  18.110
97202W        W98066  26.978  21.010  15.668
97203W        W98067  26.267  19.575  14.177
97204W        W98068  25.678  21.919  21.702
97205W        W98069  26.044  20.806  21.196
97206W        W98070  28.602  20.573  18.901
97207W        W98071  28.779  21.647  20.979
97208W        W98072  26.655  21.621  18.545
97209W        W98073  26.855  19.657  19.251
97210W        W98074  26.474  19.444  19.661
97211W        W98075  27.351  20.344  18.929
97212W        W98076  27.145  21.513  21.298
97213W        W98077  25.624  19.006  21.247
97214W        W98078  26.257  18.370  21.061
97215W        W98079  28.083  18.623  20.106
97216W        W98080  27.783  19.492  18.544
97217W        W98081  28.271  19.041  21.568
97218W        W98082  25.770  18.614  20.854
97219W        W98083  25.879  21.458  21.876
97220W        W98084  27.307  20.852  18.993
97221W        W98085  25.618  19.308  20.231
97222W        W98086  26.837  19.513  21.386
97223W        W98087  28.938  19.150  20.019
97224W        W98088  28.796  20.327  20.898
97225W        W98089  27.331  19.648  19.826
97226W        W98090  27.855  20.997  20.224
97227W        W98091  26.150  20.305  20.404
97228W        W98092  25.457  19.812  20.137
97229W        W98093  26.789  19.963  21.108
97230W        W98094  28.780  19.697  21.528
97231W        W98095  26.490  21.197  19.996
97232W        W98096  27.604  20.851  21.035
97233W        W98097  26.968  19.499  20.168
97234W        W98098  27.015  20.338  19.819
97235W        W98099  27.868  21.222  21.765
97236W        W98100  27.359  20.279  21.880
97237W        W98101  27.276  20.145  21.128
97238W        W98102  25.408  19.350  21.593
97239W        W98103  28.322  20.980  21.537
97240W        W98104  26.037  18.580  19.371
97241W        W98105  26.547  21.016  20.479
97242W        W98106  28.969  20.784  19.851
97243W        W98107  28.455  18.985  20.161
97244W        W98108  28.617  18.923  18.228
97245W        W98109  28.880  19.826  20.795
97246W        W98110  27.244  21.443  20.434
97247W        W98111  28.662  21.055  19.046
97248W        W98112  26.035  21.991  18.765
97249W        W98113  26.392  21.819  19.391
97250W        W98114  26.298  18.657  20.634
97251W        W98115  28.717  19.373  20.946
97252W        W98116  28.151  20.005  19.383
97253W        W98117  28.115  19.862  18.454
97254W        W98118  27.449  20.946  20.511
97255W        W98119  27.459  19.144  19.702
97256W        W98120  27.877  21.154  20.728
97257W        W98121  28.635  20.164  19.199
97258W        W98122  27.609  18.752  19.205
97259W        W98123  26.320  21.468  18.935
97260W        W98124  25.609  18.826  19.306
97261W        W98125  28.521  19.429  19.894
97262W        W98126  25.937  21.177  19.927
97263W        W98127  27.344  21.372  19.016
97264W        W98128  28.446  19.547  18.178
97265W        W98129  25.685  21.247  20.437
97266W        W98130  26.526  20.887  20.974
97267W        W98131  26.601  20.175  19.518
97268W        W98132  26.753  18.760  20.403
97269W        W98133   0.014  18.292  19.930
97270W        W98134  26.381  20.410  18.104
97271W        W98135  26.062  19.147  18.511
97272W        W98136  26.045  21.257  19.408
97273W        W98137  26.761  20.670  19.490
97274W        W98138  28.462  21.444  21.354
97275W        W98139  27.547  19.196  18.908
97276W        W98140  28.588  21.674  19.687
97277W        W98141  28.359  19.503  21.291
97278W        W98142   0.059  21.028  19.395
97279W        W98143  27.768  20.372  21.065
97280W        W98144  25.454  19.648  19.451
97281W        W98145  26.628  20.509  20.559
97282W        W98146  27.788  19.668  19.040
97283W        W98147  27.652  20.110  19.261
97284W        W98148  26.045  19.474  20.719
97285W        W98149  26.033  19.440  21.258
97286W        W98150  25.968  18.394  19.852
97287W        W98151  27.579  18.799  20.101
97288W        W98152  27.406  18.823  21.599
97289W        W98153  27.857  18.827  18.697
97290W        W98154  28.972  21.492  21.430
97291W        W98155  27.784  18.419  21.534
97292W        W98156  28.807  20.756  21.710
97293W        W98157  28.381  18.991  21.077
97294W        W98158  28.125  18.841  19.208
97295W        W98159  28.447  20.008  21.790
97296W        W98160  26.230  21.595  19.816
97297W        W98161  27.053  19.316  18.880
97298W        W98162  26.420  18.611  21.478
97299W        W98163  28.515  19.218  19.158
97300W        W98164  28.824  19.651  19.050
97301W        W98165  26.619  21.849  21.707
97302W        W98166  26.598  18.351  18.844
97303W        W98167  28.750  18.714  19.790
97304W        W98168   0.036  21.219  18.417
97305W        W98169  25.786  20.230  20.043
97306W        W98170  27.855  18.842  18.153
97307W        W98171  28.956  21.231  20.127
97308W        W98172  28.881  18.381  20.677
97309W        W98173  27.621  19.593  21.349
97310W        W98174  27.795  21.157  19.221
97311W        W98175  27.877  20.336  21.882
97312W        W98176  27.692  18.359  19.826
97313W        W98177  26.099  19.342  20.028
97314W        W98178  25.796  20.509  20.775
97315W        W98179  27.643  21.447  19.645
97316W        W98180  28.821  19.115  20.519
97317W        W98181  27.637  21.683  21.159
97318W        W98182  28.732  20.476  18.414
97319W        W98183  27.187  19.989  19.450
97320W        W98184   0.049  18.410  21.168
97321W        W98185  27.354  20.496  20.758
97322W        W98186  27.485  19.305  20.189
97323W        W98187  28.312  19.702  18.986
97324W        W98188  28.614  19.372  18.652
97325W        W98189  28.229  21.394  19.017
97326W        W98190  28.406  20.793  19.942
97327W        W98191  28.033  20.156  18.904
97328W        W98192  27.519  20.139  19.808
97329W        W98193  28.512  19.930  20.000
97330W        W98194  26.022  19.035  20.441
97331W        W98195  28.526  19.999  21.206
97332W        W98196  28.973  21.692  20.493
97333W        W98197  26.928  21.098  19.760
97334W        W98198  28.118  21.641  20.966
97335W        W98199  27.976  18.842  20.782
97336W        W98200  27.204  21.802  20.861
97337W        W98201  28.618  18.710  19.280
97338W        W98202  28.591  20.094  20.479
97339W        W98203  25.635  19.138  20.751
97340W        W98204  28.354  19.022  19.633
97341W        W98205  28.771  19.186  21.415
97342W        W98206  27.845  20.957  19.714
97343W        W98207  27.128  21.495  19.483
97344W        W98208  26.339  18.768  18.724
97345W        W98209  27.306  18.356  20.258
97346W        W98210  26.158  21.627  18.426
97347W        W98211  26.887  20.149  19.053
97348W        W98212  27.407  20.566  21.412
97349W        W98213  27.150  18.983  19.291
97350W        W98214  28.306  18.496  19.648
97351W        W98215  28.167  21.791  19.976
97352W        W98216  27.712  21.497  20.160
97353W        W98217  27.086  20.500  20.312
97354W        W98218  28.776  21.232  20.643
97355W        W98219  26.506  18.689  19.223
97356W        W98220  26.489  18.929  18.237
97357W        W98221  27.327  19.635  20.539
97358W        W98222  28.134  18.357  20.553
97359W        W98223  25.559  20.158  20.498
97360W        W98224  27.139  20.101  18.535
97361W        W98225  26.468  18.423  18.342
97362W        W98226  27.355  19.478  19.320
97363W        W98227  28.129  18.534  21.174
97364W        W98228  26.882  20.483  21.024
97365W        W98229  27.644  20.097  21.484
97366W        W98230  28.128  20.254  21.408
97367W        W98231  27.453  18.492  21.974
97368W        W98232  26.590  19.153  20.084
97369W        W98233  26.224  18.977  19.662
97370W        W98234  25.927  21.702  19.188
97371W        W98235  27.457  21.111  21.457
97372W        W98236  26.662  20.267  18.590
97373W        W98237  28.020  20.026  19.896
97374W        W98238  28.180  19.604  20.236
97375W        W98239  27.568  20.304  20.306
97376W        W98240  28.054  20.903  18.369
97377W        W98241  27.868  18.812  19.660
97378W        W98242   0.016  19.164  19.044
97379W        W98243  25.838  21.776  21.155
97380W        W98244  26.051  20.969  20.696
97381W        W98245  25.542  21.955  18.947
97382W        W98246  27.567  19.180  20.706
97383W        W98247  26.747  21.158  18.771
97384W        W98248  28.640  21.469  18.715
97385W        W98249  27.635  20.004  18.630
97386W        W98250  26.662  19.180  19.222
97387W        W98251  27.483  19.105  18.383
97388W        W98252  27.890  20.715  21.502
97389W        W98253  28.175  18.463  18.886
97390W        W98254  25.508  18.489  18.512
97391W        W98255  26.987  20.875  20.701
97392W        W98256  26.675  20.703  20.045
97393W        W98257  26.666  20.757  18.435
97394W        W98258  25.801  21.329  18.833
97395W        W98259  26.270  19.959  21.213
97396W        W98260  26.903  18.544  21.679
97397W        W98261  27.612  18.530  21.060
97398W        W98262  26.903  18.438  19.427
97399W        W98263  27.661  18.322  18.905
97400W        W98264  25.888  18.509  20.372
97401W        W98265  25.714  19.231  19.662
97402W        W98266  28.546  18.334  20.203
97403W        W98267  26.147  19.043  19.136
97404W        W98268  28.483  18.725  20.620
97405W        W98269  28.889  19.937  18.369
97406W        W98270  26.302  18.732  20.123
97407W        W98271  27.378  19.160  21.198
97408W        W98272  25.576  19.006  18.411
97409W        W98273  26.273  20.411  20.912
97410W        W98274  27.672  19.797  20.187
97411W        W98275  27.621  21.486  18.510
97412W        W98276  25.781  20.096  18.203
97413W        W98277  26.554  20.959  21.482
97414W        W98278  25.953  19.989  20.798
97415W        W98279  27.018  20.103  20.660
97416W        W98280  28.560  18.307  21.063
97417W        W98281   0.053  20.033  21.218
97418W        W98282  28.985  20.236  18.782
97419W        W98283  27.755  20.635  19.108
97420W        W98284  28.412  21.852  18.382
97421W        W98285  27.591  19.756  21.887
97422W        W98286  26.086  20.986  21.709
97423W        W98287   0.122  18.827  21.697
97424W        W98288  28.701  19.585  20.367
97425W        W98289  27.109  21.730  21.777
97426W        W98290  26.948  18.492  18.498
97427W        W98291  28.558  20.964  18.518
97428W        W98292  26.483  19.114  21.300
97429W        W98293  27.011  20.996  21.212
97430W        W98294  28.863  18.850  20.957
97431W        W98295  28.106  21.872  18.799
97432W        W98296  28.339  20.525  20.408
97433W        W98297  26.636  18.740  20.993
97434W        W98298  27.189  19.847  21.554
97435W        W98299  26.415  20.968  19.139
97436W        W98300  28.231  20.500  19.232
97437W        W98301  26.098  18.994  20.983
97438W        W98302  27.375  21.015  19.493
97439W        W98303   0.158  19.738  19.704
97440W        W98304  27.299  18.327  21.456
97441W        W98305  28.324  21.037  20.426
97442W        W98306  28.569  21.542  20.197
97443W        W98307  27.704  21.035  18.728
97444W        W98308  25.667  21.124  21.448
97445W        W98309  26.501  19.158  20.643
97446W        W98310  26.436  18.498  19.691
97447W        W98311  27.945  19.103  20.326
97448W        W98312  27.163  20.628  18.540
97449W        W98313  28.725  20.390  20.074
97450W        W98314  26.399  21.386  21.761
97451W        W98315  28.410  21.869  19.232
97452W        W98316  26.753  18.887  19.649
97453W        W98317  26.282  20.397  19.880
97454W        W98318  26.675  21.852  20.703
97455W        W98319  28.675  21.891  21.483
97456W        W98320  28.043  20.084  20.439
97457W        W98321  25.859  19.551  18.208
97458W        W98322  28.807  21.507  19.241
97459W        W98323  28.498  18.872  18.778
97460W        W98324  26.784  18.290  21.216
97461W        W98325  28.653  21.173  19.685
97462W        W98326  28.664  19.787  19.530
97463W        W98327  26.975  19.336  19.651
97464W        W98328  27.205  19.637  21.040
97465W        W98329  28.115  20.769  21.052
97466W        W98330  26.897  19.191  20.998
97467W        W98331  26.748  21.634  19.835
97468W        W98332  26.146  21.792  21.561
97469W        W98333  26.379  21.178  18.419
97470W        W98334  28.656  20.691  19.454
97471W        W98335  26.475  19.538  21.008
97472W        W98336   0.249  19.794  18.763
97473W        W98337  26.824  20.658  18.946
97474W        W98338  27.969  19.879  21.078
97475W        W98339  27.860  19.599  20.625
97476W        W98340  26.477  19.989  20.684
97477W        W98341  28.446  21.826  20.609
97478W        W98342  28.290  18.507  21.674
97479W        W98343  25.882  18.562  21.354
97480W        W98344  26.441  19.593  20.337
97481W        W98345  26.837  19.461  18.254
97482W        W98346  25.682  21.317  20.964
97483W        W98347  27.171  19.988  20.180
97484W        W98348  26.989  18.992  18.413
97485W        W98349  26.307  19.881  19.918
97486W        W98350  25.897  21.689  20.655
97487W        W98351  28.516  20.071  18.696
97488W        W98352  28.685  18.689  21.420
97489W        W98353  28.254  20.999  19.397
97490W        W98354  25.687  19.835  21.459
97491W        W98355  28.665  18.375  18.693
97492W        W98356  28.176  20.888  18.884
97493W        W98357  27.279  19.818  18.955
97494W        W98358  28.245  18.623  18.400
97495W        W98359  28.325  19.249  20.625
97496W        W98360  25.826  19.727  19.803
97497W        W98361  26.313  20.883  19.659
97498W        W98362  28.231  19.506  19.467
97499W        W98363  27.084  18.988  20.037
97500W        W98364   0.079  20.796  20.783
97501W        W98365  28.914  18.688  20.275
97502W        W98366  25.733  21.586  19.661
97503W        W98367  25.839  20.844  19.173
97504W        W98368  25.986  18.558  21.857
97505W        W98369  27.349  21.276  21.931
97506W        W98370  28.932  20.241  19.635
97507W        W98371  28.236  20.472  18.556
97508W        W98372  27.681  21.648  20.657
97509W        W98373  28.360  20.516  21.771
97510W        W98374  27.106  18.319  18.965
97511W        W98375  27.943  19.308  19.858
97512W        W98376  25.658  20.684  20.293
97513W        W98377  26.859  18.819  18.885
97514W        W98378  26.971  20.325  21.523
97515W        W98379  27.817  19.230  19.348
97516W        W98380  27.866  20.619  20.609
97517W        W98381  26.115  21.334  21.296
97518W        W98382  26.899  21.285  21.677
97519W        W98383  26.581  19.231  18.664
97520W        W98384  28.077  19.252  18.902
97521W        W98385  27.931  21.231  21.247
97522W        W98386  26.832  19.822  19.799
97523W        W98387  26.355  21.405  20.831
97524W        W98388  28.917  21.725  18.355
97525W        W98389  25.856  20.282  21.233
97526W        W98390  27.967  20.520  20.068
97527W        W98391  26.234  20.511  19.325
97528W        W98392  26.878  21.370  20.843
97529W        W98393  27.287  18.660  19.690
97530W        W98394  25.699  20.728  18.655
97531W        W98395  27.282  19.592  18.485
97532W        W98396  25.916  20.179  19.550
97533W        W98397  27.123  18.699  21.150
97534W        W98398  28.582  18.332  18.166
97535W        W98399  28.855  20.250  21.612
97536W        W98400  27.585  21.651  21.661
97537W        W98401   0.049  20.594  21.268
97538W        W98402  28.681  21.255  21.794
97539W        W98403  26.361  21.843  20.262
97540W        W98404   0.047  20.512  19.199
97541W        W98405  27.761  19.709  19.571
97542W        W98406  27.422  18.283  19.376
97543W        W98407  26.549  21.332  19.478
97544W        W98408  27.078  19.155  20.526
97545W        W98409  26.877  18.490  19.974
97546W        W98410  25.660  21.729  18.507
97547W        W98411  27.332  20.501  19.426
97548W        W98412  26.615  21.464  21.287
97549W        W98413  25.789  20.340  19.029
97550W        W98414  25.815  18.866  19.998
97551W        W98415  27.463  20.646  19.923
97552W        W98416  25.819  18.786  18.825
97553W        W98417  28.356  19.741  20.769
97554W        W98418  28.178  19.155  18.414
97555W        W98419  28.767  20.808  20.346
97556W        W98420  27.383  21.148  20.003
97557W        W98421  26.809  21.575  19.084
97558W        W98422  27.801  18.380  18.411
97559W        W98423  25.845  21.678  20.142
97560W        W98424  27.857  19.309  21.740
97561W        W98425  26.057  19.000  21.553
97562W        W98426  25.710  19.316  19.147
97563W        W98427  26.809  19.741  18.698
97564W        W98428  28.037  19.775  21.589
97565W        W98429  26.667  20.149  20.191
97566W        W98430  27.933  18.339  19.347
97567W        W98431  27.257  21.661  19.955
97568W        W98432  28.354  21.206  20.920
97569W        W98433  28.198  21.270  19.958
97570W        W98434  27.862  20.449  19.581
97571W        W98435  27.351  18.726  18.736
97572W        W98436  28.983  18.323  19.398
97573W        W98437  26.566  19.910  18.213
97574W        W98438  28.864  19.304  19.520
97575W        W98439  27.715  20.527  18.598
97576W        W98440  28.534  20.546  21.288
97577W        W98441  28.144  21.410  18.499
97578W        W98442  26.943  19.028  21.505
97579W        W98443  26.838  19.607  20.667
97580W        W98444  28.749  21.027  21.225
97581W        W98445  27.831  18.925  21.330
97582W        W98446  25.555  19.500  21.095
97583W        W98447  27.589  20.024  20.733
97584W        W98448  25.855  20.679  19.772
97585W        W98449  25.953  19.799  20.309
97586W        W98450  28.259  20.295  20.874
97587W        W98451  28.056  21.703  21.485
97588W        W98452  27.960  19.321  21.035
97589W        W98453  28.136  21.494  19.506
97590W        W98454  27.390  21.289  20.911
97591W        W98455  26.729  21.475  20.350
97592W        W98456  28.563  20.761  20.810
97593W        W98457  27.566  20.774  21.885
97594W        W98458  26.169  20.801  20.197
97595W        W98459  28.386  20.332  19.696
97596W        W98460  28.121  21.495  20.440
97597W        W98461  26.181  21.359  20.355
97598W        W98462  27.324  19.340  21.691
97599W        W98463  27.761  21.675  19.148
97600W        W98464  27.072  20.810  21.720
97601W        W98465  26.930  21.088  19.238
97602W        W98466  26.340  19.415  18.156
97603W        W98467  25.606  21.931  25.312
97604W        W98468  26.029  20.775  24.877
97605W        W98469  28.627  20.497  22.556
97606W        W98470  28.922  21.549  24.590
97607W        W98471  26.749  21.556  22.117
97608W        W98472  26.898  19.797  23.189
97609W        W98473  26.480  19.594  23.488
97610W        W98474  27.281  20.436  22.508
97611W        W98475  27.117  21.531  25.089
97612W        W98476  25.775  19.105  24.974
97613W        W98477  26.238  18.317  24.665
97614W        W98478  28.123  18.663  23.637
97615W        W98479  27.878  19.436  22.262
97616W        W98480  28.362  19.004  25.330
97617W        W98481  25.771  18.636  24.469
97618W        W98482  25.829  21.500  25.482
97619W        W98483  27.218  20.886  22.228
97620W        W98484  25.525  19.388  24.043
97621W        W98485  26.565  19.542  25.213
97622W        W98486  28.877  19.529  23.541
97623W        W98487  28.793  20.375  24.562
97624W        W98488  27.243  19.814  23.601
97625W        W98489  27.803  21.120  23.900
97626W        W98490  26.038  20.310  24.158
97627W        W98491  25.446  19.869  23.863
97628W        W98492  26.547  19.954  24.859
97629W        W98493  28.810  19.773  25.229
97630W        W98494  26.500  21.059  23.634
97631W        W98495  27.616  20.932  24.713
97632W        W98496  26.975  19.538  23.973
97633W        W98497  27.196  20.339  23.675
97634W        W98498  27.977  21.188  25.443
97635W        W98499  27.253  20.413  25.454
97636W        W98500  27.061  20.179  25.036
97637W        W98501  25.544  19.349  25.362
97638W        W98502  28.372  21.077  25.115
97639W        W98503  25.999  18.480  23.065
97640W        W98504  26.557  20.713  24.236
97641W        W98505  28.967  20.735  23.508
97642W        W98506  28.388  18.969  23.945
97643W        W98507  28.650  18.966  21.886
97644W        W98508   0.026  19.876  24.358
97645W        W98509  27.209  21.401  24.149
97646W        W98510  28.676  20.968  22.701
97647W        W98511  26.185  22.019  22.582
97648W        W98512  26.492  21.882  23.024
97649W        W98513  26.269  18.633  24.272
97650W        W98514  28.739  19.552  24.697
97651W        W98515  27.993  19.965  23.127
97652W        W98516  28.053  19.888  22.093
97653W        W98517  27.424  20.922  24.236
97654W        W98518  27.403  19.131  23.420
97655W        W98519  27.726  21.329  24.392
97656W        W98520  28.601  20.081  22.833
97657W        W98521  27.775  18.691  22.832
97658W        W98522  26.271  21.526  22.728
97659W        W98523  25.642  18.844  23.145
97660W        W98524  28.365  19.394  23.659
97661W        W98525  25.983  21.155  23.787
97662W        W98526  27.163  21.387  22.415
97663W        W98527  28.404  19.479  21.826
97664W        W98528  25.747  21.216  24.245
97665W        W98529  26.461  21.009  24.656
97666W        W98530  26.835  20.318  23.306
97667W        W98531  26.728  18.797  24.122
97668W        W98532   0.061  18.256  23.596
97669W        W98533  26.486  20.438  21.370
97670W        W98534  25.977  19.028  22.068
97671W        W98535  26.037  21.176  23.273
97672W        W98536  26.988  20.788  23.438
97673W        W98537  28.451  21.520  24.838
97674W        W98538  27.598  19.116  22.575
97675W        W98539  28.661  21.651  23.366
97676W        W98540  28.344  19.613  25.071
97677W        W98541   0.059  20.958  23.053
97678W        W98542  27.777  20.460  24.599
97679W        W98543  25.513  19.874  22.991
97680W        W98544  26.334  20.390  24.583
97681W        W98545  27.796  19.575  22.757
97682W        W98546  27.674  20.303  22.860
97683W        W98547  25.984  19.454  24.295
97684W        W98548  26.027  19.492  25.198
97685W        W98549  25.952  18.276  23.528
97686W        W98550  27.623  18.868  23.829
97687W        W98551  27.421  18.940  25.188
97688W        W98552  27.877  18.722  22.338
97689W        W98553  28.888  21.375  25.144
97690W        W98554  27.732  18.497  25.095
97691W        W98555  28.786  20.843  25.353
97692W        W98556  28.366  19.165  24.826
97693W        W98557  28.180  18.875  23.131
97694W        W98558  28.372  20.106  25.420
97695W        W98559  26.278  21.534  23.608
97696W        W98560  27.090  19.104  22.488
97697W        W98561  26.483  18.622  25.134
97698W        W98562  28.540  19.225  22.927
97699W        W98563  28.822  19.628  22.680
97700W        W98564  26.749  21.843  25.229
97701W        W98565  26.496  18.362  22.505
97702W        W98566   0.006  18.697  23.360
97703W        W98567   0.108  21.089  22.042
97704W        W98568  25.745  20.287  23.725
97705W        W98569  27.897  18.798  21.838
97706W        W98570  28.953  21.222  23.756
97707W        W98571  28.822  18.480  24.258
97708W        W98572  27.472  19.822  24.950
97709W        W98573  27.324  20.983  22.713
97710W        W98574  27.842  20.362  25.503
97711W        W98575  27.727  18.289  23.592
97712W        W98576  26.105  19.335  23.788
97713W        W98577  25.795  20.400  24.612
97714W        W98578  27.762  21.479  23.298
97715W        W98579  28.856  19.021  24.171
97716W        W98580  27.608  21.673  24.907
97717W        W98581  28.717  20.350  22.086
97718W        W98582  27.291  20.126  23.170
97719W        W98583  28.948  18.454  24.756
97720W        W98584  27.273  20.530  24.594
97721W        W98585  27.490  19.413  23.838
97722W        W98586  28.304  19.590  22.666
97723W        W98587  28.670  19.370  22.257
97724W        W98588  28.335  21.352  22.628
97725W        W98589  28.360  20.741  23.549
97726W        W98590  28.038  20.022  22.603
97727W        W98591  27.656  20.136  23.521
97728W        W98592  28.516  19.870  23.653
97729W        W98593  25.888  18.976  24.092
97730W        W98594  28.517  20.072  24.910
97731W        W98595  28.976  21.700  24.040
97732W        W98596  26.939  21.297  23.472
97733W        W98597  28.024  21.737  24.558
97734W        W98598  27.942  19.133  24.532
97735W        W98599  27.321  21.816  24.498
97736W        W98600  28.719  18.757  22.936
97737W        W98601  28.575  20.078  24.155
97738W        W98602  25.596  19.149  24.492
97739W        W98603  28.579  18.990  23.434
97740W        W98604  28.793  19.258  25.139
97741W        W98605  27.819  20.963  23.396
97742W        W98606  27.260  21.666  23.300
97743W        W98607  26.064  18.602  22.361
97744W        W98608  27.323  18.468  24.032
97745W        W98609  26.247  21.792  22.084
97746W        W98610  26.932  20.141  22.784
97747W        W98611  27.282  20.738  25.056
97748W        W98612  27.307  18.839  22.990
97749W        W98613  28.501  18.488  23.310
97750W        W98614  28.185  21.788  23.545
97751W        W98615  27.610  21.734  24.068
97752W        W98616  27.031  20.526  24.139
97753W        W98617  28.729  21.230  24.237
97754W        W98618  26.447  18.677  22.918
97755W        W98619  26.936  20.998  23.934
97756W        W98620  26.522  18.981  21.821
97757W        W98621  27.271  19.609  24.390
97758W        W98622  27.965  18.750  24.196
97759W        W98623  25.517  20.347  24.178
97760W        W98624  27.119  19.993  22.272
97761W        W98625  26.491  18.482  21.983
97762W        W98626  27.574  19.663  23.226
97763W        W98627  28.065  18.638  24.718
97764W        W98628  26.780  20.585  24.821
97765W        W98629  27.579  20.308  25.051
97766W        W98630  28.097  20.364  25.046
97767W        W98631  27.457  18.563  25.524
97768W        W98632  26.613  19.205  23.824
97769W        W98633  26.134  18.937  23.301
97770W        W98634  26.044  21.681  23.172
97771W        W98635  27.506  21.202  25.150
97772W        W98636  26.847  20.780  22.554
97773W        W98637  28.117  20.162  23.723
97774W        W98638  28.200  19.720  24.034
97775W        W98639  27.533  20.418  24.104
97776W        W98640  28.059  20.823  22.024
97777W        W98641  27.716  18.729  23.331
97778W        W98642   0.007  19.140  22.671
97779W        W98643  25.826  21.636  24.964
97780W        W98644  26.050  20.807  24.361
97781W        W98645  25.722  21.889  22.814
97782W        W98646  27.494  19.133  24.276
97783W        W98647  26.690  21.282  22.562
97784W        W98648  28.755  21.332  22.329
97785W        W98649  27.625  20.087  22.300
97786W        W98650  27.292  19.369  22.917
97787W        W98651  27.530  19.055  22.080
97788W        W98652  27.805  20.774  25.181
97789W        W98653  28.265  18.587  22.703
97790W        W98654  25.665  18.253  22.213
97791W        W98655  26.966  20.927  24.463
97792W        W98656  26.686  20.530  23.758
97793W        W98657  26.730  21.031  22.091
97794W        W98658  25.840  21.245  22.783
97795W        W98659  26.233  19.932  25.313
97796W        W98660  26.950  18.712  25.337
97797W        W98661  27.551  18.796  24.693
97798W        W98662  26.921  18.444  23.170
97799W        W98663  27.734  18.193  22.720
97800W        W98664  25.887  18.440  24.017
97801W        W98665  25.646  19.231  23.545
97802W        W98666  28.696  18.593  23.771
97803W        W98667  25.976  18.917  22.765
97804W        W98668  28.450  18.806  24.433
97805W        W98669  28.879  19.797  22.025
97806W        W98670  26.282  18.805  23.792
97807W        W98671  27.392  19.298  24.795
97808W        W98672  25.567  18.752  22.246
97809W        W98673  26.349  20.391  25.096
97810W        W98674  27.597  19.894  23.980
97811W        W98675  27.473  21.724  22.177
97812W        W98676  25.375  20.387  21.928
97813W        W98677  26.503  20.877  25.160
97814W        W98678  26.025  19.996  24.842
97815W        W98679  26.915  20.155  24.540
97816W        W98680  28.459  18.300  24.598
97817W        W98681   0.040  20.046  24.861
97818W        W98682  28.964  20.095  22.459
97819W        W98683  27.781  20.802  22.890
97820W        W98684  28.398  21.747  21.879
97821W        W98685  27.496  19.956  25.495
97822W        W98686  26.063  20.783  25.395
97823W        W98687   0.129  18.913  25.394
97824W        W98688  28.725  19.564  24.043
97825W        W98689  27.216  21.875  25.473
97826W        W98690  26.956  18.440  22.235
97827W        W98691  28.584  20.857  22.168
97828W        W98692  26.293  19.084  25.055
97829W        W98693  26.910  21.090  24.944
97830W        W98694  28.856  19.016  24.689
97831W        W98695  28.231  21.797  22.359
97832W        W98696  28.306  20.510  24.045
97833W        W98697  26.559  18.811  24.645
97834W        W98698  27.021  19.766  25.385
97835W        W98699  26.363  21.014  22.865
97836W        W98700  28.203  20.447  22.839
97837W        W98701  26.091  19.023  24.583
97838W        W98702  27.353  21.102  23.217
97839W        W98703   0.110  19.706  23.115
97840W        W98704  27.232  18.454  24.997
97841W        W98705  28.310  21.038  23.991
97842W        W98706  28.539  21.520  23.843
97843W        W98707  27.697  21.103  22.298
97844W        W98708  25.665  21.061  25.258
97845W        W98709  26.463  19.237  24.312
97846W        W98710  26.417  18.496  23.405
97847W        W98711  27.955  19.261  24.026
97848W        W98712  26.932  20.477  22.104
97849W        W98713  28.676  20.356  23.712
97850W        W98714  26.132  21.234  25.087
97851W        W98715  28.501  21.838  22.806
97852W        W98716  26.788  18.854  23.492
97853W        W98717  26.275  20.201  23.695
97854W        W98718  26.896  21.860  24.205
97855W        W98719  28.673  21.851  25.168
97856W        W98720  27.964  20.138  24.227
97857W        W98721  25.873  19.438  21.764
97858W        W98722  28.797  21.418  22.895
97859W        W98723  28.598  18.905  22.460
97860W        W98724  26.758  18.360  24.792
97861W        W98725  28.654  21.131  23.330
97862W        W98726  28.582  19.697  23.161
97863W        W98727  26.966  19.377  23.484
97864W        W98728  26.998  19.675  24.872
97865W        W98729  28.112  20.817  24.761
97866W        W98730  26.699  19.277  24.793
97867W        W98731  26.758  21.776  23.457
97868W        W98732  26.267  21.695  25.283
97869W        W98733  26.267  21.296  22.253
97870W        W98734  28.648  20.626  23.100
97871W        W98735  26.255  19.516  24.738
97872W        W98736   0.191  19.452  22.284
97873W        W98737  27.107  20.591  22.966
97874W        W98738  27.914  19.996  24.738
97875W        W98739  27.802  19.624  24.381
97876W        W98740  26.240  19.899  24.396
97877W        W98741  28.496  21.686  24.337
97878W        W98742  28.209  18.456  25.269
97879W        W98743  25.963  18.631  24.951
97880W        W98744  26.463  19.677  23.994
97881W        W98745  26.853  19.387  21.896
97882W        W98746  25.660  21.184  24.760
97883W        W98747  27.108  20.020  24.084
97884W        W98748  27.047  18.904  22.007
97885W        W98749  26.422  20.045  23.220
97886W        W98750  25.794  21.831  24.489
97887W        W98751  28.497  19.936  22.337
97888W        W98752  28.535  18.694  24.946
97889W        W98753  28.247  20.957  23.057
97890W        W98754  25.698  19.871  25.222
97891W        W98755  28.677  18.307  22.473
97892W        W98756  28.192  20.857  22.524
97893W        W98757  27.392  19.885  22.726
97894W        W98758  28.340  18.577  22.174
97895W        W98759  28.390  19.314  24.333
97896W        W98760  25.785  19.802  23.447
97897W        W98761  26.353  20.631  23.361
97898W        W98762  28.133  19.460  23.164
97899W        W98763  27.125  19.029  23.871
97900W        W98764   0.036  20.824  24.408
97901W        W98765   0.032  19.077  23.700
97902W        W98766  25.741  21.591  23.614
97903W        W98767  25.935  20.754  22.973
97904W        W98768  26.082  18.593  25.443
97905W        W98769  27.218  21.355  25.570
97906W        W98770  28.961  20.183  23.303
97907W        W98771  28.223  20.379  22.265
97908W        W98772  27.805  22.188  24.260
97909W        W98773  28.277  20.671  25.441
97910W        W98774  27.194  18.215  22.667
97911W        W98775  27.933  19.150  23.529
97912W        W98776  25.702  20.763  23.971
97913W        W98777  26.915  18.651  22.700
97914W        W98778  26.735  20.359  25.456
97915W        W98779  27.747  19.158  23.051
97916W        W98780  27.943  20.813  24.278
97917W        W98781  26.110  21.401  24.583
97918W        W98782  26.696  21.325  25.376
97919W        W98783  26.616  18.848  22.326
97920W        W98784  28.109  19.098  22.653
97921W        W98785  27.956  21.297  24.897
97922W        W98786  26.763  19.985  23.690
97923W        W98787  26.419  21.748  24.354
97924W        W98788  28.902  21.687  21.975
97925W        W98789  25.836  20.364  25.157
97926W        W98790  27.878  20.618  23.779
97927W        W98791  26.578  20.526  22.914
97928W        W98792  26.781  21.398  24.440
97929W        W98793  27.259  18.631  23.529
97930W        W98794  25.436  20.502  22.437
97931W        W98795  27.377  19.529  22.329
97932W        W98796  25.960  20.276  23.257
97933W        W98797  27.040  18.897  24.832
97934W        W98798  28.824  18.483  21.984
97935W        W98799  28.823  20.317  25.244
97936W        W98800  27.666  21.613  25.437
97937W        W98801   0.033  20.709  24.912
97938W        W98802  28.526  21.313  25.535
97939W        W98803  26.445  21.925  23.875
97940W        W98804   0.052  20.430  22.843
97941W        W98805  27.917  19.676  23.609
97942W        W98806  27.440  18.343  23.123
97943W        W98807  26.511  21.387  23.183
97944W        W98808  26.981  19.181  24.371
97945W        W98809  26.858  18.422  23.787
97946W        W98810  25.872  21.613  22.400
97947W        W98811  27.484  20.586  23.297
97948W        W98812  26.556  21.484  24.892
97949W        W98813  25.757  20.271  22.764
97950W        W98814  25.776  18.747  23.630
97951W        W98815  27.400  20.822  23.740
97952W        W98816  25.634  18.524  22.708
97953W        W98817  28.318  19.792  24.524
97954W        W98818  28.217  19.084  22.129
97955W        W98819  28.753  20.787  23.969
97956W        W98820  27.415  21.342  23.675
97957W        W98821  26.926  21.561  22.928
97958W        W98822  27.941  18.281  22.013
97959W        W98823  26.021  21.619  24.056
97960W        W98824  27.979  19.375  25.405
97961W        W98825  25.981  19.091  25.503
97962W        W98826  25.665  19.368  23.042
97963W        W98827  26.952  19.629  22.630
97964W        W98828  27.930  19.891  25.235
97965W        W98829  26.582  20.189  24.139
97966W        W98830  28.019  18.342  23.156
97967W        W98831  27.174  21.778  23.785
97968W        W98832  28.242  21.234  24.465
97969W        W98833  28.194  21.265  23.555
97970W        W98834  27.982  20.479  23.291
97971W        W98835  27.381  18.658  22.464
97972W        W98836  28.944  18.304  23.035
97973W        W98837  26.638  19.936  21.601
97974W        W98838  28.989  19.183  23.175
97975W        W98839  27.759  20.585  22.388
97976W        W98840  28.535  20.614  24.943
97977W        W98841  28.265  21.290  22.115
97978W        W98842  26.990  19.238  25.259
97979W        W98843  26.731  19.676  24.430
97980W        W98844  28.729  21.091  24.746
97981W        W98845  27.907  19.011  25.026
97982W        W98846  25.726  19.571  24.773
97983W        W98847  27.467  20.064  24.480
97984W        W98848  25.859  20.734  23.487
97985W        W98849  25.975  19.837  23.926
97986W        W98850  28.280  20.348  24.554
97987W        W98851  28.089  21.766  25.117
97988W        W98852  27.873  19.500  24.891
97989W        W98853  28.252  21.495  23.106
97990W        W98854  27.278  21.313  24.654
97991W        W98855  26.721  21.480  23.906
97992W        W98856  28.502  20.787  24.420
97993W        W98857  27.451  20.883  25.569
97994W        W98858  26.206  20.695  23.865
97995W        W98859  28.419  20.213  23.290
97996W        W98860  28.079  21.518  24.053
97997W        W98861  26.354  21.200  24.154
97998W        W98862  27.474  19.452  25.306
97999W        W98863  27.459  21.482  22.852
98000W        W98864  26.951  20.856  25.423
98001W        W98865  26.871  21.050  23.003
98002W        W98866  26.383  19.471  21.645
98003W        W98867  25.567  21.942  28.860
98004W        W98868  26.111  20.814  28.420
98005W        W98869  28.613  20.462  26.217
98006W        W98870  28.833  21.536  28.293
98007W        W98871  26.822  21.662  25.757
98008W        W98872  26.739  19.592  26.590
98009W        W98873  26.289  19.393  26.766
98010W        W98874  27.192  20.258  26.284
98011W        W98875  27.106  21.466  28.575
98012W        W98876  25.709  19.086  28.440
98013W        W98877  26.302  18.353  28.242
98014W        W98878  28.083  18.654  27.188
98015W        W98879  27.806  19.474  25.908
98016W        W98880  28.222  19.156  28.747
98017W        W98881  25.721  18.725  28.025
98018W        W98882  25.728  21.461  28.940
98019W        W98883  27.408  20.900  26.102
98020W        W98884  25.757  19.483  27.505
98021W        W98885  26.500  19.550  28.855
98022W        W98886  28.821  19.199  27.366
98023W        W98887  28.705  20.491  28.093
98024W        W98888  27.149  19.677  27.186
98025W        W98889  27.619  21.009  27.414
98026W        W98890  26.209  20.413  27.609
98027W        W98891  25.449  19.898  27.414
98028W        W98892  26.713  20.018  28.696
98029W        W98893  28.789  19.780  28.615
98030W        W98894  26.614  21.127  27.191
98031W        W98895  27.507  20.994  28.252
98032W        W98896  26.789  19.442  27.524
98033W        W98897  26.866  20.106  27.208
98034W        W98898  27.840  21.172   0.031
98035W        W98899  27.093  20.287  28.974
98036W        W98900  27.175  20.124  28.483
98037W        W98901  25.557  19.421  28.830
98038W        W98902  28.269  21.024  28.759
98039W        W98903  26.067  18.417  26.690
98040W        W98904  26.563  20.891  27.671
98041W        W98905  28.954  20.731  27.145
98042W        W98906  28.361  18.924  27.499
98043W        W98907  28.737  19.172  25.649
98044W        W98908   0.064  19.849  27.916
98045W        W98909  27.233  21.447  27.578
98046W        W98910  28.728  20.963  26.321
98047W        W98911  26.088  21.898  26.264
98048W        W98912  26.455  21.751  26.606
98049W        W98913  26.421  18.641  27.814
98050W        W98914  28.650  19.623  28.134
98051W        W98915  28.082  19.968  26.759
98052W        W98916  28.005  19.921  25.741
98053W        W98917  27.384  20.759  27.803
98054W        W98918  27.398  19.210  27.200
98055W        W98919  27.694  21.266  27.850
98056W        W98920  28.599  20.066  26.560
98057W        W98921  27.625  18.768  26.475
98058W        W98922  26.207  21.395  26.305
98059W        W98923  25.774  18.860  26.719
98060W        W98924  28.291  19.471  27.342
98061W        W98925  25.852  21.080  27.175
98062W        W98926  27.205  21.383  26.102
98063W        W98927  28.415  19.604  25.587
98064W        W98928  25.629  21.194  27.767
98065W        W98929  26.524  21.104  28.188
98066W        W98930  26.630  20.089  26.740
98067W        W98931  26.929  18.660  27.930
98068W        W98932  28.952  18.273  27.244
98069W        W98933  26.195  20.339  25.604
98070W        W98934  25.953  19.288  25.991
98071W        W98935  26.086  21.078  26.712
98072W        W98936  26.999  20.437  26.842
98073W        W98937  28.376  21.459  28.500
98074W        W98938  27.481  19.203  26.218
98075W        W98939  28.499  21.610  26.896
98076W        W98940  28.316  19.602  28.518
98077W        W98941   0.067  20.967  26.702
98078W        W98942  27.682  20.512  28.244
98079W        W98943  25.469  19.915  26.544
98080W        W98944  26.463  20.602  28.090
98081W        W98945  27.734  19.643  26.418
98082W        W98946  27.601  20.129  26.567
98083W        W98947  26.063  19.543  28.069
98084W        W98948  26.036  19.465  28.612
98085W        W98949  25.988  18.249  27.180
98086W        W98950  27.684  18.821  27.519
98087W        W98951  27.450  18.875  28.713
98088W        W98952  27.878  18.833  26.003
98089W        W98953  28.777  21.221  28.755
98090W        W98954  27.815  18.347  28.658
98091W        W98955  28.722  20.759  28.952
98092W        W98956  28.333  19.089  28.260
98093W        W98957  28.064  18.899  26.731
98094W        W98958  28.391  20.010  28.892
98095W        W98959  26.220  21.459  27.037
98096W        W98960  26.967  19.262  26.219
98097W        W98961  26.462  18.548  28.723
98098W        W98962  28.492  19.227  26.520
98099W        W98963  28.887  19.627  26.480
98100W        W98964  26.594  21.749   0.006
98101W        W98965  26.710  18.295  26.139
98102W        W98966  28.766  18.730  27.105
98103W        W98967   0.017  21.147  25.703
98104W        W98968  25.812  20.262  27.288
98105W        W98969  27.903  18.837  25.491
98106W        W98970  28.966  21.201  27.458
98107W        W98971   0.027  18.414  28.041
98108W        W98972  27.408  19.692  28.640
98109W        W98973  27.840  21.111  26.346
98110W        W98974  27.948  20.150   0.111
98111W        W98975  27.675  18.361  27.278
98112W        W98976  26.400  19.185  27.238
98113W        W98977  25.945  20.494  28.055
98114W        W98978  27.645  21.614  26.885
98115W        W98979  28.609  19.176  27.849
98116W        W98980  27.528  21.734  28.408
98117W        W98981  28.664  20.409  25.718
98118W        W98982  27.121  19.943  26.728
98119W        W98983   0.027  18.528  28.542
98120W        W98984  26.989  20.604  28.087
98121W        W98985  27.288  19.502  27.654
98122W        W98986  28.286  19.673  26.386
98123W        W98987  28.617  19.457  26.061
98124W        W98988  28.346  21.292  26.437
98125W        W98989  28.053  20.788  27.235
98126W        W98990  28.002  20.069  26.241
98127W        W98991  27.413  20.200  27.057
98128W        W98992  28.480  19.973  27.285
98129W        W98993  26.058  19.018  27.605
98130W        W98994  28.503  20.105  28.376
98131W        W98995  28.855  21.707  27.693
98132W        W98996  26.968  20.954  26.857
98133W        W98997  28.033  21.792  28.319
98134W        W98998  28.015  18.875  27.914
98135W        W98999  27.133  21.979  28.112
98136W        W99000  28.698  18.765  26.589
98137W        W99001  28.561  20.072  27.840
98138W        W99002  25.647  19.235  27.944
98139W        W99003  28.429  19.101  27.015
98140W        W99004  28.738  19.267  28.525
98141W        W99005  27.722  21.012  26.886
98142W        W99006  27.020  21.501  26.689
98143W        W99007  26.121  18.794  25.908
98144W        W99008  27.319  18.457  27.652
98145W        W99009  26.219  21.783  25.787
98146W        W99010  26.750  19.962  26.235
98147W        W99011  27.300  20.616  28.581
98148W        W99012  27.185  18.916  26.738
98149W        W99013  28.379  18.466  26.827
98150W        W99014  28.101  21.794  27.172
98151W        W99015  27.703  21.515  27.379
98152W        W99016  26.715  20.368  27.708
98153W        W99017  28.638  21.277  27.855
98154W        W99018  26.470  18.617  26.454
98155W        W99019  27.059  20.964  27.429
98156W        W99020  26.537  19.023  25.511
98157W        W99021  27.222  19.730  28.128
98158W        W99022  28.043  18.424  27.655
98159W        W99023  25.572  20.278  27.773
98160W        W99024  27.080  20.069  25.817
98161W        W99025  26.535  18.542  25.701
98162W        W99026  27.202  19.432  26.714
98163W        W99027  28.152  18.598  28.351
98164W        W99028  26.788  20.501  28.536
98165W        W99029  27.570  20.225  28.789
98166W        W99030  28.040  20.279  28.572
98167W        W99031  27.489  18.522   0.073
98168W        W99032  26.764  18.907  27.473
98169W        W99033  26.261  18.871  26.863
98170W        W99034  25.893  21.615  26.674
98171W        W99035  27.414  21.096  28.741
98172W        W99036  26.557  20.351  25.965
98173W        W99037  27.904  20.072  27.225
98174W        W99038  28.127  19.866  27.636
98175W        W99039  27.168  20.421  27.481
98176W        W99040  27.888  20.824  25.828
98177W        W99041  27.625  18.783  26.992
98178W        W99042  28.986  19.121  26.369
98179W        W99043  25.666  21.626  28.445
98180W        W99044  26.088  20.988  27.933
98181W        W99045  25.571  21.891  26.352
98182W        W99046  27.633  19.213  27.917
98183W        W99047  26.855  21.117  25.853
98184W        W99048  28.682  21.417  26.037
98185W        W99049  27.562  19.949  26.016
98186W        W99050  26.670  19.073  26.593
98187W        W99051  27.511  19.085  25.696
98188W        W99052  27.803  20.729  28.730
98189W        W99053  28.243  18.648  26.328
98190W        W99054  25.756  18.398  25.788
98191W        W99055  26.975  21.088  27.919
98192W        W99056  26.731  20.609  27.247
98193W        W99057  26.503  20.783  25.682
98194W        W99058  25.718  21.224  26.362
98195W        W99059  26.204  20.027  28.885
98196W        W99060  26.979  18.629  28.843
98197W        W99061  27.463  18.748  28.085
98198W        W99062  26.855  18.309  26.651
98199W        W99063  27.788  18.363  26.217
98200W        W99064  25.965  18.492  27.640
98201W        W99065  25.894  19.241  27.068
98202W        W99066  28.502  18.407  27.436
98203W        W99067  26.153  19.038  26.389
98204W        W99068  28.466  18.625  27.931
98205W        W99069  28.874  19.789  25.731
98206W        W99070  26.349  18.640  27.310
98207W        W99071  27.374  19.263  28.368
98208W        W99072  25.604  18.887  25.832
98209W        W99073  26.290  20.324  28.478
98210W        W99074  27.458  19.984  27.514
98211W        W99075  27.453  21.816  25.924
98212W        W99076  25.684  20.179  25.630
98213W        W99077  26.531  20.923  28.694
98214W        W99078  25.886  20.008  28.223
98215W        W99079  26.794  20.109  28.162
98216W        W99080  28.589  18.320  28.335
98217W        W99081   0.019  20.152  28.322
98218W        W99082  28.951  20.065  26.153
98219W        W99083  27.798  20.564  26.292
98220W        W99084  28.364  21.813  25.581
98221W        W99085  27.557  19.789   0.124
98222W        W99086  26.128  20.603  28.905
98223W        W99087   0.031  18.942  28.830
98224W        W99088  28.691  19.626  27.621
98225W        W99089  27.107  21.778  28.976
98226W        W99090  27.031  18.425  25.764
98227W        W99091  28.568  20.896  25.835
98228W        W99092  26.207  18.981  28.636
98229W        W99093  26.978  20.996  28.437
98230W        W99094  28.843  18.876  28.194
98231W        W99095  28.206  21.746  26.088
98232W        W99096  28.192  20.393  27.560
98233W        W99097  26.557  18.815  28.280
98234W        W99098  27.037  19.759   0.003
98235W        W99099  26.417  20.908  26.295
98236W        W99100  28.216  20.414  26.542
98237W        W99101  26.110  19.023  28.128
98238W        W99102  27.366  21.159  26.560
98239W        W99103   0.032  19.724  27.001
98240W        W99104  27.326  18.422  28.493
98241W        W99105  28.111  21.169  27.569
98242W        W99106  28.495  21.474  27.391
98243W        W99107  27.663  21.307  25.870
98244W        W99108  25.758  20.962  28.762
98245W        W99109  26.516  19.145  27.852
98246W        W99110  26.470  18.235  27.003
98247W        W99111  27.755  19.571  27.400
98248W        W99112  27.006  20.608  25.897
98249W        W99113  28.695  20.437  27.481
98250W        W99114  26.207  21.264  28.910
98251W        W99115  28.541  21.877  26.465
98252W        W99116  26.739  18.704  26.968
98253W        W99117  26.319  20.281  27.104
98254W        W99118  26.658  21.931  27.842
98255W        W99119  28.648  21.705  28.854
98256W        W99120  27.797  20.215  27.838
98257W        W99121  25.826  19.673  25.671
98258W        W99122  28.827  21.427  26.557
98259W        W99123  28.617  18.921  26.090
98260W        W99124  26.819  18.375  28.390
98261W        W99125  28.630  21.120  26.933
98262W        W99126  28.539  19.642  26.878
98263W        W99127  26.887  19.211  27.059
98264W        W99128  26.910  19.561  28.508
98265W        W99129  28.064  20.868  28.301
98266W        W99130  26.478  19.324  28.346
98267W        W99131  26.701  21.626  27.089
98268W        W99132  26.103  21.770  28.689
98269W        W99133  26.377  21.296  25.810
98270W        W99134  28.648  20.639  26.721
98271W        W99135  26.350  19.816  28.410
98272W        W99136   0.133  19.457  26.025
98273W        W99137  26.753  20.507  26.407
98274W        W99138  27.650  20.008  28.313
98275W        W99139  27.691  19.719  27.892
98276W        W99140  26.325  20.104  27.988
98277W        W99141  28.460  21.748  28.007
98278W        W99142  28.324  18.347  28.794
98279W        W99143  25.904  18.590  28.486
98280W        W99144  26.262  19.509  27.600
98281W        W99145  26.801  19.419  25.739
98282W        W99146  25.650  21.077  28.267
98283W        W99147  26.970  19.915  27.686
98284W        W99148  27.021  18.950  25.790
98285W        W99149  26.261  19.832  26.488
98286W        W99150  25.918  21.898  28.080
98287W        W99151  28.464  19.980  25.992
98288W        W99152  28.566  18.776  28.628
98289W        W99153  28.194  20.887  26.737
98290W        W99154  25.732  19.908  28.711
98291W        W99155  28.751  18.443  25.924
98292W        W99156  28.242  20.819  26.222
98293W        W99157  27.207  19.712  26.282
98294W        W99158  28.323  18.665  25.749
98295W        W99159  28.136  19.408  27.886
98296W        W99160  26.095  19.763  27.175
98297W        W99161  26.490  20.740  26.808
98298W        W99162  28.080  19.448  26.807
98299W        W99163  27.226  18.993  27.670
98300W        W99164  28.976  20.895  27.967
98301W        W99165  28.867  18.750  27.641
98302W        W99166  25.624  21.537  27.147
98303W        W99167  25.909  20.737  26.367
98304W        W99168  26.015  18.597   0.003
98305W        W99169  27.298  21.271   0.202
98306W        W99170  28.845  20.238  26.991
98307W        W99171  28.181  20.410  25.900
98308W        W99172  27.612  21.792  27.861
98309W        W99173  28.236  20.559  28.998
98310W        W99174  27.216  18.231  26.284
98311W        W99175  27.930  19.140  27.190
98312W        W99176  25.807  20.731  27.564
98313W        W99177  26.971  18.718  26.308
98314W        W99178  26.595  20.418   0.001
98315W        W99179  27.648  19.215  26.723
98316W        W99180  27.891  20.758  27.814
98317W        W99181  26.089  21.332  28.388
98318W        W99182  26.814  21.282  28.986
98319W        W99183  26.578  18.954  26.056
98320W        W99184  28.012  19.212  26.322
98321W        W99185  27.856  21.314  28.517
98322W        W99186  26.609  19.667  27.088
98323W        W99187  26.292  21.528  27.940
98324W        W99188  28.879  21.675  25.613
98325W        W99189  25.769  20.417  28.564
98326W        W99190  27.676  20.486  27.422
98327W        W99191  26.255  20.377  26.530
98328W        W99192  26.792  21.546  28.140
98329W        W99193  27.185  18.709  27.226
98330W        W99194  25.575  20.478  26.042
98331W        W99195  27.295  19.552  25.796
98332W        W99196  25.902  20.082  26.804
98333W        W99197  27.052  18.867  28.386
98334W        W99198  28.729  18.587  25.423
98335W        W99199  28.825  20.273  28.773
98336W        W99200  27.580  21.605  28.908
98337W        W99201  28.953  20.681  28.501
98338W        W99202  28.453  21.307   0.154
98339W        W99203  26.354  21.780  27.459
98340W        W99204   0.063  20.459  26.483
98341W        W99205  27.608  19.722  26.920
98342W        W99206  27.353  18.402  26.774
98343W        W99207  26.570  21.247  26.684
98344W        W99208  26.972  19.272  28.040
98345W        W99209  26.807  18.399  27.444
98346W        W99210  25.800  21.559  25.992
98347W        W99211  27.384  20.647  26.579
98348W        W99212  26.552  21.460  28.577
98349W        W99213  25.877  20.128  26.279
98350W        W99214  25.863  18.742  27.194
98351W        W99215  27.358  20.714  27.089
98352W        W99216  25.809  18.640  26.273
98353W        W99217  28.117  19.889  28.141
98354W        W99218  28.230  19.173  25.826
98355W        W99219  28.531  20.925  27.393
98356W        W99220  27.310  21.266  27.082
98357W        W99221  26.713  21.464  26.233
98358W        W99222  27.910  18.371  25.701
98359W        W99223  25.859  21.640  27.609
98360W        W99224  27.729  19.321  28.862
98361W        W99225  25.882  19.094   0.008
98362W        W99226  25.828  19.506  26.529
98363W        W99227  26.453  19.443  26.176
98364W        W99228  27.903  19.812  28.728
98365W        W99229  26.470  19.960  27.506
98366W        W99230  27.870  18.390  26.761
98367W        W99231  27.199  21.767  27.145
98368W        W99232  28.163  21.312  28.064
98369W        W99233  28.116  21.293  27.060
98370W        W99234  27.817  20.489  26.879
98371W        W99235  27.399  18.666  26.025
98372W        W99236   0.007  18.343  26.732
98373W        W99237  26.599  19.903  25.690
98374W        W99238  28.898  19.250  26.859
98375W        W99239  27.508  20.439  25.890
98376W        W99240  28.448  20.589  28.533
98377W        W99241  28.184  21.249  25.932
98378W        W99242  26.719  19.070  28.733
98379W        W99243  26.608  19.659  27.970
98380W        W99244  28.595  21.029  28.310
98381W        W99245  27.833  18.993  28.403
98382W        W99246  25.613  19.576  28.342
98383W        W99247  27.301  20.220  27.965
98384W        W99248  25.945  20.603  26.896
98385W        W99249  25.955  19.934  27.675
98386W        W99250  28.193  20.406  28.091
98387W        W99251  28.097  21.615  28.899
98388W        W99252  27.835  19.496  28.334
98389W        W99253  28.069  21.677  26.606
98390W        W99254  27.285  21.444  28.090
98391W        W99255  26.706  21.423  27.617
98392W        W99256  28.391  20.829  27.874
98393W        W99257  27.456  20.747   0.130
98394W        W99258  26.246  20.783  27.268
98395W        W99259  28.323  20.394  27.046
98396W        W99260  28.082  21.668  27.680
98397W        W99261  26.209  21.255  27.509
98398W        W99262  27.178  19.275  28.876
98399W        W99263  27.588  21.582  26.374
98400W        W99264  26.974  20.801  28.945
98401W        W99265  26.933  20.990  26.345
98402W        W99266  26.299  19.474  25.651
98403W        W99267  25.643  25.622   3.443
98404W        W99268  25.937  24.414   2.918
98405W        W99269  28.649  24.163   0.723
98406W        W99270  28.957  25.166   2.724
98407W        W99271  26.889  25.230   0.414
98408W        W99272  26.697  23.368   1.166
98409W        W99273  26.377  23.163   1.519
98410W        W99274  27.303  24.042   0.744
98411W        W99275  27.078  25.213   3.053
98412W        W99276  25.632  22.750   2.989
98413W        W99277  26.174  22.002   2.852
98414W        W99278  28.006  22.289   1.689
98415W        W99279  27.747  23.068   0.673
98416W        W99280  28.312  22.695   3.289
98417W        W99281  25.766  22.273   2.603
98418W        W99282  25.792  25.139   3.530
98419W        W99283  27.076  24.470   0.521
98420W        W99284  25.653  23.116   2.050
98421W        W99285  26.684  23.251   3.150
98422W        W99286  28.928  22.915   1.972
98423W        W99287  28.822  23.979   2.708
98424W        W99288  27.266  23.454   1.553
98425W        W99289  27.811  24.705   2.081
98426W        W99290  26.197  23.964   2.218
98427W        W99291  25.456  23.595   1.970
98428W        W99292  26.750  23.736   2.996
98429W        W99293  28.766  23.299   3.265
98430W        W99294  26.466  24.688   1.737
98431W        W99295  27.617  24.557   2.749
98432W        W99296  27.089  23.138   1.944
98433W        W99297  27.063  23.928   1.653
98434W        W99298  27.834  24.851   3.530
98435W        W99299  27.158  24.034   3.475
98436W        W99300  27.263  23.814   3.015
98437W        W99301  25.414  23.050   3.389
98438W        W99302  28.313  24.696   3.261
98439W        W99303  26.038  22.057   1.104
98440W        W99304  26.499  24.414   2.247
98441W        W99305  28.973  24.353   1.657
98442W        W99306  28.479  22.449   1.842
98443W        W99307  28.612  22.675   0.145
98444W        W99308   0.158  23.486   2.490
98445W        W99309  27.111  25.113   2.192
98446W        W99310  28.767  24.651   0.772
98447W        W99311  26.043  25.468   0.666
98448W        W99312  26.355  25.400   1.085
98449W        W99313  26.284  22.240   2.408
98450W        W99314  28.743  23.283   2.724
98451W        W99315  28.068  23.621   1.312
98452W        W99316  28.128  23.331   0.248
98453W        W99317  27.374  24.523   2.276
98454W        W99318  27.407  22.965   1.570
98455W        W99319  27.740  24.991   2.516
98456W        W99320  28.668  23.788   1.060
98457W        W99321  27.369  22.237   1.090
98458W        W99322  26.242  24.975   0.831
98459W        W99323  25.725  22.441   1.232
98460W        W99324  28.405  22.972   1.764
98461W        W99325  25.921  24.778   1.777
98462W        W99326  27.221  24.959   0.691
98463W        W99327  28.581  23.176   0.075
98464W        W99328  25.725  24.865   2.311
98465W        W99329  26.431  24.519   2.754
98466W        W99330  26.655  23.873   1.356
98467W        W99331  26.737  22.395   2.110
98468W        W99332   0.137  21.867   1.745
98469W        W99333  26.185  23.791   0.173
98470W        W99334  26.055  22.812   0.468
98471W        W99335  26.016  24.776   1.267
98472W        W99336  26.857  24.370   1.410
98473W        W99337  28.495  25.151   2.999
98474W        W99338  27.365  22.693   0.817
98475W        W99339  28.638  25.300   1.528
98476W        W99340  28.295  23.181   3.030
98477W        W99341   0.081  24.603   1.219
98478W        W99342  27.749  24.049   2.851
98479W        W99343  25.660  23.485   1.179
98480W        W99344  26.570  24.034   2.591
98481W        W99345  27.695  23.354   1.101
98482W        W99346  27.684  23.865   1.048
98483W        W99347  26.095  23.089   2.357
98484W        W99348  25.883  23.178   3.155
98485W        W99349  25.939  22.058   1.609
98486W        W99350  27.592  22.405   2.042
98487W        W99351  27.479  22.618   3.259
98488W        W99352  27.862  22.404   0.597
98489W        W99353  28.961  25.101   3.226
98490W        W99354  27.746  22.065   3.128
98491W        W99355  28.753  24.493   3.460
98492W        W99356  28.365  22.522   2.790
98493W        W99357  27.867  22.382   1.122
98494W        W99358  28.435  23.666   3.523
98495W        W99359  26.181  25.198   1.547
98496W        W99360  26.883  22.879   0.815
98497W        W99361  26.375  22.258   3.272
98498W        W99362  28.568  22.905   1.071
98499W        W99363  28.738  23.331   0.863
98500W        W99364  26.610  25.491   3.543
98501W        W99365  26.604  21.906   0.718
98502W        W99366  28.870  22.253   1.586
98503W        W99367   0.012  24.775   0.289
98504W        W99368  25.818  23.930   1.841
98505W        W99369  27.874  22.439   0.027
98506W        W99370  28.984  24.801   1.942
98507W        W99371  28.908  21.998   2.425
98508W        W99372  27.509  23.382   3.198
98509W        W99373  27.468  24.528   0.862
98510W        W99374  28.007  23.843   3.746
98511W        W99375  27.606  21.972   1.716
98512W        W99376  26.095  22.907   1.862
98513W        W99377  26.038  23.945   2.697
98514W        W99378  27.695  25.103   1.536
98515W        W99379  28.580  22.693   2.297
98516W        W99380  27.556  25.276   2.900
98517W        W99381  28.740  24.028   0.237
98518W        W99382  27.111  23.699   1.115
98519W        W99383   0.031  22.007   2.935
98520W        W99384  27.294  24.145   2.619
98521W        W99385  27.577  22.950   2.073
98522W        W99386  28.206  23.351   0.877
98523W        W99387  28.461  23.038   0.553
98524W        W99388  28.369  24.962   0.896
98525W        W99389  28.406  24.366   1.725
98526W        W99390  27.903  23.666   0.597
98527W        W99391  27.593  23.857   1.619
98528W        W99392  28.505  23.493   1.833
98529W        W99393  25.811  22.645   2.226
98530W        W99394  28.528  23.668   3.005
98531W        W99395  28.966  25.276   2.211
98532W        W99396  26.927  24.849   1.582
98533W        W99397  28.063  25.347   2.739
98534W        W99398  27.750  22.696   2.511
98535W        W99399  27.155  25.546   2.670
98536W        W99400  28.715  22.378   1.118
98537W        W99401  28.655  23.689   2.332
98538W        W99402  25.636  23.014   2.559
98539W        W99403  28.285  22.589   1.365
98540W        W99404  28.739  22.848   2.993
98541W        W99405  27.775  24.581   1.566
98542W        W99406  27.150  25.121   1.199
98543W        W99407  26.078  22.284   0.610
98544W        W99408  27.228  21.988   2.118
98545W        W99409  26.355  25.159   0.361
98546W        W99410  26.299  23.584   0.651
98547W        W99411  27.381  24.309   3.112
98548W        W99412  27.095  22.628   1.264
98549W        W99413  28.401  22.088   1.424
98550W        W99414  28.143  25.388   1.761
98551W        W99415  27.624  25.211   2.059
98552W        W99416  27.008  24.134   2.164
98553W        W99417  28.742  24.830   2.409
98554W        W99418  26.471  22.311   1.036
98555W        W99419  26.911  24.642   2.044
98556W        W99420  26.549  22.617   0.055
98557W        W99421  27.278  23.239   2.400
98558W        W99422  27.971  22.027   2.137
98559W        W99423  25.658  23.967   2.340
98560W        W99424  27.134  23.512   0.256
98561W        W99425  26.447  22.156   0.279
98562W        W99426  27.218  23.159   1.086
98563W        W99427  27.990  22.204   2.636
98564W        W99428  26.872  24.235   2.995
98565W        W99429  27.642  23.903   3.359
98566W        W99430  28.121  23.922   3.195
98567W        W99431  27.419  22.182   3.555
98568W        W99432  26.629  22.876   1.906
98569W        W99433  26.193  22.514   1.435
98570W        W99434  25.863  25.245   1.099
98571W        W99435  27.408  24.831   3.187
98572W        W99436  26.128  24.147   0.546
98573W        W99437  28.050  23.729   1.828
98574W        W99438  28.081  23.241   2.061
98575W        W99439  27.511  23.998   2.158
98576W        W99440  28.026  24.465   0.250
98577W        W99441  27.551  22.475   1.520
98578W        W99442   0.051  22.875   0.896
98579W        W99443  25.805  25.286   3.003
98580W        W99444  26.001  24.421   2.406
98581W        W99445  25.535  25.351   0.700
98582W        W99446  27.013  22.299   2.543
98583W        W99447  26.666  24.791   0.560
98584W        W99448  28.695  25.131   0.542
98585W        W99449  27.404  23.526   0.709
98586W        W99450  26.557  22.797   1.195
98587W        W99451  27.545  22.708   0.328
98588W        W99452  27.877  24.376   3.299
98589W        W99453  28.287  22.235   0.874
98590W        W99454  25.686  21.943   0.358
98591W        W99455  26.918  24.478   2.539
98592W        W99456  26.626  24.170   1.813
98593W        W99457  26.568  24.351   0.326
98594W        W99458  25.735  24.850   0.783
98595W        W99459  26.254  23.581   3.029
98596W        W99460  26.874  22.211   3.425
98597W        W99461  27.481  22.330   2.771
98598W        W99462  26.842  21.997   1.210
98599W        W99463  27.704  21.946   0.817
98600W        W99464  25.843  22.138   2.113
98601W        W99465  25.886  22.973   1.362
98602W        W99466  28.635  21.947   1.951
98603W        W99467  26.105  22.680   0.958
98604W        W99468  28.427  22.210   2.339
98605W        W99469  28.918  23.547   0.170
98606W        W99470  26.255  22.406   1.923
98607W        W99471  27.329  22.849   2.760
98608W        W99472  25.661  22.481   0.327
98609W        W99473  26.365  24.101   3.072
98610W        W99474  27.612  23.487   2.053
98611W        W99475  27.447  25.349   0.416
98612W        W99476  25.711  23.924   0.267
98613W        W99477  26.501  24.606   3.267
98614W        W99478  25.873  23.446   2.706
98615W        W99479  26.983  23.727   2.536
98616W        W99480  28.526  22.007   2.801
98617W        W99481   0.065  23.610   2.976
98618W        W99482  28.971  23.766   0.627
98619W        W99483  27.793  24.184   0.625
98620W        W99484  28.426  25.380   0.132
98621W        W99485  27.561  23.547   3.722
98622W        W99486  26.077  24.370   3.419
98623W        W99487   0.308  22.462   3.524
98624W        W99488  28.584  23.192   2.239
98625W        W99489  27.107  25.385   3.544
98626W        W99490  26.950  22.083   0.374
98627W        W99491  28.548  24.517   0.304
98628W        W99492  26.150  22.720   3.173
98629W        W99493  26.856  24.768   2.950
98630W        W99494  28.837  22.443   2.659
98631W        W99495  28.256  25.427   0.616
98632W        W99496  28.336  24.079   2.174
98633W        W99497  26.524  22.470   2.825
98634W        W99498  27.072  23.507   3.430
98635W        W99499  26.421  24.474   0.872
98636W        W99500  28.197  23.970   0.940
98637W        W99501  26.058  22.676   2.677
98638W        W99502  27.335  24.670   1.341
98639W        W99503  28.997  23.179   1.315
98640W        W99504  27.228  22.003   3.094
98641W        W99505  28.310  24.613   2.177
98642W        W99506  28.559  25.067   1.979
98643W        W99507  27.695  24.831   0.466
98644W        W99508  25.635  24.624   3.307
98645W        W99509  26.487  22.758   2.388
98646W        W99510  26.417  22.026   1.490
98647W        W99511  28.086  22.583   2.143
98648W        W99512  26.926  23.968   0.396
98649W        W99513  28.757  23.942   1.894
98650W        W99514  26.065  24.866   3.173
98651W        W99515  28.535  25.472   1.047
98652W        W99516  26.700  22.451   1.574
98653W        W99517  26.301  23.778   1.725
98654W        W99518  26.771  25.512   2.318
98655W        W99519  28.703  25.511   3.347
98656W        W99520  27.943  23.763   2.337
98657W        W99521  25.851  23.460   0.429
98658W        W99522  28.841  25.056   1.092
98659W        W99523  28.683  22.586   0.651
98660W        W99524  26.719  21.991   2.916
98661W        W99525  28.659  24.775   1.513
98662W        W99526  28.521  23.371   1.334
98663W        W99527  26.899  23.032   1.492
98664W        W99528  27.104  23.348   2.864
98665W        W99529  28.109  24.433   2.859
98666W        W99530  26.805  22.911   2.778
98667W        W99531  26.696  25.273   1.453
98668W        W99532  26.150  25.482   3.329
98669W        W99533  26.094  24.658   0.451
98670W        W99534  28.634  24.310   1.228
98671W        W99535  26.308  23.100   2.830
98672W        W99536  28.975  23.122   0.455
98673W        W99537  26.832  24.144   0.927
98674W        W99538  27.901  23.559   2.895
98675W        W99539  27.787  23.249   2.477
98676W        W99540  26.354  23.545   2.514
98677W        W99541  28.507  25.329   2.464
98678W        W99542  28.235  22.184   3.183
98679W        W99543  25.854  22.290   3.129
98680W        W99544  26.363  23.342   2.005
98681W        W99545  26.702  23.031   0.345
98682W        W99546  25.625  24.817   2.822
98683W        W99547  27.135  23.631   2.060
98684W        W99548  27.022  22.607   0.344
98685W        W99549  26.182  23.469   1.149
98686W        W99550  25.799  25.388   2.496
98687W        W99551  28.498  23.595   0.486
98688W        W99552  28.715  22.368   3.174
98689W        W99553  28.212  24.612   1.268
98690W        W99554  25.531  23.558   3.336
98691W        W99555  28.715  22.078   0.595
98692W        W99556  28.236  24.479   0.740
98693W        W99557  26.876  23.407   0.694
98694W        W99558  28.305  22.322   0.357
98695W        W99559  28.204  22.947   2.550
98696W        W99560  25.921  23.423   1.668
98697W        W99561  26.324  24.320   1.382
98698W        W99562  28.119  23.074   1.303
98699W        W99563  27.126  22.622   1.828
98700W        W99564   0.088  24.430   2.597
98701W        W99565  28.952  22.388   2.088
98702W        W99566  25.616  25.103   1.519
98703W        W99567  25.933  24.348   0.989
98704W        W99568  25.962  22.232   3.653
98705W        W99569  27.208  24.892   3.717
98706W        W99570  28.918  23.658   1.498
98707W        W99571  28.256  24.045   0.431
98708W        W99572  27.637  25.546   2.461
98709W        W99573  28.313  24.238   3.557
98710W        W99574  27.133  21.858   0.813
98711W        W99575  27.910  22.805   1.695
98712W        W99576  25.648  24.387   2.017
98713W        W99577  26.937  22.358   0.822
98714W        W99578  26.662  24.169   3.497
98715W        W99579  27.687  22.849   1.169
98716W        W99580  27.902  24.289   2.407
98717W        W99581  26.108  24.918   2.668
98718W        W99582  26.792  25.011   3.411
98719W        W99583  26.517  22.588   0.589
98720W        W99584  28.128  22.761   0.861
98721W        W99585  27.910  24.912   3.017
98722W        W99586  26.760  23.489   1.699
98723W        W99587  26.305  25.312   2.406
98724W        W99588  28.968  25.277   0.133
98725W        W99589  25.854  23.954   3.178
98726W        W99590  27.908  24.219   1.901
98727W        W99591  26.324  23.975   0.989
98728W        W99592  26.670  24.930   2.465
98729W        W99593  27.154  22.166   1.571
98730W        W99594  25.623  24.355   0.559
98731W        W99595  27.234  23.077   0.499
98732W        W99596  25.950  23.887   1.344
98733W        W99597  27.031  22.485   3.018
98734W        W99598  28.735  22.155   0.091
98735W        W99599  28.888  23.850   3.391
98736W        W99600  27.591  25.289   3.423
98737W        W99601   0.039  24.241   3.084
98738W        W99602  28.606  24.992   3.572
98739W        W99603  26.316  25.538   1.946
98740W        W99604   0.080  24.109   1.020
98741W        W99605  27.785  23.313   1.615
98742W        W99606  27.420  21.759   1.256
98743W        W99607  26.525  24.829   1.246
98744W        W99608  27.024  22.783   2.320
98745W        W99609  26.780  21.962   1.845
98746W        W99610  25.841  25.184   0.286
98747W        W99611  27.313  24.164   1.256
98748W        W99612  26.479  25.152   3.011
98749W        W99613  25.856  23.824   0.833
98750W        W99614  25.765  22.533   1.730
98751W        W99615  27.363  24.322   1.775
98752W        W99616  25.613  22.185   0.796
98753W        W99617  28.275  23.451   2.571
98754W        W99618  28.067  22.813   0.318
98755W        W99619  28.778  24.377   2.148
98756W        W99620  27.370  24.823   1.841
98757W        W99621  26.749  25.155   0.903
98758W        W99622  27.895  21.967   0.274
98759W        W99623  25.883  25.255   1.984
98760W        W99624  27.867  22.944   3.438
98761W        W99625  25.738  22.660   3.483
98762W        W99626  25.892  23.151   0.845
98763W        W99627  26.408  23.092   0.782
98764W        W99628  27.978  23.452   3.400
98765W        W99629  26.649  23.755   2.135
98766W        W99630  27.915  21.917   1.302
98767W        W99631  27.199  25.285   1.684
98768W        W99632  28.270  24.866   2.633
98769W        W99633  28.169  24.859   1.732
98770W        W99634  27.992  24.136   1.396
98771W        W99635  27.380  22.254   0.567
98772W        W99636   0.053  21.928   1.234
98773W        W99637  26.620  23.531   0.252
98774W        W99638  28.783  22.746   1.507
98775W        W99639  27.507  23.874   0.299
98776W        W99640  28.529  24.210   3.083
98777W        W99641  28.227  24.933   0.405
98778W        W99642  26.657  22.719   3.287
98779W        W99643  26.756  23.249   2.346
98780W        W99644  28.777  24.693   2.951
98781W        W99645  27.905  22.553   3.000
98782W        W99646  25.415  23.284   2.929
98783W        W99647  27.496  23.668   2.574
98784W        W99648  25.815  24.346   1.504
98785W        W99649  25.915  23.540   2.194
98786W        W99650  28.259  23.965   2.685
98787W        W99651  28.151  25.235   3.381
98788W        W99652  27.794  23.041   2.937
98789W        W99653  28.170  25.157   1.309
98790W        W99654  27.244  24.908   2.649
98791W        W99655  26.644  25.128   1.959
98792W        W99656  28.538  24.394   2.593
98793W        W99657  27.480  24.475   3.590
98794W        W99658  26.143  24.331   1.886
98795W        W99659  28.442  23.900   1.502
98796W        W99660  28.113  25.113   2.203
98797W        W99661  26.234  24.854   2.171
98798W        W99662  27.108  22.969   3.205
98799W        W99663  27.641  25.029   1.004
98800W        W99664  27.011  24.540   3.391
98801W        W99665  26.941  24.659   0.994
98802W        W99666  26.213  23.208   0.168
98803W        W99667  25.656  25.749   7.064
98804W        W99668  25.950  24.518   6.583
98805W        W99669  28.685  24.218   4.335
98806W        W99670  28.867  25.234   6.378
98807W        W99671  26.801  25.177   3.919
98808W        W99672  27.049  23.331   4.985
98809W        W99673  26.465  23.036   5.373
98810W        W99674  27.305  24.145   4.337
98811W        W99675  27.166  25.171   6.800
98812W        W99676  25.559  22.643   6.712
98813W        W99677  26.197  22.025   6.424
98814W        W99678  28.077  22.337   5.367
98815W        W99679  27.629  23.118   4.069
98816W        W99680  28.222  22.839   6.950
98817W        W99681  25.741  22.302   6.327
98818W        W99682  25.773  25.241   7.160
98819W        W99683  27.504  24.635   4.104
98820W        W99684  25.598  23.198   5.897
98821W        W99685  26.726  23.149   6.943
98822W        W99686   0.002  22.837   5.398
98823W        W99687  28.777  24.007   6.225
98824W        W99688  27.297  23.546   5.377
98825W        W99689  27.821  24.766   5.672
98826W        W99690  26.234  24.028   5.883
98827W        W99691  25.476  23.659   5.696
98828W        W99692  26.658  23.661   6.710
98829W        W99693  28.709  23.468   6.943
98830W        W99694  26.399  24.838   5.340
98831W        W99695  27.580  24.600   6.487
98832W        W99696  27.221  23.145   5.718
98833W        W99697  27.174  24.012   5.544
98834W        W99698  27.963  24.769   7.230
98835W        W99699  27.292  23.971   7.275
98836W        W99700  27.158  23.783   6.803
98837W        W99701  25.478  23.060   7.097
98838W        W99702  28.346  24.694   6.887
98839W        W99703  25.999  21.980   4.914
98840W        W99704  26.519  24.481   5.947
98841W        W99705  28.987  24.438   5.224
98842W        W99706  28.544  22.542   5.524
98843W        W99707  28.692  22.686   3.643
98844W        W99708  28.915  23.504   6.184
98845W        W99709  27.100  25.190   5.851
98846W        W99710  28.672  24.712   4.470
98847W        W99711  25.996  25.481   4.348
98848W        W99712  26.408  25.436   4.726
98849W        W99713  26.195  22.426   6.115
98850W        W99714  28.716  23.036   6.278
98851W        W99715  28.117  23.638   4.800
98852W        W99716  28.070  23.343   3.936
98853W        W99717  27.399  24.584   5.986
98854W        W99718  27.489  23.089   5.266
98855W        W99719  27.775  24.957   6.168
98856W        W99720  28.596  23.777   4.571
98857W        W99721  27.504  22.414   4.798
98858W        W99722  26.215  25.025   4.478
98859W        W99723  25.764  22.386   5.111
98860W        W99724  28.529  23.035   5.321
98861W        W99725  25.885  24.876   5.426
98862W        W99726  27.351  25.046   4.467
98863W        W99727  28.371  23.142   3.548
98864W        W99728  25.713  24.939   5.953
98865W        W99729  26.439  24.578   6.451
98866W        W99730  26.875  23.844   5.172
98867W        W99731  26.745  22.431   5.991
98868W        W99732  28.998  21.825   5.424
98869W        W99733  26.030  23.563   3.489
98870W        W99734  25.863  22.644   3.978
98871W        W99735  26.061  24.820   4.939
98872W        W99736  27.139  24.442   5.207
98873W        W99737  28.445  25.156   6.669
98874W        W99738  27.612  22.666   4.358
98875W        W99739  28.673  25.379   5.148
98876W        W99740  28.350  23.232   6.638
98877W        W99741   0.112  24.685   4.784
98878W        W99742  27.774  24.116   6.429
98879W        W99743  25.198  23.689   4.705
98880W        W99744  26.557  24.093   6.278
98881W        W99745  27.835  23.330   4.494
98882W        W99746  27.678  23.899   4.646
98883W        W99747  26.033  23.159   6.193
98884W        W99748  25.876  23.161   6.769
98885W        W99749  26.002  21.961   5.413
98886W        W99750  27.659  22.350   5.742
98887W        W99751  27.439  22.482   6.909
98888W        W99752  27.919  22.357   4.047
98889W        W99753  28.797  24.976   7.018
98890W        W99754  27.784  22.022   6.902
98891W        W99755  28.720  24.471   7.152
98892W        W99756  28.283  22.735   6.323
98893W        W99757  27.983  22.564   4.925
98894W        W99758  28.406  23.802   7.215
98895W        W99759  26.145  25.290   5.168
98896W        W99760  27.185  22.821   4.099
98897W        W99761  26.406  22.187   6.956
98898W        W99762  28.537  22.870   4.537
98899W        W99763  28.860  23.254   4.346
98900W        W99764  26.606  25.552   7.261
98901W        W99765  26.650  22.042   4.308
98902W        W99766  28.798  22.252   5.175
98903W        W99767   0.048  24.800   3.788
98904W        W99768  25.859  23.994   5.509
98905W        W99769  27.905  22.414   3.499
98906W        W99770  28.996  24.868   5.512
98907W        W99771  28.885  22.016   6.268
98908W        W99772  27.560  23.348   6.710
98909W        W99773  27.784  24.725   4.579
98910W        W99774  27.858  23.936   7.299
98911W        W99775  27.611  22.066   5.301
98912W        W99776  26.271  22.732   5.728
98913W        W99777  26.038  24.027   6.376
98914W        W99778  27.769  25.142   5.261
98915W        W99779  28.902  22.696   5.899
98916W        W99780  27.607  25.291   6.579
98917W        W99781  28.738  24.089   3.816
98918W        W99782  27.385  23.965   5.073
98919W        W99783   0.121  22.244   6.646
98920W        W99784  27.276  24.203   6.360
98921W        W99785  27.640  22.866   5.710
98922W        W99786  28.341  23.345   4.421
98923W        W99787  28.518  23.055   4.028
98924W        W99788  28.276  25.079   4.448
98925W        W99789  28.465  24.431   5.297
98926W        W99790  28.022  23.762   4.285
98927W        W99791  27.690  23.866   5.487
98928W        W99792  28.582  23.539   5.292
98929W        W99793  25.789  22.736   6.019
98930W        W99794  28.522  23.709   6.552
98931W        W99795  28.999  25.306   5.799
98932W        W99796  26.914  24.909   5.251
98933W        W99797  28.082  25.355   6.364
98934W        W99798  27.660  22.681   6.189
98935W        W99799  27.185  25.525   6.363
98936W        W99800  28.730  22.351   4.624
98937W        W99801  28.633  23.679   5.793
98938W        W99802  25.547  23.040   6.380
98939W        W99803  28.481  22.631   5.003
98940W        W99804  28.711  22.886   6.771
98941W        W99805  27.802  24.605   5.136
98942W        W99806  27.040  25.231   4.857
98943W        W99807  26.259  22.356   4.170
98944W        W99808  27.277  22.020   5.689
98945W        W99809  26.159  25.494   3.847
98946W        W99810  27.188  23.715   4.639
98947W        W99811  27.369  24.265   6.852
98948W        W99812  27.193  22.810   4.863
98949W        W99813  28.363  22.116   4.956
98950W        W99814  28.191  25.437   5.385
98951W        W99815  27.602  25.243   5.746
98952W        W99816  26.969  24.191   5.961
98953W        W99817  28.777  24.881   6.010
98954W        W99818  26.377  22.245   4.692
98955W        W99819  26.929  24.694   5.735
98956W        W99820  26.307  22.617   3.670
98957W        W99821  27.485  23.210   6.180
98958W        W99822  28.067  22.033   5.785
98959W        W99823  25.697  24.036   5.995
98960W        W99824  27.117  23.827   3.938
98961W        W99825  26.461  22.119   3.761
98962W        W99826  27.552  23.470   4.910
98963W        W99827  27.992  22.291   6.211
98964W        W99828  26.874  24.207   6.664
98965W        W99829  27.658  23.841   6.836
98966W        W99830  28.141  23.962   6.805
98967W        W99831  27.393  22.176   7.317
98968W        W99832  26.767  22.910   5.780
98969W        W99833  26.244  22.518   5.249
98970W        W99834  25.791  25.222   4.752
98971W        W99835  27.523  24.805   6.963
98972W        W99836  26.206  24.339   4.817
98973W        W99837  28.196  23.827   5.459
98974W        W99838  28.231  23.351   5.646
98975W        W99839  27.533  24.054   5.945
98976W        W99840  27.937  24.463   3.843
98977W        W99841  27.591  22.586   5.274
98978W        W99842   0.025  22.738   4.413
98979W        W99843  25.820  25.334   6.646
98980W        W99844  26.021  24.473   6.078
98981W        W99845  25.452  25.410   4.408
98982W        W99846  27.262  22.335   6.081
98983W        W99847  27.004  24.763   4.198
98984W        W99848  28.679  25.084   4.116
98985W        W99849  27.515  23.641   4.227
98986W        W99850  26.752  22.494   4.952
98987W        W99851  27.599  22.670   3.807
98988W        W99852  27.863  24.393   6.880
98989W        W99853  28.222  22.429   4.501
98990W        W99854  25.525  21.804   3.923
98991W        W99855  26.926  24.588   6.265
98992W        W99856  26.700  24.241   5.520
98993W        W99857  26.687  24.670   3.777
98994W        W99858  25.453  24.886   4.459
98995W        W99859  26.144  23.654   6.777
98996W        W99860  26.883  22.138   7.134
98997W        W99861  27.557  22.224   6.476
98998W        W99862  26.841  21.982   4.818
98999W        W99863  27.632  22.093   4.402
99000W        W99864  25.940  22.012   5.946
99001W        W99865  25.833  22.855   5.316
99002W        W99866  28.499  22.000   5.498
99003W        W99867  25.865  22.369   4.600
99004W        W99868  28.470  22.349   6.004
99005W        W99869  28.848  23.459   3.772
99006W        W99870  26.362  22.214   5.680
99007W        W99871  27.373  22.870   6.578
99008W        W99872  25.463  22.333   3.790
99009W        W99873  26.373  24.138   6.757
99010W        W99874  27.685  23.388   5.702
99011W        W99875  27.348  25.308   3.994
99012W        W99876  25.294  23.872   3.673
99013W        W99877  26.625  24.584   6.932
99014W        W99878  25.786  23.552   6.428
99015W        W99879  26.964  23.782   6.316
99016W        W99880  28.411  22.114   6.463
99017W        W99881   0.034  23.761   6.607
99018W        W99882  28.936  23.784   4.172
99019W        W99883  27.807  24.259   4.306
99020W        W99884  28.440  25.432   3.793
99021W        W99885  27.500  23.508   7.184
99022W        W99886  26.138  24.486   7.069
99023W        W99887   0.038  22.556   7.045
99024W        W99888  28.889  23.212   5.749
99025W        W99889  27.091  25.445   7.212
99026W        W99890  26.954  22.005   3.898
99027W        W99891  28.590  24.579   3.949
99028W        W99892  26.408  22.729   6.860
99029W        W99893  27.091  24.675   6.732
99030W        W99894  28.775  22.526   6.389
99031W        W99895  28.137  25.519   4.222
99032W        W99896  28.395  24.136   5.812
99033W        W99897  26.551  22.409   6.489
99034W        W99898  26.985  23.505   7.220
99035W        W99899  26.563  24.617   4.507
99036W        W99900  28.218  24.157   4.601
99037W        W99901  26.030  22.731   6.503
99038W        W99902  27.415  24.899   4.979
99039W        W99903   0.172  23.340   5.042
99040W        W99904  27.272  21.986   6.835
99041W        W99905  28.324  24.668   5.780
99042W        W99906  28.561  25.118   5.589
99043W        W99907  27.803  25.076   4.189
99044W        W99908  25.694  24.757   6.971
99045W        W99909  26.462  22.857   6.198
99046W        W99910  26.445  22.052   5.169
99047W        W99911  28.080  22.615   5.811
99048W        W99912  27.091  24.352   3.889
99049W        W99913  28.744  24.022   5.431
99050W        W99914  26.195  24.969   6.833
99051W        W99915  28.447  25.571   4.684
99052W        W99916  26.714  22.514   5.462
99053W        W99917  26.304  23.634   5.549
99054W        W99918  26.734  25.488   6.102
99055W        W99919  28.719  25.474   6.959
99056W        W99920  27.983  23.753   5.938
99057W        W99921  25.828  23.120   3.687
99058W        W99922  28.794  25.165   4.666
99059W        W99923  28.571  22.537   4.128
99060W        W99924  26.763  21.940   6.649
99061W        W99925  28.677  24.853   5.075
99062W        W99926  28.672  23.343   4.829
99063W        W99927  26.980  22.933   5.310
99064W        W99928  27.068  23.325   6.589
99065W        W99929  28.126  24.495   6.467
99066W        W99930  26.839  22.859   6.539
99067W        W99931  26.666  25.359   5.187
99068W        W99932  26.155  25.547   7.006
99069W        W99933  26.318  25.050   3.592
99070W        W99934  28.676  24.357   4.831
99071W        W99935  26.367  23.196   6.587
99072W        W99936   0.025  22.999   3.916
99073W        W99937  26.989  24.186   4.777
99074W        W99938  27.978  23.586   6.467
99075W        W99939  27.983  23.090   6.021
99076W        W99940  26.342  23.619   6.277
99077W        W99941  28.501  25.383   6.050
99078W        W99942  28.276  22.039   7.064
99079W        W99943  25.933  22.282   6.802
99080W        W99944  26.446  23.288   5.898
99081W        W99945  26.838  23.076   3.636
99082W        W99946  25.591  24.885   6.473
99083W        W99947  27.231  23.632   5.890
99084W        W99948  27.108  22.622   3.617
99085W        W99949  26.518  23.481   5.105
99086W        W99950  25.775  25.522   6.158
99087W        W99951  28.461  23.670   4.039
99088W        W99952  28.534  22.426   6.858
99089W        W99953  28.247  24.657   4.828
99090W        W99954  25.652  23.616   6.955
99091W        W99955  28.798  22.066   4.109
99092W        W99956  28.197  24.599   4.292
99093W        W99957  27.330  23.196   4.500
99094W        W99958  28.377  22.267   3.693
99095W        W99959  28.457  22.945   5.849
99096W        W99960  26.031  23.175   5.647
99097W        W99961  26.643  24.480   5.054
99098W        W99962  28.194  23.091   4.875
99099W        W99963  27.196  22.593   5.640
99100W        W99964   0.064  24.451   6.139
99101W        W99965  28.889  22.190   5.774
99102W        W99966  25.619  25.275   5.230
99103W        W99967  25.722  24.483   4.673
99104W        W99968  26.014  22.248   7.334
99105W        W99969  27.218  24.952   7.375
99106W        W99970  28.925  23.815   5.003
99107W        W99971  28.272  24.149   4.063
99108W        W99972  27.672  25.572   6.144
99109W        W99973  28.235  24.307   7.222
99110W        W99974  27.147  21.897   4.373
99111W        W99975  28.026  22.887   5.351
99112W        W99976  25.679  24.471   5.685
99113W        W99977  27.056  22.388   4.515
99114W        W99978  26.771  23.987   7.120
99115W        W99979  27.686  22.955   4.810
99116W        W99980  27.930  24.389   6.011
99117W        W99981  26.093  24.959   6.326
99118W        W99982  26.761  25.050   7.135
99119W        W99983  26.777  22.475   4.003
99120W        W99984  28.073  22.904   4.297
99121W        W99985  27.949  24.928   6.673
99122W        W99986  26.817  23.401   5.530
99123W        W99987  26.248  25.348   6.025
99124W        W99988  28.967  25.323   3.773
99125W        W99989  25.847  24.087   6.849
99126W        W99990  28.026  24.312   5.510
99127W        W99991  26.316  24.042   5.232
99128W        W99992  26.613  24.971   6.129
99129W        W99993  27.155  22.292   5.198
99130W        W99994  25.252  24.337   4.405
99131W        W99995  27.383  23.079   3.606
99132W        W99996  25.855  23.517   5.309
99133W        W99997  27.065  22.386   6.557
99134W        W99998  28.881  22.174   3.618
99135W        W99999  28.872  23.976   7.039
99136W        W    0  27.581  25.293   7.123
99137W        W    1   0.041  24.272   6.615
99138W        W    2  28.440  24.909   7.351
99139W        W    3  26.339  25.584   5.580
99140W        W    4   0.106  24.141   4.650
99141W        W    5  27.935  23.407   5.236
99142W        W    6  27.350  21.934   4.854
99143W        W    7  26.559  24.968   4.878
99144W        W    8  27.140  22.822   6.119
99145W        W    9  26.825  22.010   5.488
99146W        W   10  25.720  25.135   4.055
99147W        W   11  27.471  24.384   4.785
99148W        W   12  26.697  25.018   6.625
99149W        W   13  25.851  23.940   4.981
99150W        W   14  25.862  22.417   5.618
99151W        W   15  27.529  24.367   5.523
99152W        W   16  25.786  22.160   4.149
99153W        W   17  28.371  23.415   6.147
99154W        W   18  28.171  22.740   3.810
99155W        W   19  28.785  24.447   5.713
99156W        W   20  27.358  24.854   5.496
99157W        W   21  26.748  25.141   4.438
99158W        W   22  27.960  21.945   3.702
99159W        W   23  25.880  25.354   5.661
99160W        W   24  27.716  22.922   6.987
99161W        W   25  25.917  22.730   7.092
99162W        W   26  25.534  23.324   4.899
99163W        W   27  27.157  23.325   3.995
99164W        W   28  28.008  23.458   7.008
99165W        W   29  26.693  23.764   5.874
99166W        W   30  27.871  22.048   4.863
99167W        W   31  27.249  25.335   5.336
99168W        W   32  28.311  24.914   6.238
99169W        W   33  28.199  24.867   5.333
99170W        W   34  27.916  24.089   5.057
99171W        W   35  27.320  22.321   4.060
99172W        W   36   0.061  21.938   4.863
99173W        W   37  26.555  23.641   3.465
99174W        W   38  28.920  22.903   4.892
99175W        W   39  27.567  24.066   3.882
99176W        W   40  28.542  24.245   6.685
99177W        W   41  28.208  24.957   3.897
99178W        W   42  26.923  22.639   7.006
99179W        W   43  26.904  23.294   6.110
99180W        W   44  28.745  24.732   6.557
99181W        W   45  27.916  22.538   6.655
99182W        W   46  25.313  23.378   6.679
99183W        W   47  27.471  23.707   6.351
99184W        W   48  25.838  24.411   5.184
99185W        W   49  25.946  23.597   5.926
99186W        W   50  28.250  24.029   6.284
99187W        W   51  28.105  25.250   7.051
99188W        W   52  27.894  23.031   6.514
99189W        W   53  28.244  25.178   4.943
99190W        W   54  27.257  24.989   6.316
99191W        W   55  26.627  25.158   5.660
99192W        W   56  28.546  24.451   6.187
99193W        W   57  27.578  24.412   7.301
99194W        W   58  26.183  24.426   5.559
99195W        W   59  28.428  23.968   5.032
99196W        W   60  28.104  25.162   5.820
99197W        W   61  26.209  24.882   5.819
99198W        W   62  27.227  23.072   7.034
99199W        W   63  27.774  25.213   4.732
99200W        W   64  27.063  24.469   7.223
99201W        W   65  27.011  24.715   4.739
99202W        W   66  26.311  23.115   3.463
99203W        W   67  25.683  25.698  10.713
99204W        W   68  26.033  24.469  10.280
99205W        W   69  28.603  24.168   8.019
99206W        W   70  28.933  25.303  10.005
99207W        W   71  26.843  25.246   7.624
99208W        W   72  26.992  23.475   8.528
99209W        W   73  26.400  22.814   8.695
99210W        W   74  27.483  23.794   8.118
99211W        W   75  27.062  25.217  10.347
99212W        W   76  25.688  22.731  10.321
99213W        W   77  26.311  21.895  10.108
99214W        W   78  28.022  22.703   8.950
99215W        W   79  27.796  23.163   7.431
99216W        W   80  28.266  22.667  10.529
99217W        W   81  25.714  22.424   9.871
99218W        W   82  25.826  25.199  10.814
99219W        W   83  27.383  24.592   7.739
99220W        W   84  25.628  23.100   9.329
99221W        W   85  26.745  23.205  10.556
99222W        W   86  28.806  22.894   9.104
99223W        W   87  28.767  24.027   9.913
99224W        W   88  27.291  23.471   8.958
99225W        W   89  27.772  24.809   9.402
99226W        W   90  26.052  24.047   9.543
99227W        W   91  25.427  23.574   9.256
99228W        W   92  26.654  23.618  10.252
99229W        W   93  28.827  23.368  10.546
99230W        W   94  26.453  24.797   9.012
99231W        W   95  27.560  24.571  10.069
99232W        W   96  26.828  23.140   9.361
99233W        W   97  27.081  23.953   9.055
99234W        W   98  27.850  24.798  10.826
99235W        W   99  27.266  24.005  10.804
99236W        W  100  27.122  23.820  10.284
99237W        W  101  25.534  23.035  10.816
99238W        W  102  28.327  24.810  10.572
99239W        W  103  25.997  22.111   8.301
99240W        W  104  26.620  24.579   9.527
99241W        W  105  28.931  24.379   8.932
99242W        W  106  28.449  22.523   9.195
99243W        W  107  28.619  22.725   7.293
99244W        W  108   0.312  23.359   9.827
99245W        W  109  27.211  25.237   9.466
99246W        W  110  28.745  24.666   8.075
99247W        W  111  26.010  25.609   8.023
99248W        W  112  26.413  25.509   8.358
99249W        W  113  26.170  22.236   9.756
99250W        W  114  28.803  23.192   9.990
99251W        W  115  28.233  23.638   8.690
99252W        W  116  28.124  23.541   7.545
99253W        W  117  27.433  24.483   9.585
99254W        W  118  27.193  22.656   8.788
99255W        W  119  27.757  25.006   9.862
99256W        W  120  28.679  23.753   8.371
99257W        W  121  27.739  22.453   8.143
99258W        W  122  26.337  25.220   7.860
99259W        W  123  25.665  22.482   8.411
99260W        W  124  28.315  23.131   9.060
99261W        W  125  25.938  24.845   9.117
99262W        W  126  27.241  25.042   7.949
99263W        W  127  28.418  23.209   7.267
99264W        W  128  25.737  24.945   9.617
99265W        W  129  26.480  24.663  10.029
99266W        W  130  27.285  23.890   8.585
99267W        W  131  26.611  22.416   9.566
99268W        W  132   0.076  21.977   9.002
99269W        W  133  26.209  23.977   7.214
99270W        W  134  26.064  22.719   7.601
99271W        W  135  26.091  24.873   8.626
99272W        W  136  27.065  24.382   8.623
99273W        W  137  28.514  25.231  10.321
99274W        W  138  27.603  22.866   7.819
99275W        W  139  28.694  25.430   8.842
99276W        W  140  28.426  23.133  10.374
99277W        W  141   0.040  24.677   8.518
99278W        W  142  27.751  24.089  10.062
99279W        W  143  25.618  23.488   8.433
99280W        W  144  26.460  24.195   9.809
99281W        W  145  27.900  23.264   7.951
99282W        W  146  27.807  23.851   8.510
99283W        W  147  26.042  23.222   9.772
99284W        W  148  25.985  23.103  10.543
99285W        W  149  25.888  22.012   8.967
99286W        W  150  27.557  22.554   9.145
99287W        W  151  27.365  22.527  10.593
99288W        W  152  27.817  22.441   7.649
99289W        W  153  28.976  25.250  10.529
99290W        W  154  27.857  22.028  10.445
99291W        W  155  28.685  24.467  10.742
99292W        W  156  28.379  22.754  10.016
99293W        W  157  28.134  22.574   8.441
99294W        W  158  28.458  23.745  10.763
99295W        W  159  26.268  25.272   8.909
99296W        W  160  27.109  22.804   7.892
99297W        W  161  26.493  22.254  10.558
99298W        W  162  28.499  22.939   8.258
99299W        W  163  28.802  23.322   8.089
99300W        W  164  26.591  25.555  10.940
99301W        W  165  26.546  21.887   7.968
99302W        W  166  28.854  22.423   8.841
99303W        W  167  28.948  24.766   7.536
99304W        W  168  25.777  23.974   9.107
99305W        W  169  27.908  22.457   7.156
99306W        W  170  28.949  24.883   9.178
99307W        W  171  28.894  22.028   9.714
99308W        W  172  27.573  23.324  10.362
99309W        W  173  27.740  24.759   8.100
99310W        W  174  27.785  23.994  10.919
99311W        W  175  27.862  22.191   8.931
99312W        W  176  26.121  23.047   9.130
99313W        W  177  25.813  24.080   9.992
99314W        W  178  27.719  25.229   8.755
99315W        W  179  28.749  22.780   9.625
99316W        W  180  27.566  25.288  10.259
99317W        W  181  28.736  24.064   7.528
99318W        W  182  27.547  23.414   8.503
99319W        W  183   0.005  22.043  10.224
99320W        W  184  27.266  24.133   9.917
99321W        W  185  27.283  23.007   9.207
99322W        W  186  28.300  23.415   8.239
99323W        W  187  28.391  23.163   7.787
99324W        W  188  28.363  25.017   8.240
99325W        W  189  28.400  24.526   9.016
99326W        W  190  27.991  23.764   8.015
99327W        W  191  27.615  23.909   8.985
99328W        W  192  28.561  23.588   9.087
99329W        W  193  25.972  22.727   9.519
99330W        W  194  28.486  23.634  10.226
99331W        W  195  28.970  25.349   9.459
99332W        W  196  26.951  24.838   8.849
99333W        W  197  28.062  25.350  10.138
99334W        W  198  27.895  22.694   9.827
99335W        W  199  27.268  25.515   9.909
99336W        W  200  28.658  22.456   8.345
99337W        W  201  28.464  23.720   9.606
99338W        W  202  25.627  22.937   9.844
99339W        W  203  28.484  22.767   8.738
99340W        W  204  28.864  22.851  10.398
99341W        W  205  27.767  24.639   8.923
99342W        W  206  27.133  25.246   8.514
99343W        W  207  26.336  22.348   7.862
99344W        W  208  27.315  22.124   9.460
99345W        W  209  26.180  25.609   7.534
99346W        W  210  26.978  23.868   8.161
99347W        W  211  27.251  24.321  10.389
99348W        W  212  27.262  22.522   8.290
99349W        W  213  28.385  22.222   8.756
99350W        W  214  28.180  25.536   9.156
99351W        W  215  27.705  25.321   9.273
99352W        W  216  26.983  24.219   9.490
99353W        W  217  28.717  24.933   9.710
99354W        W  218  26.488  22.266   8.382
99355W        W  219  27.052  24.752   9.364
99356W        W  220  26.487  22.530   7.344
99357W        W  221  27.242  23.199   9.704
99358W        W  222  28.082  22.071   9.435
99359W        W  223  25.518  23.988   9.557
99360W        W  224  27.144  23.690   7.695
99361W        W  225  26.492  22.027   7.471
99362W        W  226  27.204  23.017   8.426
99363W        W  227  28.040  22.210   9.966
99364W        W  228  26.782  24.215  10.214
99365W        W  229  27.595  23.817  10.464
99366W        W  230  28.083  23.942  10.457
99367W        W  231  27.425  22.162  10.971
99368W        W  232  26.547  22.750   9.185
99369W        W  233  26.052  22.443   8.739
99370W        W  234  25.953  25.357   8.491
99371W        W  235  27.402  24.828  10.479
99372W        W  236  26.773  24.346   8.150
99373W        W  237  28.114  23.843   9.151
99374W        W  238  28.095  23.403   9.432
99375W        W  239  27.429  23.973   9.458
99376W        W  240  27.920  24.481   7.675
99377W        W  241  27.654  22.529   8.631
99378W        W  242  28.989  22.814   8.080
99379W        W  243  25.828  25.332  10.306
99380W        W  244  26.037  24.536   9.764
99381W        W  245  25.491  25.472   7.976
99382W        W  246  27.438  22.720   9.612
99383W        W  247  26.870  24.723   7.765
99384W        W  248  28.642  25.100   7.805
99385W        W  249  27.636  23.596   7.664
99386W        W  250  26.786  22.700   8.361
99387W        W  251  27.419  22.705   7.373
99388W        W  252  27.738  24.348  10.520
99389W        W  253  28.210  22.274   8.000
99390W        W  254  25.564  22.086   7.558
99391W        W  255  26.989  24.558   9.881
99392W        W  256  26.757  24.372   9.054
99393W        W  257  26.584  24.383   7.412
99394W        W  258  25.951  24.976   8.127
99395W        W  259  26.283  23.561  10.609
99396W        W  260  26.980  22.173  10.696
99397W        W  261  27.515  22.307   9.933
99398W        W  262  26.985  22.137   8.491
99399W        W  263  27.748  21.995   7.936
99400W        W  264  25.771  22.078   9.469
99401W        W  265  25.747  22.871   8.811
99402W        W  266  28.584  22.021   9.238
99403W        W  267  26.142  22.639   8.253
99404W        W  268  28.468  22.328   9.677
99405W        W  269  28.798  23.532   7.452
99406W        W  270  26.193  22.358   9.243
99407W        W  271  27.434  22.872  10.122
99408W        W  272  25.558  22.601   7.492
99409W        W  273  26.303  24.002  10.262
99410W        W  274  27.572  23.480   9.396
99411W        W  275  27.387  25.401   7.613
99412W        W  276  25.726  23.805   7.426
99413W        W  277  26.482  24.503  10.529
99414W        W  278  25.969  23.589  10.169
99415W        W  279  26.846  23.846   9.836
99416W        W  280  28.504  22.025  10.133
99417W        W  281   0.026  23.647  10.165
99418W        W  282  28.984  23.829   7.944
99419W        W  283  27.811  24.232   8.138
99420W        W  284  28.422  25.410   7.426
99421W        W  285  27.616  23.487  10.883
99422W        W  286  26.145  24.622  10.893
99423W        W  287   0.151  22.498  10.794
99424W        W  288  28.644  23.256   9.470
99425W        W  289  27.065  25.428  10.817
99426W        W  290  26.987  21.977   7.629
99427W        W  291  28.487  24.508   7.648
99428W        W  292  26.345  22.746  10.482
99429W        W  293  26.903  24.735  10.356
99430W        W  294  28.814  22.480  10.030
99431W        W  295  28.183  25.425   7.906
99432W        W  296  28.311  24.202   9.463
99433W        W  297  26.527  22.429  10.079
99434W        W  298  27.144  23.517  10.689
99435W        W  299  26.462  24.792   8.144
99436W        W  300  28.254  24.052   8.363
99437W        W  301  26.108  22.752  10.023
99438W        W  302  27.429  24.810   8.549
99439W        W  303   0.105  23.415   8.499
99440W        W  304  27.350  22.067  10.367
99441W        W  305  28.286  24.734   9.475
99442W        W  306  28.535  25.166   9.263
99443W        W  307  27.684  24.990   7.601
99444W        W  308  25.719  24.709  10.629
99445W        W  309  26.449  22.916   9.672
99446W        W  310  26.384  22.074   8.865
99447W        W  311  27.790  23.003   9.310
99448W        W  312  27.034  24.207   7.689
99449W        W  313  28.778  24.011   9.282
99450W        W  314  26.178  24.961  10.482
99451W        W  315  28.506  25.515   8.320
99452W        W  316  26.739  22.435   8.829
99453W        W  317  26.336  24.059   8.940
99454W        W  318  26.770  25.559   9.935
99455W        W  319  28.594  25.488  10.777
99456W        W  320  27.901  23.848   9.623
99457W        W  321  25.900  23.303   7.282
99458W        W  322  28.861  25.120   8.305
99459W        W  323  28.561  22.641   7.821
99460W        W  324  26.826  22.017  10.227
99461W        W  325  28.617  24.923   8.747
99462W        W  326  28.609  23.295   8.649
99463W        W  327  26.869  23.046   8.848
99464W        W  328  27.093  23.302  10.191
99465W        W  329  28.149  24.447  10.247
99466W        W  330  26.736  22.899  10.150
99467W        W  331  26.771  25.472   8.819
99468W        W  332  26.205  25.503  10.619
99469W        W  333  26.274  25.141   7.331
99470W        W  334  28.564  24.450   8.513
99471W        W  335  26.341  23.215  10.189
99472W        W  336  28.869  23.054   7.638
99473W        W  337  27.294  24.296   8.157
99474W        W  338  27.948  23.594  10.092
99475W        W  339  27.755  23.202   9.799
99476W        W  340  26.335  23.687   9.825
99477W        W  341  28.515  25.442   9.729
99478W        W  342  28.277  22.167  10.685
99479W        W  343  26.028  22.303  10.301
99480W        W  344  26.396  23.402   9.402
99481W        W  345  26.855  22.970   7.406
99482W        W  346  25.695  24.843  10.134
99483W        W  347  27.056  23.603   9.438
99484W        W  348  26.969  22.479   7.512
99485W        W  349  26.088  23.218   8.600
99486W        W  350  25.816  25.481   9.804
99487W        W  351  28.504  23.683   7.855
99488W        W  352  28.718  22.373  10.519
99489W        W  353  28.132  24.728   8.591
99490W        W  354  25.754  23.547  10.638
99491W        W  355  28.655  22.115   7.793
99492W        W  356  28.233  24.524   8.108
99493W        W  357  27.378  23.295   8.028
99494W        W  358  28.290  22.323   7.491
99495W        W  359  28.256  22.892   9.516
99496W        W  360  25.828  23.460   8.958
99497W        W  361  26.542  24.516   8.592
99498W        W  362  28.095  23.102   8.597
99499W        W  363  27.037  22.539   9.263
99500W        W  364   0.012  24.494   9.861
99501W        W  365  28.939  22.392   9.345
99502W        W  366  25.686  25.229   8.907
99503W        W  367  26.043  24.458   8.332
99504W        W  368  26.061  22.287  10.840
99505W        W  369  27.118  24.922  10.892
99506W        W  370   0.001  23.855   8.762
99507W        W  371  28.215  24.061   7.670
99508W        W  372  27.757  25.524   9.768
99509W        W  373  28.186  24.338  10.765
99510W        W  374  27.242  21.835   8.059
99511W        W  375  27.599  23.002   8.813
99512W        W  376  25.718  24.435   9.356
99513W        W  377  26.854  22.322   8.003
99514W        W  378  26.766  23.924  10.654
99515W        W  379  27.702  22.938   8.312
99516W        W  380  27.962  24.465   9.765
99517W        W  381  26.123  25.054   9.958
99518W        W  382  26.672  25.106  10.683
99519W        W  383  26.600  22.776   7.813
99520W        W  384  28.089  22.786   7.979
99521W        W  385  27.887  24.887  10.332
99522W        W  386  26.753  23.547   9.012
99523W        W  387  26.399  25.385   9.641
99524W        W  388  28.928  25.311   7.408
99525W        W  389  25.849  24.027  10.505
99526W        W  390  27.826  24.279   9.292
99527W        W  391  26.762  23.969   8.644
99528W        W  392  26.779  25.030   9.735
99529W        W  393  27.291  22.157   8.927
99530W        W  394  25.530  24.609   8.212
99531W        W  395  27.294  23.194   7.538
99532W        W  396  25.961  23.841   8.641
99533W        W  397  27.064  22.480  10.159
99534W        W  398  28.739  22.209   7.288
99535W        W  399  28.935  23.884  10.625
99536W        W  400  27.552  25.237  10.782
99537W        W  401   0.017  24.328  10.350
99538W        W  402  28.708  24.967  10.877
99539W        W  403  26.417  25.655   9.216
99540W        W  404  28.986  24.192   8.356
99541W        W  405  27.847  23.426   8.957
99542W        W  406  27.504  22.083   8.426
99543W        W  407  26.584  25.057   8.566
99544W        W  408  26.947  22.775   9.715
99545W        W  409  26.783  22.075   9.219
99546W        W  410  25.830  25.245   7.672
99547W        W  411  27.575  24.307   8.597
99548W        W  412  26.576  25.143  10.189
99549W        W  413  25.810  23.889   8.139
99550W        W  414  25.678  22.472   9.145
99551W        W  415  27.331  24.403   9.078
99552W        W  416  25.802  22.400   7.912
99553W        W  417  28.293  23.264   9.886
99554W        W  418  28.148  22.810   7.474
99555W        W  419  28.733  24.497   9.421
99556W        W  420  27.401  24.957   9.060
99557W        W  421  26.788  25.249   8.129
99558W        W  422  27.882  21.987   7.424
99559W        W  423  25.978  25.340   9.335
99560W        W  424  27.782  22.974  10.727
99561W        W  425  25.964  22.773  10.953
99562W        W  426  25.743  22.993   8.291
99563W        W  427  26.879  23.262   7.853
99564W        W  428  28.049  23.430  10.579
99565W        W  429  26.581  23.908   9.379
99566W        W  430  28.015  22.065   8.423
99567W        W  431  27.291  25.453   8.972
99568W        W  432  28.267  24.904   9.980
99569W        W  433  28.101  24.997   9.063
99570W        W  434  28.039  24.218   8.803
99571W        W  435  27.348  22.315   7.822
99572W        W  436   0.002  22.021   8.491
99573W        W  437  26.457  23.523   7.173
99574W        W  438  28.942  22.923   8.584
99575W        W  439  27.554  24.099   7.710
99576W        W  440  28.545  24.137  10.376
99577W        W  441  28.158  24.921   7.775
99578W        W  442  26.850  22.670  10.607
99579W        W  443  26.727  23.330   9.824
99580W        W  444  28.730  24.762  10.241
99581W        W  445  27.801  22.533  10.314
99582W        W  446  25.589  23.235  10.250
99583W        W  447  27.454  23.642   9.905
99584W        W  448  25.943  24.399   8.848
99585W        W  449  25.907  23.578   9.444
99586W        W  450  28.246  24.022   9.962
99587W        W  451  28.085  25.273  10.657
99588W        W  452  27.959  23.018  10.232
99589W        W  453  28.228  25.282   8.672
99590W        W  454  27.258  24.983   9.939
99591W        W  455  26.707  25.174   9.244
99592W        W  456  28.499  24.463   9.877
99593W        W  457  27.425  24.495  10.883
99594W        W  458  26.223  24.430   9.273
99595W        W  459  28.525  24.043   8.827
99596W        W  460  28.109  25.202   9.560
99597W        W  461  26.267  24.927   9.486
99598W        W  462  27.254  23.021  10.650
99599W        W  463  27.597  25.251   8.256
99600W        W  464  26.933  24.413  10.766
99601W        W  465  26.964  24.790   8.313
99602W        W  466  26.341  23.023   7.277
99603W        W  467  25.653  25.684  14.348
99604W        W  468  26.043  24.517  13.895
99605W        W  469  28.582  24.129  11.573
99606W        W  470  28.900  25.236  13.654
99607W        W  471  26.809  25.187  11.226
99608W        W  472  26.778  23.414  12.145
99609W        W  473  26.363  23.176  12.536
99610W        W  474  27.296  24.000  11.741
99611W        W  475  27.089  25.150  14.022
99612W        W  476  25.691  22.749  14.032
99613W        W  477  26.228  21.965  13.859
99614W        W  478  28.162  22.536  12.664
99615W        W  479  27.872  23.138  11.252
99616W        W  480  28.261  22.756  14.302
99617W        W  481  25.870  22.299  13.677
99618W        W  482  25.797  25.193  14.457
99619W        W  483  27.079  24.573  11.271
99620W        W  484  25.658  23.136  13.074
99621W        W  485  26.771  23.182  14.207
99622W        W  486  28.810  23.085  12.666
99623W        W  487  28.833  24.001  13.611
99624W        W  488  27.272  23.343  12.591
99625W        W  489  27.832  24.714  12.986
99626W        W  490  26.231  24.015  13.168
99627W        W  491  25.488  23.612  12.974
99628W        W  492  26.700  23.604  13.872
99629W        W  493  28.830  23.352  14.244
99630W        W  494  26.464  24.747  12.612
99631W        W  495  27.613  24.542  13.718
99632W        W  496  26.957  23.123  12.964
99633W        W  497  27.042  23.929  12.610
99634W        W  498  27.851  24.821  14.486
99635W        W  499  27.296  23.930  14.505
99636W        W  500  27.223  23.768  13.971
99637W        W  501  25.599  23.063  14.425
99638W        W  502  28.328  24.664  14.228
99639W        W  503  26.096  22.147  12.088
99640W        W  504  26.547  24.441  13.176
99641W        W  505   0.034  24.391  12.592
99642W        W  506  28.539  22.740  12.997
99643W        W  507  28.701  22.753  10.907
99644W        W  508   0.312  23.501  13.491
99645W        W  509  27.096  25.158  13.081
99646W        W  510  28.709  24.624  11.771
99647W        W  511  25.996  25.575  11.632
99648W        W  512  26.333  25.454  12.024
99649W        W  513  26.272  22.200  13.380
99650W        W  514  28.843  23.311  13.677
99651W        W  515  28.135  23.623  12.156
99652W        W  516  28.078  23.583  11.082
99653W        W  517  27.415  24.521  13.226
99654W        W  518  27.336  22.810  12.476
99655W        W  519  27.766  24.963  13.469
99656W        W  520  28.635  23.759  11.931
99657W        W  521  27.760  22.420  11.844
99658W        W  522  26.230  25.032  11.730
99659W        W  523  25.738  22.511  12.212
99660W        W  524  28.301  23.080  12.665
99661W        W  525  25.944  24.851  12.698
99662W        W  526  27.157  24.991  11.624
99663W        W  527  28.449  23.237  10.896
99664W        W  528  25.763  24.925  13.224
99665W        W  529  26.484  24.590  13.656
99666W        W  530  26.582  23.847  12.350
99667W        W  531  26.691  22.384  13.132
99668W        W  532   0.101  21.993  12.638
99669W        W  533  26.284  24.085  10.781
99670W        W  534  25.889  22.804  11.469
99671W        W  535  26.080  24.811  12.209
99672W        W  536  26.904  24.444  12.502
99673W        W  537  28.469  25.118  13.980
99674W        W  538  27.560  22.879  11.575
99675W        W  539  28.662  25.359  12.434
99676W        W  540  28.417  23.191  13.978
99677W        W  541   0.093  24.648  12.144
99678W        W  542  27.786  24.049  13.746
99679W        W  543  25.686  23.489  12.136
99680W        W  544  26.591  24.067  13.526
99681W        W  545  27.818  23.319  11.770
99682W        W  546  27.699  23.791  11.961
99683W        W  547  26.080  23.165  13.413
99684W        W  548  26.051  23.114  14.153
99685W        W  549  25.949  22.096  12.576
99686W        W  550  27.651  22.520  12.875
99687W        W  551  27.286  22.482  14.070
99688W        W  552  27.870  22.536  11.339
99689W        W  553  28.942  25.162  14.156
99690W        W  554  27.772  21.990  14.020
99691W        W  555  28.720  24.379  14.423
99692W        W  556  28.370  22.607  13.823
99693W        W  557  28.179  22.575  12.114
99694W        W  558  28.472  23.719  14.468
99695W        W  559  26.231  25.247  12.503
99696W        W  560  27.071  22.804  11.490
99697W        W  561  26.511  22.251  14.176
99698W        W  562  28.535  22.904  11.881
99699W        W  563  28.834  23.298  11.693
99700W        W  564  26.642  25.509  14.393
99701W        W  565  26.550  22.051  11.565
99702W        W  566  28.905  22.512  12.679
99703W        W  567   0.159  24.810  11.124
99704W        W  568  25.843  23.987  12.820
99705W        W  569  27.851  22.445  10.821
99706W        W  570  28.998  24.851  12.867
99707W        W  571  28.925  22.044  13.440
99708W        W  572  27.575  23.345  14.041
99709W        W  573  27.351  24.512  11.723
99710W        W  574  27.784  24.017  14.653
99711W        W  575  27.756  22.065  12.661
99712W        W  576  26.090  22.928  12.892
99713W        W  577  26.065  24.036  13.674
99714W        W  578  27.732  25.153  12.486
99715W        W  579  28.751  22.836  13.495
99716W        W  580  27.591  25.251  13.884
99717W        W  581  28.761  24.029  11.087
99718W        W  582  27.234  23.686  12.181
99719W        W  583   0.006  21.974  13.949
99720W        W  584  27.312  24.140  13.582
99721W        W  585  27.471  22.998  12.939
99722W        W  586  28.330  23.351  11.770
99723W        W  587  28.465  23.047  11.380
99724W        W  588  28.362  25.052  11.726
99725W        W  589  28.305  24.391  12.592
99726W        W  590  28.132  23.799  11.641
99727W        W  591  27.549  23.814  12.610
99728W        W  592  28.557  23.525  12.751
99729W        W  593  25.863  22.655  13.262
99730W        W  594  28.573  23.698  13.957
99731W        W  595  28.958  25.342  13.118
99732W        W  596  26.938  24.954  12.538
99733W        W  597  28.088  25.325  13.719
99734W        W  598  27.865  22.674  13.513
99735W        W  599  27.215  25.473  13.619
99736W        W  600  28.671  22.417  11.949
99737W        W  601  28.654  23.742  13.215
99738W        W  602  25.643  22.976  13.582
99739W        W  603  28.576  22.754  12.367
99740W        W  604  28.815  22.867  14.050
99741W        W  605  27.787  24.566  12.480
99742W        W  606  27.068  25.201  12.111
99743W        W  607  26.154  22.363  11.343
99744W        W  608  27.321  22.132  13.079
99745W        W  609  26.129  25.578  11.137
99746W        W  610  26.858  23.747  11.750
99747W        W  611  27.370  24.254  14.081
99748W        W  612  27.304  22.498  12.069
99749W        W  613  28.518  22.236  12.415
99750W        W  614  28.185  25.433  12.684
99751W        W  615  27.601  25.194  13.031
99752W        W  616  27.009  24.140  13.113
99753W        W  617  28.749  24.865  13.327
99754W        W  618  26.565  22.361  12.022
99755W        W  619  26.962  24.655  12.975
99756W        W  620  26.474  22.620  10.971
99757W        W  621  27.283  23.203  13.361
99758W        W  622  28.086  22.152  13.084
99759W        W  623  25.720  24.002  13.308
99760W        W  624  27.200  23.679  11.210
99761W        W  625  26.598  22.144  11.054
99762W        W  626  27.238  23.157  12.092
99763W        W  627  28.059  22.219  13.640
99764W        W  628  26.891  24.150  13.916
99765W        W  629  27.677  23.818  14.193
99766W        W  630  28.152  23.949  14.119
99767W        W  631  27.471  22.107  14.461
99768W        W  632  26.585  22.783  12.814
99769W        W  633  26.210  22.613  12.427
99770W        W  634  25.832  25.250  11.995
99771W        W  635  27.466  24.788  14.145
99772W        W  636  26.854  24.294  11.644
99773W        W  637  28.068  23.727  12.731
99774W        W  638  28.171  23.355  13.083
99775W        W  639  27.505  23.982  13.131
99776W        W  640  27.862  24.431  11.188
99777W        W  641  27.741  22.477  12.362
99778W        W  642   0.004  22.788  11.722
99779W        W  643  25.791  25.349  13.946
99780W        W  644  26.029  24.470  13.363
99781W        W  645  25.470  25.418  11.631
99782W        W  646  27.390  22.642  13.310
99783W        W  647  26.686  24.786  11.542
99784W        W  648  28.751  25.009  11.400
99785W        W  649  27.683  23.725  11.396
99786W        W  650  26.879  22.782  11.983
99787W        W  651  27.463  22.713  11.065
99788W        W  652  27.849  24.371  14.215
99789W        W  653  28.241  22.285  11.687
99790W        W  654  25.727  22.085  11.231
99791W        W  655  26.959  24.494  13.491
99792W        W  656  26.595  24.131  12.779
99793W        W  657  26.638  24.725  11.028
99794W        W  658  25.708  24.769  11.834
99795W        W  659  26.372  23.513  14.280
99796W        W  660  26.973  22.185  14.380
99797W        W  661  27.535  22.271  13.647
99798W        W  662  27.006  22.060  12.183
99799W        W  663  27.812  22.044  11.500
99800W        W  664  25.813  22.171  13.133
99801W        W  665  25.793  22.991  12.472
99802W        W  666  28.643  22.068  12.936
99803W        W  667  26.143  22.611  11.871
99804W        W  668  28.502  22.362  13.372
99805W        W  669  28.893  23.506  11.031
99806W        W  670  26.225  22.416  12.910
99807W        W  671  27.459  22.891  13.758
99808W        W  672  25.512  22.552  11.246
99809W        W  673  26.411  23.992  14.041
99810W        W  674  27.659  23.474  13.000
99811W        W  675  27.314  25.315  11.245
99812W        W  676  25.782  23.895  11.015
99813W        W  677  26.542  24.490  14.148
99814W        W  678  26.045  23.538  13.862
99815W        W  679  27.009  23.749  13.494
99816W        W  680  28.519  22.054  13.809
99817W        W  681   0.089  23.690  13.935
99818W        W  682  28.950  23.783  11.503
99819W        W  683  27.795  24.198  11.652
99820W        W  684  28.333  25.238  11.142
99821W        W  685  27.632  23.478  14.607
99822W        W  686  26.140  24.541  14.445
99823W        W  687   0.197  22.431  14.358
99824W        W  688  28.671  23.219  13.164
99825W        W  689  27.071  25.292  14.520
99826W        W  690  27.038  22.020  11.323
99827W        W  691  28.738  24.517  11.256
99828W        W  692  26.428  22.755  14.129
99829W        W  693  26.998  24.651  13.985
99830W        W  694  28.871  22.433  13.759
99831W        W  695  28.164  25.539  11.531
99832W        W  696  28.341  24.119  13.059
99833W        W  697  26.565  22.470  13.698
99834W        W  698  27.177  23.448  14.375
99835W        W  699  26.437  24.563  11.924
99836W        W  700  28.259  24.161  11.976
99837W        W  701  26.106  22.752  13.732
99838W        W  702  27.373  24.778  12.239
99839W        W  703   0.045  23.483  12.453
99840W        W  704  27.254  21.978  13.994
99841W        W  705  28.339  24.656  13.062
99842W        W  706  28.559  25.120  12.888
99843W        W  707  27.524  24.841  11.253
99844W        W  708  25.723  24.733  14.232
99845W        W  709  26.385  22.768  13.296
99846W        W  710  26.463  22.144  12.485
99847W        W  711  27.992  22.870  13.047
99848W        W  712  26.888  24.084  11.162
99849W        W  713  28.810  23.966  12.782
99850W        W  714  26.169  24.988  14.112
99851W        W  715  28.533  25.521  11.929
99852W        W  716  26.847  22.502  12.439
99853W        W  717  26.292  23.702  12.741
99854W        W  718  26.770  25.489  13.371
99855W        W  719  28.610  25.494  14.352
99856W        W  720  27.961  23.789  13.281
99857W        W  721  25.928  23.292  11.043
99858W        W  722  28.832  25.088  11.987
99859W        W  723  28.671  22.553  11.413
99860W        W  724  26.752  21.944  13.769
99861W        W  725  28.671  24.818  12.451
99862W        W  726  28.566  23.354  12.259
99863W        W  727  26.871  23.020  12.460
99864W        W  728  27.109  23.290  13.832
99865W        W  729  28.127  24.438  13.796
99866W        W  730  26.919  22.808  13.873
99867W        W  731  26.720  25.419  12.430
99868W        W  732  26.157  25.498  14.271
99869W        W  733  26.293  25.112  11.029
99870W        W  734  28.674  24.348  12.214
99871W        W  735  26.441  23.158  13.795
99872W        W  736  28.966  23.053  11.261
99873W        W  737  26.940  24.121  12.113
99874W        W  738  27.967  23.570  13.798
99875W        W  739  27.800  23.205  13.440
99876W        W  740  26.359  23.604  13.476
99877W        W  741  28.488  25.347  13.367
99878W        W  742  28.196  22.222  14.173
99879W        W  743  25.985  22.334  14.181
99880W        W  744  26.438  23.277  13.041
99881W        W  745  26.882  22.993  11.022
99882W        W  746  25.661  24.881  13.740
99883W        W  747  27.161  23.607  13.022
99884W        W  748  26.994  22.486  11.096
99885W        W  749  26.228  23.503  12.170
99886W        W  750  25.799  25.456  13.434
99887W        W  751  28.508  23.599  11.348
99888W        W  752  28.676  22.389  14.225
99889W        W  753  28.280  24.680  12.123
99890W        W  754  25.827  23.563  14.345
99891W        W  755  28.666  22.022  11.476
99892W        W  756  28.235  24.510  11.570
99893W        W  757  27.331  23.478  11.692
99894W        W  758  28.284  22.292  11.178
99895W        W  759  28.272  22.983  13.469
99896W        W  760  25.850  23.476  12.628
99897W        W  761  26.341  24.309  12.361
99898W        W  762  28.134  23.091  12.169
99899W        W  763  27.087  22.619  12.895
99900W        W  764   0.077  24.459  13.511
99901W        W  765  28.991  22.492  13.192
99902W        W  766  25.702  25.274  12.483
99903W        W  767  25.973  24.330  11.970
99904W        W  768  26.064  22.231  14.797
99905W        W  769  27.103  24.793  14.516
99906W        W  770  28.998  23.957  12.291
99907W        W  771  28.239  24.065  11.199
99908W        W  772  27.711  25.508  13.435
99909W        W  773  28.242  24.249  14.538
99910W        W  774  27.343  21.915  11.727
99911W        W  775  27.820  22.948  12.564
99912W        W  776  25.662  24.471  12.940
99913W        W  777  26.976  22.310  11.731
99914W        W  778  26.820  23.815  14.325
99915W        W  779  27.678  22.889  12.067
99916W        W  780  27.937  24.337  13.335
99917W        W  781  26.136  24.972  13.594
99918W        W  782  26.673  24.994  14.302
99919W        W  783  26.609  22.564  11.478
99920W        W  784  28.067  22.861  11.686
99921W        W  785  27.945  24.884  13.964
99922W        W  786  26.769  23.489  12.666
99923W        W  787  26.302  25.334  13.280
99924W        W  788   0.009  25.328  11.074
99925W        W  789  25.922  24.100  14.198
99926W        W  790  27.871  24.201  12.845
99927W        W  791  26.439  24.046  11.908
99928W        W  792  26.709  24.939  13.340
99929W        W  793  27.302  22.300  12.560
99930W        W  794  25.476  24.317  11.616
99931W        W  795  27.342  23.187  11.203
99932W        W  796  25.983  23.914  12.339
99933W        W  797  27.037  22.315  13.531
99934W        W  798  28.763  22.210  11.001
99935W        W  799  28.944  23.893  14.369
99936W        W  800  27.557  25.247  14.396
99937W        W  801   0.051  24.252  14.003
99938W        W  802  28.695  24.907  14.520
99939W        W  803  26.384  25.621  12.857
99940W        W  804   0.016  24.191  11.843
99941W        W  805  27.687  23.381  12.286
99942W        W  806  27.536  22.033  12.182
99943W        W  807  26.564  25.005  12.165
99944W        W  808  26.900  22.800  13.361
99945W        W  809  26.887  22.063  12.766
99946W        W  810  25.820  25.183  11.332
99947W        W  811  27.438  24.200  12.228
99948W        W  812  26.596  25.100  13.808
99949W        W  813  25.965  23.824  11.837
99950W        W  814  25.760  22.549  12.744
99951W        W  815  27.367  24.316  12.741
99952W        W  816  25.732  22.323  11.714
99953W        W  817  28.377  23.472  13.534
99954W        W  818  28.191  22.791  11.025
99955W        W  819  28.801  24.401  13.057
99956W        W  820  27.390  24.832  12.750
99957W        W  821  26.718  25.257  11.738
99958W        W  822  27.912  21.959  11.003
99959W        W  823  25.929  25.326  12.936
99960W        W  824  27.779  22.978  14.442
99961W        W  825  25.992  22.736  14.493
99962W        W  826  25.791  23.004  11.954
99963W        W  827  26.900  23.306  11.452
99964W        W  828  28.048  23.434  14.289
99965W        W  829  26.673  23.741  13.104
99966W        W  830  28.055  22.076  12.196
99967W        W  831  27.262  25.356  12.612
99968W        W  832  28.282  24.872  13.548
99969W        W  833  28.171  24.899  12.627
99970W        W  834  27.933  24.066  12.354
99971W        W  835  27.398  22.376  11.458
99972W        W  836   0.003  22.011  12.118
99973W        W  837  26.724  23.514  10.986
99974W        W  838  28.957  23.053  12.155
99975W        W  839  27.414  24.167  11.277
99976W        W  840  28.548  24.227  13.980
99977W        W  841  28.299  24.721  11.093
99978W        W  842  26.877  22.699  14.381
99979W        W  843  26.776  23.300  13.426
99980W        W  844  28.751  24.701  13.868
99981W        W  845  27.808  22.533  14.016
99982W        W  846  25.588  23.293  13.965
99983W        W  847  27.514  23.637  13.544
99984W        W  848  25.832  24.384  12.457
99985W        W  849  25.973  23.569  13.128
99986W        W  850  28.297  23.977  13.603
99987W        W  851  28.073  25.292  14.263
99988W        W  852  27.951  23.017  13.914
99989W        W  853  28.216  25.208  12.210
99990W        W  854  27.246  24.931  13.564
99991W        W  855  26.613  25.164  12.882
99992W        W  856  28.535  24.414  13.486
99993W        W  857  27.463  24.430  14.555
99994W        W  858  26.160  24.403  12.846
99995W        W  859  28.462  23.916  12.410
99996W        W  860  28.099  25.142  13.116
99997W        W  861  26.258  24.857  13.096
99998W        W  862  27.281  22.974  14.230
99999W        W  863  27.561  25.179  11.938
    0W        W  864  26.963  24.313  14.409
    1W        W  865  26.933  24.674  12.008
    2W        W  866  26.377  23.112  10.884
    3W        W  867  25.674  25.756  17.978
    4W        W  868  25.900  24.511  17.445
    5W        W  869  28.657  24.157  15.323
    6W        W  870  28.919  25.275  17.277
    7W        W  871  26.603  25.320  14.862
    8W        W  872  26.887  23.440  15.730
    9W        W  873  26.274  23.089  16.070
   10W        W  874  27.342  23.991  15.465
   11W        W  875  27.177  25.174  17.734
   12W        W  876  25.634  22.758  17.617
   13W        W  877  26.251  21.914  17.583
   14W        W  878  28.073  22.514  16.260
   15W        W  879  28.016  23.156  14.912
   16W        W  880  28.304  22.711  17.962
   17W        W  881  25.700  22.414  17.260
   18W        W  882  25.794  25.279  18.099
   19W        W  883  27.024  24.519  14.971
   20W        W  884  25.770  23.093  16.678
   21W        W  885  26.755  23.269  17.831
   22W        W  886  28.787  23.003  16.334
   23W        W  887  28.801  24.028  17.266
   24W        W  888  27.220  23.271  16.153
   25W        W  889  27.822  24.802  16.638
   26W        W  890  26.249  24.018  16.776
   27W        W  891  25.541  23.530  16.516
   28W        W  892  26.700  23.673  17.477
   29W        W  893  28.814  23.438  17.924
   30W        W  894  26.449  24.758  16.248
   31W        W  895  27.616  24.597  17.399
   32W        W  896  26.868  23.047  16.537
   33W        W  897  27.091  23.919  16.359
   34W        W  898  27.991  24.916  18.152
   35W        W  899  27.335  23.955  18.135
   36W        W  900  27.204  23.845  17.567
   37W        W  901  25.490  23.032  18.006
   38W        W  902  28.362  24.666  17.881
   39W        W  903  26.080  22.107  15.811
   40W        W  904  26.524  24.467  16.828
   41W        W  905  28.966  24.418  16.220
   42W        W  906  28.529  22.551  16.505
   43W        W  907  28.746  22.754  14.584
   44W        W  908  28.878  23.520  17.191
   45W        W  909  27.044  25.181  16.743
   46W        W  910  28.810  24.646  15.387
   47W        W  911  25.933  25.536  15.288
   48W        W  912  26.316  25.467  15.690
   49W        W  913  26.205  22.308  17.225
   50W        W  914  28.726  23.031  17.257
   51W        W  915  28.180  23.555  15.857
   52W        W  916  28.087  23.639  14.791
   53W        W  917  27.399  24.626  16.892
   54W        W  918  27.250  22.750  16.111
   55W        W  919  27.780  24.992  17.137
   56W        W  920  28.623  23.703  15.591
   57W        W  921  27.714  22.427  15.407
   58W        W  922  26.175  25.066  15.401
   59W        W  923  25.790  22.541  15.810
   60W        W  924  28.268  23.010  16.342
   61W        W  925  25.882  24.820  16.327
   62W        W  926  27.009  25.047  14.995
   63W        W  927  28.428  23.197  14.552
   64W        W  928  25.722  24.891  16.837
   65W        W  929  26.421  24.540  17.342
   66W        W  930  26.775  23.968  15.934
   67W        W  931  26.741  22.382  16.960
   68W        W  932   0.148  21.936  16.302
   69W        W  933  26.473  24.136  14.541
   70W        W  934  26.142  22.772  14.980
   71W        W  935  26.072  24.794  15.847
   72W        W  936  26.806  24.543  15.926
   73W        W  937  28.490  25.125  17.630
   74W        W  938  27.719  22.720  14.951
   75W        W  939  28.665  25.409  16.107
   76W        W  940  28.449  23.210  17.649
   77W        W  941   0.119  24.655  15.792
   78W        W  942  27.777  24.083  17.355
   79W        W  943  25.731  23.557  15.690
   80W        W  944  26.617  24.074  17.146
   81W        W  945  27.841  23.289  15.407
   82W        W  946  27.762  23.839  15.723
   83W        W  947  26.035  23.195  17.117
   84W        W  948  26.077  23.174  17.793
   85W        W  949  26.033  22.072  16.323
   86W        W  950  27.596  22.503  16.454
   87W        W  951  27.434  22.524  17.859
   88W        W  952  27.970  22.253  14.998
   89W        W  953  28.963  25.230  17.783
   90W        W  954  27.810  22.068  17.776
   91W        W  955  28.768  24.442  18.120
   92W        W  956  28.382  22.694  17.453
   93W        W  957  28.101  22.551  15.744
   94W        W  958  28.424  23.719  18.106
   95W        W  959  26.194  25.216  16.138
   96W        W  960  27.230  22.734  15.164
   97W        W  961  26.422  22.294  17.914
   98W        W  962  28.557  22.822  15.506
   99W        W  963  28.870  23.264  15.363
  100W        W  964  26.670  25.588  18.169
  101W        W  965  26.643  21.872  15.185
  102W        W  966  28.846  22.329  16.153
  103W        W  967   0.106  24.796  14.823
  104W        W  968  25.868  23.963  16.410
  105W        W  969  27.873  22.456  14.524
  106W        W  970  28.960  24.878  16.486
  107W        W  971  28.867  22.093  17.023
  108W        W  972  27.577  23.314  17.652
  109W        W  973  27.364  24.511  15.371
  110W        W  974  27.849  23.978  18.220
  111W        W  975  27.727  22.030  16.229
  112W        W  976  26.233  22.872  16.543
  113W        W  977  26.095  24.059  17.259
  114W        W  978  27.764  25.187  16.259
  115W        W  979  28.857  22.771  16.826
  116W        W  980  27.636  25.305  17.534
  117W        W  981  28.734  24.012  14.815
  118W        W  982  27.270  23.727  15.911
  119W        W  983   0.051  22.100  17.497
  120W        W  984  27.299  24.216  17.216
  121W        W  985  27.380  22.988  16.558
  122W        W  986  28.350  23.279  15.431
  123W        W  987  28.552  23.040  15.024
  124W        W  988  28.410  24.971  15.525
  125W        W  989  28.426  24.421  16.285
  126W        W  990  28.110  23.720  15.351
  127W        W  991  27.622  23.846  16.278
  128W        W  992  28.549  23.503  16.311
  129W        W  993  25.987  22.691  16.950
  130W        W  994  28.540  23.708  17.583
  131W        W  995  28.972  25.338  16.753
  132W        W  996  26.912  24.989  16.190
  133W        W  997  28.118  25.354  17.342
  134W        W  998  27.943  22.698  17.160
  135W        W  999  27.209  25.523  17.327
  136W        W 1000  28.760  22.377  15.644
  137W        W 1001  28.554  23.754  16.851
  138W        W 1002  25.567  22.940  17.122
  139W        W 1003  28.509  22.701  16.006
  140W        W 1004  28.790  22.862  17.778
  141W        W 1005  27.733  24.626  16.157
  142W        W 1006  27.025  25.232  15.755
  143W        W 1007  26.483  22.372  15.091
  144W        W 1008  27.363  22.061  16.650
  145W        W 1009  26.115  25.510  14.792
  146W        W 1010  26.908  23.760  15.311
  147W        W 1011  27.440  24.271  17.742
  148W        W 1012  27.249  22.488  15.645
  149W        W 1013  28.377  22.177  15.993
  150W        W 1014  28.178  25.506  16.375
  151W        W 1015  27.548  25.235  16.751
  152W        W 1016  26.993  24.210  16.797
  153W        W 1017  28.752  24.891  16.980
  154W        W 1018  26.510  22.279  15.585
  155W        W 1019  26.922  24.695  16.614
  156W        W 1020  26.448  22.536  14.607
  157W        W 1021  27.361  23.186  17.031
  158W        W 1022  28.161  22.018  16.866
  159W        W 1023  25.725  23.987  16.901
  160W        W 1024  27.200  23.588  14.897
  161W        W 1025  26.574  22.048  14.682
  162W        W 1026  27.176  23.014  15.663
  163W        W 1027  28.106  22.233  17.350
  164W        W 1028  26.889  24.243  17.543
  165W        W 1029  27.659  23.794  17.774
  166W        W 1030  28.123  23.983  17.761
  167W        W 1031  27.422  22.163  18.271
  168W        W 1032  26.645  22.599  16.392
  169W        W 1033  26.203  22.544  16.125
  170W        W 1034  25.836  25.308  15.744
  171W        W 1035  27.555  24.813  17.875
  172W        W 1036  26.556  24.312  15.088
  173W        W 1037  28.143  23.824  16.422
  174W        W 1038  28.190  23.381  16.689
  175W        W 1039  27.442  23.930  16.773
  176W        W 1040  27.869  24.462  14.887
  177W        W 1041  27.653  22.439  15.941
  178W        W 1042   0.051  22.771  15.338
  179W        W 1043  25.881  25.311  17.582
  180W        W 1044  26.028  24.469  16.953
  181W        W 1045  25.443  25.409  15.349
  182W        W 1046  27.476  22.643  16.948
  183W        W 1047  26.539  24.843  15.095
  184W        W 1048  28.680  25.022  15.056
  185W        W 1049  27.662  23.698  15.096
  186W        W 1050  26.786  22.720  15.454
  187W        W 1051  27.368  22.607  14.580
  188W        W 1052  27.899  24.430  17.945
  189W        W 1053  28.322  22.321  15.359
  190W        W 1054  25.598  22.344  15.022
  191W        W 1055  26.926  24.589  17.150
  192W        W 1056  26.692  24.274  16.371
  193W        W 1057  26.624  24.621  14.649
  194W        W 1058  25.653  24.933  15.448
  195W        W 1059  26.372  23.608  17.896
  196W        W 1060  26.947  22.056  18.101
  197W        W 1061  27.595  22.308  17.350
  198W        W 1062  26.943  22.026  15.774
  199W        W 1063  27.659  21.923  15.288
  200W        W 1064  25.878  22.159  16.871
  201W        W 1065  25.798  22.922  16.200
  202W        W 1066  28.651  22.028  16.559
  203W        W 1067  26.287  22.747  15.658
  204W        W 1068  28.468  22.420  17.011
  205W        W 1069  28.884  23.497  14.734
  206W        W 1070  26.313  22.336  16.676
  207W        W 1071  27.490  22.845  17.434
  208W        W 1072  25.611  22.836  14.883
  209W        W 1073  26.417  24.084  17.654
  210W        W 1074  27.659  23.438  16.642
  211W        W 1075  27.417  25.354  14.902
  212W        W 1076  25.798  23.700  14.863
  213W        W 1077  26.662  24.639  17.795
  214W        W 1078  26.054  23.597  17.481
  215W        W 1079  27.041  23.764  17.084
  216W        W 1080  28.548  22.001  17.435
  217W        W 1081   0.080  23.746  17.603
  218W        W 1082  28.961  23.773  15.201
  219W        W 1083  27.807  24.160  15.300
  220W        W 1084  28.345  25.269  14.723
  221W        W 1085  27.638  23.490  18.191
  222W        W 1086  26.177  24.497  17.873
  223W        W 1087   0.097  22.539  18.056
  224W        W 1088  28.706  23.264  16.772
  225W        W 1089  27.125  25.362  18.222
  226W        W 1090  27.057  21.953  14.858
  227W        W 1091  28.690  24.505  14.914
  228W        W 1092  26.472  22.832  17.832
  229W        W 1093  27.140  24.680  17.612
  230W        W 1094  28.871  22.547  17.319
  231W        W 1095  28.135  25.510  15.146
  232W        W 1096  28.304  24.189  16.749
  233W        W 1097  26.594  22.500  17.458
  234W        W 1098  27.192  23.500  17.952
  235W        W 1099  26.449  24.573  15.536
  236W        W 1100  28.227  24.139  15.605
  237W        W 1101  26.122  22.776  17.448
  238W        W 1102  27.278  24.776  15.870
  239W        W 1103   0.149  23.295  16.093
  240W        W 1104  27.296  22.061  17.710
  241W        W 1105  28.324  24.712  16.730
  242W        W 1106  28.533  25.164  16.555
  243W        W 1107  27.469  24.817  14.901
  244W        W 1108  25.775  24.827  17.839
  245W        W 1109  26.477  22.852  17.039
  246W        W 1110  26.507  22.127  16.108
  247W        W 1111  27.876  22.908  16.677
  248W        W 1112  26.898  24.010  14.832
  249W        W 1113  28.718  24.010  16.443
  250W        W 1114  26.274  24.982  17.703
  251W        W 1115  28.526  25.493  15.566
  252W        W 1116  26.822  22.503  15.929
  253W        W 1117  26.366  23.872  16.290
  254W        W 1118  26.764  25.488  17.069
  255W        W 1119  28.614  25.500  18.031
  256W        W 1120  27.945  23.793  16.918
  257W        W 1121  25.963  23.217  14.736
  258W        W 1122  28.888  25.098  15.629
  259W        W 1123  28.695  22.527  15.058
  260W        W 1124  26.778  22.035  17.606
  261W        W 1125  28.664  24.855  16.040
  262W        W 1126  28.639  23.239  15.866
  263W        W 1127  26.784  23.008  16.022
  264W        W 1128  27.112  23.359  17.445
  265W        W 1129  28.130  24.443  17.487
  266W        W 1130  26.874  22.915  17.481
  267W        W 1131  26.671  25.439  16.084
  268W        W 1132  26.241  25.487  17.924
  269W        W 1133  26.260  25.024  14.627
  270W        W 1134  28.663  24.374  15.802
  271W        W 1135  26.446  23.214  17.427
  272W        W 1136   0.055  23.043  14.893
  273W        W 1137  26.898  24.267  15.488
  274W        W 1138  27.996  23.597  17.438
  275W        W 1139  27.872  23.240  17.080
  276W        W 1140  26.379  23.611  17.076
  277W        W 1141  28.509  25.444  17.007
  278W        W 1142  28.264  22.183  17.981
  279W        W 1143  25.930  22.321  17.711
  280W        W 1144  26.446  23.339  16.618
  281W        W 1145  27.104  23.043  14.718
  282W        W 1146  25.607  24.927  17.337
  283W        W 1147  27.137  23.481  16.646
  284W        W 1148  26.935  22.450  14.823
  285W        W 1149  26.393  23.576  15.866
  286W        W 1150  25.769  25.393  17.078
  287W        W 1151  28.512  23.590  15.061
  288W        W 1152  28.698  22.362  17.786
  289W        W 1153  28.202  24.610  15.843
  290W        W 1154  25.751  23.568  17.929
  291W        W 1155  28.617  22.007  15.070
  292W        W 1156  28.293  24.535  15.262
  293W        W 1157  27.357  23.472  15.463
  294W        W 1158  28.370  22.230  14.654
  295W        W 1159  28.344  22.921  16.910
  296W        W 1160  25.961  23.490  16.195
  297W        W 1161  26.339  24.318  15.977
  298W        W 1162  28.131  23.046  15.830
  299W        W 1163  27.108  22.540  16.584
  300W        W 1164   0.065  24.469  17.142
  301W        W 1165   0.070  22.362  16.614
  302W        W 1166  25.613  25.240  16.189
  303W        W 1167  25.972  24.354  15.580
  304W        W 1168  25.984  22.349  18.381
  305W        W 1169  27.120  24.855  18.142
  306W        W 1170  28.945  23.784  16.035
  307W        W 1171  28.246  24.081  15.016
  308W        W 1172  27.716  25.588  17.094
  309W        W 1173  28.312  24.223  18.186
  310W        W 1174  27.157  21.779  15.347
  311W        W 1175  27.747  22.920  16.170
  312W        W 1176  25.668  24.416  16.583
  313W        W 1177  26.968  22.258  15.292
  314W        W 1178  26.840  23.889  17.924
  315W        W 1179  27.666  22.871  15.653
  316W        W 1180  27.950  24.474  17.017
  317W        W 1181  26.113  24.962  17.205
  318W        W 1182  26.704  25.126  17.975
  319W        W 1183  26.673  22.864  14.960
  320W        W 1184  28.081  22.824  15.310
  321W        W 1185  27.984  24.920  17.623
  322W        W 1186  26.769  23.514  16.241
  323W        W 1187  26.284  25.373  16.919
  324W        W 1188  28.955  25.320  14.713
  325W        W 1189  25.884  24.059  17.738
  326W        W 1190  27.821  24.256  16.562
  327W        W 1191  26.421  24.035  15.550
  328W        W 1192  26.621  24.969  16.987
  329W        W 1193  27.227  22.236  16.160
  330W        W 1194  25.535  24.155  15.120
  331W        W 1195  27.496  23.183  15.035
  332W        W 1196  26.008  23.927  15.895
  333W        W 1197  27.106  22.457  17.389
  334W        W 1198  28.875  22.208  14.677
  335W        W 1199  28.897  23.949  18.027
  336W        W 1200  27.596  25.295  18.046
  337W        W 1201   0.058  24.278  17.643
  338W        W 1202  28.693  24.965  18.117
  339W        W 1203  26.333  25.634  16.464
  340W        W 1204   0.100  24.122  15.642
  341W        W 1205  27.666  23.355  15.892
  342W        W 1206  27.455  21.950  15.781
  343W        W 1207  26.552  25.005  15.805
  344W        W 1208  26.999  22.827  16.996
  345W        W 1209  26.851  22.100  16.493
  346W        W 1210  25.719  25.187  14.971
  347W        W 1211  27.238  24.245  15.922
  348W        W 1212  26.758  25.042  17.465
  349W        W 1213  25.944  23.884  15.351
  350W        W 1214  25.847  22.514  16.494
  351W        W 1215  27.329  24.374  16.428
  352W        W 1216  26.009  22.432  15.347
  353W        W 1217  28.370  23.393  17.171
  354W        W 1218  28.236  22.692  14.823
  355W        W 1219  28.765  24.445  16.703
  356W        W 1220  27.360  24.892  16.413
  357W        W 1221  26.681  25.247  15.375
  358W        W 1222  27.933  21.946  14.594
  359W        W 1223  25.933  25.293  16.572
  360W        W 1224  27.738  22.968  18.023
  361W        W 1225  25.966  22.739  18.042
  362W        W 1226  25.835  23.051  15.710
  363W        W 1227  26.985  23.211  15.209
  364W        W 1228  28.053  23.417  17.916
  365W        W 1229  26.704  23.788  16.691
  366W        W 1230  27.969  22.049  15.693
  367W        W 1231  27.246  25.398  16.271
  368W        W 1232  28.287  24.889  17.209
  369W        W 1233  28.189  24.897  16.276
  370W        W 1234  27.988  24.177  16.070
  371W        W 1235  27.435  22.276  14.977
  372W        W 1236   0.031  21.944  15.786
  373W        W 1237  26.750  23.431  14.682
  374W        W 1238  28.972  22.843  15.845
  375W        W 1239  27.389  24.139  14.976
  376W        W 1240  28.559  24.226  17.684
  377W        W 1241  28.276  24.747  14.763
  378W        W 1242  26.908  22.536  17.881
  379W        W 1243  26.797  23.304  17.025
  380W        W 1244  28.752  24.705  17.509
  381W        W 1245  27.905  22.575  17.668
  382W        W 1246  25.659  23.260  17.510
  383W        W 1247  27.530  23.639  17.217
  384W        W 1248  25.816  24.362  16.075
  385W        W 1249  26.003  23.567  16.725
  386W        W 1250  28.281  23.996  17.248
  387W        W 1251  28.112  25.351  17.883
  388W        W 1252  27.991  23.052  17.539
  389W        W 1253  28.203  25.264  15.913
  390W        W 1254  27.255  25.015  17.218
  391W        W 1255  26.573  25.183  16.522
  392W        W 1256  28.518  24.438  17.148
  393W        W 1257  27.480  24.451  18.244
  394W        W 1258  26.167  24.393  16.453
  395W        W 1259  28.456  23.953  16.020
  396W        W 1260  28.076  25.235  16.802
  397W        W 1261  26.217  24.871  16.700
  398W        W 1262  27.215  22.990  17.866
  399W        W 1263  27.362  25.057  15.380
  400W        W 1264  27.022  24.366  18.038
  401W        W 1265  26.920  24.791  15.463
  402W        W 1266  26.412  23.049  14.551
  403W        W 1267  25.569  25.698  21.592
  404W        W 1268  26.092  24.537  21.240
  405W        W 1269  28.705  24.052  18.985
  406W        W 1270  28.636  25.213  20.872
  407W        W 1271  26.648  25.233  18.529
  408W        W 1272  26.920  23.303  19.238
  409W        W 1273  26.348  22.994  19.686
  410W        W 1274  27.417  23.780  19.040
  411W        W 1275  27.126  25.150  21.350
  412W        W 1276  25.665  22.657  21.264
  413W        W 1277  26.326  21.874  21.084
  414W        W 1278  28.057  22.339  19.987
  415W        W 1279  27.740  23.177  18.593
  416W        W 1280  28.259  22.715  21.606
  417W        W 1281  25.702  22.287  20.864
  418W        W 1282  25.757  25.221  21.778
  419W        W 1283  27.078  24.544  18.568
  420W        W 1284  25.680  23.038  20.306
  421W        W 1285  26.582  23.136  21.571
  422W        W 1286  28.749  22.974  20.003
  423W        W 1287  28.779  24.025  20.861
  424W        W 1288  27.226  23.353  19.934
  425W        W 1289  27.763  24.642  20.199
  426W        W 1290  26.130  24.098  20.457
  427W        W 1291  25.534  23.532  20.227
  428W        W 1292  26.679  23.524  21.189
  429W        W 1293  28.709  23.280  21.488
  430W        W 1294  26.406  25.033  19.942
  431W        W 1295  27.630  24.523  21.015
  432W        W 1296  26.893  23.033  20.250
  433W        W 1297  27.038  23.900  20.017
  434W        W 1298  27.874  24.826  21.746
  435W        W 1299  27.257  23.898  21.756
  436W        W 1300  27.154  23.755  21.243
  437W        W 1301  25.557  23.001  21.716
  438W        W 1302  28.331  24.610  21.539
  439W        W 1303  26.012  22.192  19.255
  440W        W 1304  26.688  24.658  20.490
  441W        W 1305   0.048  24.336  19.836
  442W        W 1306  28.410  22.672  20.258
  443W        W 1307  28.685  22.729  18.315
  444W        W 1308   0.123  23.399  20.612
  445W        W 1309  27.211  25.278  20.493
  446W        W 1310  28.729  24.556  19.156
  447W        W 1311  26.023  25.621  18.939
  448W        W 1312  26.377  25.475  19.323
  449W        W 1313  26.162  22.147  20.659
  450W        W 1314  28.809  23.259  20.982
  451W        W 1315  28.151  23.512  19.561
  452W        W 1316  28.144  23.460  18.455
  453W        W 1317  27.472  24.426  20.545
  454W        W 1318  27.298  22.723  19.757
  455W        W 1319  27.803  24.860  20.666
  456W        W 1320  28.628  23.626  19.324
  457W        W 1321  27.717  22.227  19.139
  458W        W 1322  26.283  25.169  18.917
  459W        W 1323  25.651  22.533  19.356
  460W        W 1324  28.204  23.082  19.987
  461W        W 1325  25.920  24.923  20.069
  462W        W 1326  27.111  25.070  18.656
  463W        W 1327  28.453  23.165  18.166
  464W        W 1328  25.747  24.981  20.574
  465W        W 1329  26.551  24.641  20.999
  466W        W 1330  27.152  23.691  19.529
  467W        W 1331  26.618  22.301  20.419
  468W        W 1332  28.914  21.890  20.014
  469W        W 1333  26.536  24.242  18.145
  470W        W 1334  26.041  22.828  18.605
  471W        W 1335  26.053  24.939  19.565
  472W        W 1336  27.117  24.431  19.614
  473W        W 1337  28.443  25.057  21.314
  474W        W 1338  27.549  22.800  18.865
  475W        W 1339  28.710  25.181  19.657
  476W        W 1340  28.455  22.956  21.201
  477W        W 1341   0.176  24.661  19.445
  478W        W 1342  27.793  24.054  20.980
  479W        W 1343  25.411  23.517  19.306
  480W        W 1344  26.543  24.199  20.738
  481W        W 1345  27.776  23.211  19.126
  482W        W 1346  27.666  23.605  19.444
  483W        W 1347  26.061  23.107  20.679
  484W        W 1348  26.057  23.155  21.639
  485W        W 1349  25.959  22.042  19.771
  486W        W 1350  27.564  22.430  20.165
  487W        W 1351  27.361  22.495  21.528
  488W        W 1352  27.830  22.404  18.664
  489W        W 1353  28.940  25.184  21.332
  490W        W 1354  27.765  22.123  21.433
  491W        W 1355  28.822  24.385  21.696
  492W        W 1356  28.236  22.502  21.135
  493W        W 1357  28.072  22.482  19.437
  494W        W 1358  28.443  23.672  21.700
  495W        W 1359  26.122  25.430  19.769
  496W        W 1360  27.074  22.839  18.706
  497W        W 1361  26.500  22.299  21.443
  498W        W 1362  28.468  22.783  19.232
  499W        W 1363  28.802  23.162  19.119
  500W        W 1364  26.540  25.424  21.657
  501W        W 1365  26.536  21.976  18.923
  502W        W 1366  28.840  22.387  19.860
  503W        W 1367   0.099  24.779  18.383
  504W        W 1368  25.787  23.978  20.096
  505W        W 1369  27.862  22.456  18.157
  506W        W 1370  28.934  24.889  20.023
  507W        W 1371  28.809  22.162  20.644
  508W        W 1372  27.477  23.329  21.262
  509W        W 1373  27.525  24.591  18.815
  510W        W 1374  27.773  24.000  21.891
  511W        W 1375  27.684  21.959  19.962
  512W        W 1376  26.106  22.831  20.111
  513W        W 1377  25.933  24.134  20.943
  514W        W 1378  27.635  25.273  19.724
  515W        W 1379   0.095  22.888  20.748
  516W        W 1380  27.640  25.267  21.216
  517W        W 1381  28.668  23.970  18.483
  518W        W 1382  27.374  23.186  19.471
  519W        W 1383  28.971  22.128  21.147
  520W        W 1384  27.301  24.094  20.883
  521W        W 1385  27.427  22.956  20.206
  522W        W 1386  28.294  23.255  19.127
  523W        W 1387  28.478  23.064  18.689
  524W        W 1388  28.401  24.948  19.314
  525W        W 1389  28.219  24.338  19.947
  526W        W 1390  28.009  23.671  19.059
  527W        W 1391  27.528  23.781  19.906
  528W        W 1392  28.530  23.460  20.098
  529W        W 1393  25.894  22.593  20.500
  530W        W 1394  28.584  23.679  21.193
  531W        W 1395  28.937  25.278  20.445
  532W        W 1396  26.877  24.839  19.847
  533W        W 1397  28.113  25.289  20.983
  534W        W 1398  27.840  22.623  20.836
  535W        W 1399  27.236  25.465  20.962
  536W        W 1400  28.719  22.349  19.299
  537W        W 1401  28.649  23.625  20.577
  538W        W 1402  25.607  22.883  20.812
  539W        W 1403  28.419  22.677  19.742
  540W        W 1404  27.741  24.433  19.744
  541W        W 1405  27.131  25.149  19.460
  542W        W 1406  26.309  22.426  18.816
  543W        W 1407  27.389  21.975  20.381
  544W        W 1408  26.231  25.550  18.454
  545W        W 1409  26.926  23.799  18.913
  546W        W 1410  27.346  24.264  21.367
  547W        W 1411  27.242  22.341  19.315
  548W        W 1412  28.424  22.156  19.675
  549W        W 1413  27.956  25.522  20.081
  550W        W 1414  27.625  25.139  20.238
  551W        W 1415  26.993  24.211  20.472
  552W        W 1416  28.718  24.827  20.530
  553W        W 1417  26.494  22.322  19.317
  554W        W 1418  27.169  24.785  20.312
  555W        W 1419  26.419  22.625  18.305
  556W        W 1420  27.160  23.122  20.703
  557W        W 1421  27.969  22.011  20.406
  558W        W 1422  25.654  23.895  20.593
  559W        W 1423  27.234  23.633  18.529
  560W        W 1424  26.467  22.113  18.424
  561W        W 1425  27.133  22.822  19.215
  562W        W 1426  27.934  22.110  20.934
  563W        W 1427  26.869  24.187  21.149
  564W        W 1428  27.633  23.825  21.409
  565W        W 1429  28.128  23.906  21.350
  566W        W 1430  27.439  22.146  21.887
  567W        W 1431  26.576  22.652  20.026
  568W        W 1432  26.164  22.506  19.680
  569W        W 1433  25.845  25.353  19.338
  570W        W 1434  27.482  24.785  21.419
  571W        W 1435  26.711  24.286  18.823
  572W        W 1436  28.025  23.644  20.059
  573W        W 1437  28.094  23.296  20.441
  574W        W 1438  27.402  23.917  20.400
  575W        W 1439  27.925  24.416  18.504
  576W        W 1440  27.633  22.345  19.651
  577W        W 1441   0.125  22.735  19.086
  578W        W 1442  25.788  25.337  21.253
  579W        W 1443  26.076  24.574  20.703
  580W        W 1444  25.497  25.409  18.930
  581W        W 1445  27.382  22.643  20.611
  582W        W 1446  26.647  24.802  18.829
  583W        W 1447  28.741  24.992  18.709
  584W        W 1448  27.726  23.702  18.645
  585W        W 1449  26.624  22.825  19.261
  586W        W 1450  27.438  22.676  18.366
  587W        W 1451  27.858  24.349  21.484
  588W        W 1452  28.262  22.327  18.994
  589W        W 1453  25.498  22.222  18.496
  590W        W 1454  27.062  24.560  20.840
  591W        W 1455  26.770  24.369  20.048
  592W        W 1456  26.654  24.726  18.314
  593W        W 1457  25.815  24.936  19.054
  594W        W 1458  26.299  23.596  21.524
  595W        W 1459  26.949  22.223  21.680
  596W        W 1460  27.472  22.314  21.025
  597W        W 1461  26.891  21.978  19.459
  598W        W 1462  27.591  21.942  18.718
  599W        W 1463  25.726  22.115  20.382
  600W        W 1464  25.795  22.879  19.707
  601W        W 1465  28.501  22.145  20.200
  602W        W 1466  26.111  22.717  19.200
  603W        W 1467  28.302  22.346  20.644
  604W        W 1468  28.805  23.437  18.444
  605W        W 1469  26.172  22.317  20.164
  606W        W 1470  27.405  22.833  21.097
  607W        W 1471  25.550  22.736  18.447
  608W        W 1472  26.381  23.993  21.197
  609W        W 1473  27.582  23.438  20.310
  610W        W 1474  27.511  25.422  18.617
  611W        W 1475  25.685  23.650  18.478
  612W        W 1476  26.550  24.412  21.479
  613W        W 1477  26.007  23.622  21.077
  614W        W 1478  26.893  23.799  20.790
  615W        W 1479  28.452  22.055  21.063
  616W        W 1480   0.098  23.693  21.063
  617W        W 1481  28.994  23.616  18.931
  618W        W 1482  27.805  24.154  18.998
  619W        W 1483  28.349  25.239  18.386
  620W        W 1484  27.558  23.471  21.773
  621W        W 1485  26.174  24.592  21.764
  622W        W 1486   0.112  22.487  21.690
  623W        W 1487  28.677  23.103  20.495
  624W        W 1488  27.036  25.351  21.818
  625W        W 1489  26.969  22.014  18.631
  626W        W 1490  28.791  24.444  18.641
  627W        W 1491  26.160  22.692  21.476
  628W        W 1492  26.972  24.670  21.334
  629W        W 1493  28.705  22.590  20.909
  630W        W 1494  28.150  25.511  18.786
  631W        W 1495  28.314  23.998  20.332
  632W        W 1496  26.548  22.323  20.930
  633W        W 1497  27.038  23.425  21.616
  634W        W 1498  26.258  24.681  19.172
  635W        W 1499  28.292  24.018  19.286
  636W        W 1500  26.106  22.640  20.965
  637W        W 1501  27.507  24.629  19.333
  638W        W 1502   0.033  23.345  19.560
  639W        W 1503  27.287  21.997  21.377
  640W        W 1504  28.259  24.716  20.318
  641W        W 1505  28.514  25.180  20.141
  642W        W 1506  27.549  24.933  18.421
  643W        W 1507  25.722  24.727  21.571
  644W        W 1508  26.396  22.742  20.537
  645W        W 1509  26.526  22.122  19.828
  646W        W 1510  27.909  22.798  20.355
  647W        W 1511  26.928  24.036  18.431
  648W        W 1512  28.803  23.951  20.167
  649W        W 1513  26.153  25.043  21.483
  650W        W 1514  28.550  25.460  19.213
  651W        W 1515  26.856  22.503  19.620
  652W        W 1516  26.303  24.094  19.950
  653W        W 1517  26.814  25.564  20.698
  654W        W 1518  28.643  25.539  21.518
  655W        W 1519  27.883  23.779  20.550
  656W        W 1520  25.873  23.201  18.280
  657W        W 1521  28.910  25.041  19.219
  658W        W 1522  28.692  22.567  18.811
  659W        W 1523  26.814  21.936  21.217
  660W        W 1524  28.472  24.756  19.807
  661W        W 1525  28.538  23.185  19.589
  662W        W 1526  26.882  23.025  19.699
  663W        W 1527  26.983  23.103  21.208
  664W        W 1528  28.166  24.401  21.074
  665W        W 1529  26.581  22.775  21.165
  666W        W 1530  26.736  25.399  19.743
  667W        W 1531  26.063  25.584  21.606
  668W        W 1532  26.248  25.062  18.234
  669W        W 1533  28.615  24.293  19.585
  670W        W 1534  26.252  23.173  21.160
  671W        W 1535  28.986  22.984  18.665
  672W        W 1536  27.178  24.267  19.071
  673W        W 1537  27.873  23.557  21.018
  674W        W 1538  27.673  23.115  20.710
  675W        W 1539  26.401  23.657  20.756
  676W        W 1540  28.485  25.575  20.537
  677W        W 1541  28.256  22.179  21.571
  678W        W 1542  25.989  22.238  21.310
  679W        W 1543  26.403  23.224  20.301
  680W        W 1544  26.838  22.941  18.234
  681W        W 1545  25.695  24.840  21.072
  682W        W 1546  27.049  23.525  20.387
  683W        W 1547  26.908  22.464  18.409
  684W        W 1548  26.739  24.071  19.621
  685W        W 1549  25.799  25.524  20.775
  686W        W 1550  28.489  23.603  18.819
  687W        W 1551  28.670  22.443  21.422
  688W        W 1552  28.156  24.492  19.434
  689W        W 1553  25.777  23.571  21.558
  690W        W 1554  28.657  22.038  18.799
  691W        W 1555  28.304  24.393  18.894
  692W        W 1556  27.324  23.273  18.906
  693W        W 1557  28.310  22.364  18.471
  694W        W 1558  28.275  22.870  20.727
  695W        W 1559  25.974  23.313  19.970
  696W        W 1560  26.436  24.569  19.704
  697W        W 1561  28.065  22.999  19.494
  698W        W 1562  27.052  22.537  20.208
  699W        W 1563   0.040  24.445  20.749
  700W        W 1564  28.916  22.587  20.362
  701W        W 1565  25.629  25.285  19.814
  702W        W 1566  25.763  24.487  19.332
  703W        W 1567  26.130  22.253  21.819
  704W        W 1568  27.155  24.852  21.802
  705W        W 1569  28.930  23.844  19.685
  706W        W 1570  28.171  23.966  18.636
  707W        W 1571  27.686  25.420  20.692
  708W        W 1572  28.299  24.160  21.777
  709W        W 1573  27.218  21.887  19.058
  710W        W 1574  27.806  22.771  19.857
  711W        W 1575  25.740  24.479  20.286
  712W        W 1576  26.831  22.435  18.948
  713W        W 1577  26.763  23.893  21.569
  714W        W 1578  27.635  22.750  19.354
  715W        W 1579  27.983  24.351  20.593
  716W        W 1580  26.166  25.025  20.959
  717W        W 1581  26.641  24.891  21.759
  718W        W 1582  26.565  22.865  18.731
  719W        W 1583  28.052  22.807  18.947
  720W        W 1584  27.964  24.854  21.233
  721W        W 1585  26.724  23.474  19.967
  722W        W 1586  26.320  25.447  20.661
  723W        W 1587  28.975  25.311  18.365
  724W        W 1588  25.910  24.054  21.448
  725W        W 1589  27.812  24.122  20.165
  726W        W 1590  26.726  24.496  19.292
  727W        W 1591  26.857  25.052  20.815
  728W        W 1592  27.192  22.180  19.857
  729W        W 1593  25.454  24.355  18.924
  730W        W 1594  27.277  23.163  18.358
  731W        W 1595  25.847  24.014  19.590
  732W        W 1596  26.990  22.428  21.174
  733W        W 1597  28.781  22.220  18.316
  734W        W 1598  28.898  23.875  21.562
  735W        W 1599  27.534  25.238  21.731
  736W        W 1600   0.049  24.244  21.233
  737W        W 1601  28.737  24.908  21.715
  738W        W 1602  26.429  25.540  20.160
  739W        W 1603   0.070  24.177  19.314
  740W        W 1604  27.738  23.276  19.835
  741W        W 1605  27.447  21.898  19.506
  742W        W 1606  26.581  24.996  19.437
  743W        W 1607  26.875  22.686  20.720
  744W        W 1608  26.900  21.942  20.214
  745W        W 1609  25.852  25.233  18.609
  746W        W 1610  27.486  24.095  19.454
  747W        W 1611  26.618  25.076  21.271
  748W        W 1612  25.615  23.857  18.964
  749W        W 1613  25.700  22.477  20.010
  750W        W 1614  27.333  24.326  20.064
  751W        W 1615  25.780  22.446  18.861
  752W        W 1616  28.321  23.364  20.890
  753W        W 1617  28.092  22.843  18.419
  754W        W 1618  28.684  24.447  20.180
  755W        W 1619  27.409  24.809  19.839
  756W        W 1620  26.800  25.247  19.051
  757W        W 1621  27.911  21.965  18.316
  758W        W 1622  25.931  25.405  20.269
  759W        W 1623  27.832  22.994  21.785
  760W        W 1624  25.961  22.753  21.955
  761W        W 1625  25.699  23.071  19.236
  762W        W 1626  26.854  23.298  18.713
  763W        W 1627  28.007  23.422  21.509
  764W        W 1628  26.615  23.873  20.325
  765W        W 1629  27.969  21.975  19.523
  766W        W 1630  27.172  25.237  19.978
  767W        W 1631  28.289  24.833  20.824
  768W        W 1632  28.034  25.003  19.953
  769W        W 1633  27.949  23.980  19.664
  770W        W 1634  27.312  22.363  18.782
  771W        W 1635  28.999  21.954  19.485
  772W        W 1636  26.782  23.523  18.271
  773W        W 1637  28.885  22.811  19.535
  774W        W 1638  27.416  24.116  18.629
  775W        W 1639  28.551  24.178  21.311
  776W        W 1640  28.383  24.684  18.424
  777W        W 1641  26.898  22.727  21.578
  778W        W 1642  26.630  23.163  20.783
  779W        W 1643  28.683  24.636  21.101
  780W        W 1644  27.804  22.639  21.354
  781W        W 1645  25.711  23.189  21.214
  782W        W 1646  27.402  23.583  20.798
  783W        W 1647  25.952  24.466  19.816
  784W        W 1648  26.022  23.575  20.416
  785W        W 1649  28.277  23.923  20.850
  786W        W 1650  28.056  25.291  21.543
  787W        W 1651  27.956  23.060  21.132
  788W        W 1652  28.240  25.366  19.659
  789W        W 1653  27.364  24.965  20.905
  790W        W 1654  26.755  25.149  20.300
  791W        W 1655  28.492  24.383  20.661
  792W        W 1656  27.495  24.448  21.843
  793W        W 1657  26.274  24.543  20.207
  794W        W 1658  28.429  23.873  19.807
  795W        W 1659  28.118  25.207  20.464
  796W        W 1660  26.270  24.995  20.446
  797W        W 1661  27.336  22.999  21.636
  798W        W 1662  27.483  25.091  19.033
  799W        W 1663  26.999  24.346  21.736
  800W        W 1664  27.085  24.780  19.081
  801W        W 1665  26.381  23.159  18.226
  802W        W 1666  25.567  25.605  25.309
  803W        W 1667  25.951  24.498  24.810
  804W        W 1668  28.694  24.111  22.539
  805W        W 1669  28.955  25.152  24.574
  806W        W 1670  26.639  25.294  22.139
  807W        W 1671  26.899  23.332  22.948
  808W        W 1672  26.511  22.832  23.261
  809W        W 1673  27.356  23.847  22.668
  810W        W 1674  27.114  25.209  25.026
  811W        W 1675  25.579  22.654  24.868
  812W        W 1676  26.249  21.902  24.808
  813W        W 1677  28.155  22.316  23.616
  814W        W 1678  27.961  23.182  22.329
  815W        W 1679  28.305  22.776  25.301
  816W        W 1680  25.673  22.364  24.459
  817W        W 1681  25.806  25.140  25.351
  818W        W 1682  27.069  24.559  22.219
  819W        W 1683  25.570  23.122  23.948
  820W        W 1684  26.713  23.247  25.016
  821W        W 1685  28.816  23.039  23.631
  822W        W 1686  28.796  23.999  24.521
  823W        W 1687  27.276  23.403  23.594
  824W        W 1688  27.857  24.686  23.790
  825W        W 1689  26.122  24.089  24.166
  826W        W 1690  25.332  23.597  23.920
  827W        W 1691  26.658  23.735  24.860
  828W        W 1692  28.801  23.548  25.332
  829W        W 1693  26.509  24.974  23.698
  830W        W 1694  27.583  24.542  24.594
  831W        W 1695  26.855  23.020  24.041
  832W        W 1696  27.006  23.854  23.613
  833W        W 1697  27.943  24.820  25.367
  834W        W 1698  27.385  24.039  25.394
  835W        W 1699  27.163  23.803  24.814
  836W        W 1700  25.456  22.944  25.271
  837W        W 1701  28.306  24.733  25.014
  838W        W 1702  26.070  22.184  23.073
  839W        W 1703  26.590  24.822  24.202
  840W        W 1704  28.984  24.268  23.408
  841W        W 1705  28.518  22.515  23.950
  842W        W 1706  28.674  22.735  21.919
  843W        W 1707  28.921  23.503  24.491
  844W        W 1708  27.286  25.031  24.112
  845W        W 1709  28.787  24.630  22.589
  846W        W 1710  25.998  25.667  22.525
  847W        W 1711  26.321  25.484  22.926
  848W        W 1712  26.148  22.201  24.383
  849W        W 1713  28.737  23.008  24.611
  850W        W 1714  28.147  23.552  23.176
  851W        W 1715  28.056  23.587  22.021
  852W        W 1716  27.441  24.497  24.048
  853W        W 1717  27.410  22.713  23.383
  854W        W 1718  27.781  24.895  24.280
  855W        W 1719  28.681  23.685  22.824
  856W        W 1720  27.761  22.397  22.795
  857W        W 1721  26.262  25.197  22.509
  858W        W 1722  25.691  22.515  23.150
  859W        W 1723  28.324  22.982  23.792
  860W        W 1724  26.005  24.876  23.587
  861W        W 1725  27.084  25.086  22.277
  862W        W 1726  28.334  23.175  21.846
  863W        W 1727  25.660  24.944  24.225
  864W        W 1728  26.486  24.674  24.677
  865W        W 1729  26.975  23.875  23.058
  866W        W 1730  26.615  22.291  24.181
  867W        W 1731   0.127  21.900  23.528
  868W        W 1732  26.315  24.053  21.775
  869W        W 1733  25.852  22.866  22.472
  870W        W 1734  26.061  24.967  23.055
  871W        W 1735  26.849  24.394  23.085
  872W        W 1736  28.485  25.165  24.806
  873W        W 1737  27.616  22.834  22.545
  874W        W 1738  28.614  25.276  23.330
  875W        W 1739  28.491  23.252  25.036
  876W        W 1740   0.093  24.574  23.001
  877W        W 1741  27.734  24.041  24.639
  878W        W 1742  25.555  23.623  23.012
  879W        W 1743  26.579  24.313  24.281
  880W        W 1744  27.761  23.298  22.818
  881W        W 1745  27.766  23.831  22.965
  882W        W 1746  25.955  23.101  24.306
  883W        W 1747  25.984  23.024  25.014
  884W        W 1748  26.027  22.016  23.573
  885W        W 1749  27.623  22.399  23.784
  886W        W 1750  27.397  22.525  25.198
  887W        W 1751  27.854  22.399  22.303
  888W        W 1752  28.895  25.050  25.096
  889W        W 1753  27.685  22.092  25.234
  890W        W 1754  28.714  24.580  25.280
  891W        W 1755  28.332  22.595  24.834
  892W        W 1756  28.191  22.500  23.082
  893W        W 1757  28.402  23.859  25.415
  894W        W 1758  26.232  25.306  23.403
  895W        W 1759  27.126  22.840  22.443
  896W        W 1760  26.454  22.269  25.130
  897W        W 1761  28.529  22.832  22.886
  898W        W 1762  28.846  23.205  22.710
  899W        W 1763  26.749  25.475  25.316
  900W        W 1764  26.681  21.836  22.544
  901W        W 1765  28.954  22.344  23.307
  902W        W 1766  28.999  24.807  22.144
  903W        W 1767  25.759  24.012  23.808
  904W        W 1768  27.873  22.445  21.809
  905W        W 1769   0.081  24.843  23.858
  906W        W 1770  28.750  22.124  24.229
  907W        W 1771  27.673  23.223  24.983
  908W        W 1772  27.439  24.513  22.598
  909W        W 1773  27.893  23.962  25.441
  910W        W 1774  27.679  21.905  23.579
  911W        W 1775  26.175  22.934  23.816
  912W        W 1776  25.895  24.002  24.633
  913W        W 1777  27.672  25.176  23.304
  914W        W 1778  28.940  22.760  24.179
  915W        W 1779  27.653  25.425  24.813
  916W        W 1780  28.736  23.945  22.048
  917W        W 1781  27.367  23.519  23.086
  918W        W 1782  28.982  22.038  24.732
  919W        W 1783  27.290  24.147  24.424
  920W        W 1784  27.521  22.972  23.826
  921W        W 1785  28.309  23.277  22.765
  922W        W 1786  28.511  23.081  22.327
  923W        W 1787  28.479  24.869  22.955
  924W        W 1788  28.433  24.372  23.507
  925W        W 1789  28.025  23.651  22.551
  926W        W 1790  27.534  23.860  23.449
  927W        W 1791  28.486  23.477  23.653
  928W        W 1792  25.822  22.664  24.076
  929W        W 1793  28.565  23.741  24.908
  930W        W 1794  28.963  25.317  24.056
  931W        W 1795  26.899  24.816  23.389
  932W        W 1796  28.071  25.302  24.535
  933W        W 1797  27.894  22.640  24.545
  934W        W 1798  27.220  25.507  24.552
  935W        W 1799  28.688  22.336  22.854
  936W        W 1800  28.584  23.715  24.137
  937W        W 1801  25.479  22.867  24.401
  938W        W 1802  28.540  22.636  23.434
  939W        W 1803  28.779  22.849  25.105
  940W        W 1804  27.700  24.469  23.351
  941W        W 1805  27.080  25.187  23.066
  942W        W 1806  26.155  22.465  22.324
  943W        W 1807  27.290  22.180  24.111
  944W        W 1808  26.213  25.564  22.082
  945W        W 1809  26.870  23.723  22.560
  946W        W 1810  27.326  24.268  24.939
  947W        W 1811  27.272  22.477  22.932
  948W        W 1812  28.482  22.116  23.258
  949W        W 1813  28.108  25.377  23.581
  950W        W 1814  27.702  25.158  23.833
  951W        W 1815  26.988  24.200  24.009
  952W        W 1816  28.729  24.849  24.235
  953W        W 1817  26.539  22.387  22.948
  954W        W 1818  26.958  24.697  23.878
  955W        W 1819  26.490  22.629  21.873
  956W        W 1820  27.274  23.116  24.322
  957W        W 1821  28.236  22.006  24.021
  958W        W 1822  25.564  23.919  24.274
  959W        W 1823  27.119  23.539  22.123
  960W        W 1824  26.557  22.196  22.150
  961W        W 1825  27.319  23.005  22.965
  962W        W 1826  27.970  22.202  24.810
  963W        W 1827  26.860  24.262  24.738
  964W        W 1828  27.623  23.741  25.044
  965W        W 1829  28.108  23.970  24.986
  966W        W 1830  27.464  22.292  25.671
  967W        W 1831  26.620  22.645  23.750
  968W        W 1832  26.114  22.567  23.429
  969W        W 1833  25.764  25.346  22.854
  970W        W 1834  27.440  24.761  25.076
  971W        W 1835  26.512  24.131  22.656
  972W        W 1836  27.995  23.686  23.680
  973W        W 1837  28.163  23.392  24.085
  974W        W 1838  27.406  23.916  23.965
  975W        W 1839  27.981  24.446  22.091
  976W        W 1840  27.753  22.346  23.296
  977W        W 1841  28.980  22.714  22.675
  978W        W 1842  25.817  25.381  24.883
  979W        W 1843  26.116  24.567  24.337
  980W        W 1844  25.344  25.250  22.559
  981W        W 1845  27.504  22.648  24.227
  982W        W 1846  26.615  24.832  22.341
  983W        W 1847  28.611  25.102  22.405
  984W        W 1848  27.603  23.644  22.264
  985W        W 1849  26.852  22.795  22.871
  986W        W 1850  27.466  22.656  22.029
  987W        W 1851  27.791  24.370  25.122
  988W        W 1852  28.227  22.244  22.625
  989W        W 1853  25.809  22.082  22.187
  990W        W 1854  27.052  24.613  24.384
  991W        W 1855  26.717  24.321  23.583
  992W        W 1856  26.589  24.430  22.024
  993W        W 1857  25.642  24.847  22.753
  994W        W 1858  26.241  23.489  25.063
  995W        W 1859  26.954  22.302  25.322
  996W        W 1860  27.484  22.311  24.644
  997W        W 1861  26.969  22.066  23.050
  998W        W 1862  27.758  21.943  22.555
  999W        W 1863  25.774  22.078  24.037
 1000W        W 1864  25.722  22.901  23.517
 1001W        W 1865  28.658  22.030  23.728
 1002W        W 1866  26.119  22.680  22.893
 1003W        W 1867  28.287  22.358  24.382
 1004W        W 1868  28.796  23.393  21.968
 1005W        W 1869  26.199  22.382  23.896
 1006W        W 1870  27.397  22.811  24.743
 1007W        W 1871  25.551  22.530  22.223
 1008W        W 1872  26.360  24.170  24.722
 1009W        W 1873  27.628  23.447  23.973
 1010W        W 1874  27.509  25.387  22.271
 1011W        W 1875  25.764  23.891  21.952
 1012W        W 1876  26.568  24.458  25.131
 1013W        W 1877  25.933  23.477  24.662
 1014W        W 1878  26.860  23.880  24.404
 1015W        W 1879  28.459  22.040  24.739
 1016W        W 1880   0.084  23.782  24.898
 1017W        W 1881   0.006  23.581  22.385
 1018W        W 1882  27.793  24.117  22.506
 1019W        W 1883  28.408  25.387  21.948
 1020W        W 1884  27.620  23.504  25.517
 1021W        W 1885  26.062  24.396  25.297
 1022W        W 1886   0.137  22.567  25.344
 1023W        W 1887  28.697  23.214  24.109
 1024W        W 1888  27.224  25.470  25.481
 1025W        W 1889  27.026  22.017  22.176
 1026W        W 1890  28.579  24.441  22.141
 1027W        W 1891  26.453  22.790  24.997
 1028W        W 1892  26.958  24.749  24.874
 1029W        W 1893  28.753  22.495  24.573
 1030W        W 1894  28.181  25.459  22.413
 1031W        W 1895  28.290  24.111  23.955
 1032W        W 1896  26.518  22.433  24.650
 1033W        W 1897  27.163  23.540  25.270
 1034W        W 1898  26.455  24.630  22.811
 1035W        W 1899  28.248  24.019  22.828
 1036W        W 1900  26.055  22.691  24.614
 1037W        W 1901  27.315  24.713  23.097
 1038W        W 1902   0.203  23.283  23.357
 1039W        W 1903  27.226  22.018  24.982
 1040W        W 1904  28.321  24.648  23.965
 1041W        W 1905  28.613  25.037  23.778
 1042W        W 1906  27.537  24.852  22.169
 1043W        W 1907  25.616  24.676  25.182
 1044W        W 1908  26.430  22.780  24.255
 1045W        W 1909  26.483  22.218  23.434
 1046W        W 1910  28.001  22.632  24.034
 1047W        W 1911  26.858  23.994  22.102
 1048W        W 1912  28.722  23.952  23.708
 1049W        W 1913  26.195  24.864  25.100
 1050W        W 1914  28.577  25.431  22.822
 1051W        W 1915  26.907  22.506  23.322
 1052W        W 1916  26.271  24.040  23.662
 1053W        W 1917  26.792  25.662  24.315
 1054W        W 1918  28.622  25.489  25.175
 1055W        W 1919  27.883  23.846  24.180
 1056W        W 1920  25.838  23.243  22.098
 1057W        W 1921  28.942  25.071  22.977
 1058W        W 1922  28.557  22.587  22.410
 1059W        W 1923  26.769  21.955  24.710
 1060W        W 1924  28.786  24.754  23.385
 1061W        W 1925  28.679  23.319  23.192
 1062W        W 1926  26.979  22.995  23.459
 1063W        W 1927  27.186  23.280  24.815
 1064W        W 1928  28.082  24.410  24.701
 1065W        W 1929  26.821  22.903  24.642
 1066W        W 1930  26.755  25.361  23.447
 1067W        W 1931  26.245  25.392  25.215
 1068W        W 1932  26.204  25.055  22.002
 1069W        W 1933  28.630  24.351  23.010
 1070W        W 1934  26.351  23.162  24.641
 1071W        W 1935   0.028  23.005  22.247
 1072W        W 1936  27.013  24.228  22.621
 1073W        W 1937  27.935  23.556  24.654
 1074W        W 1938  27.801  23.100  24.330
 1075W        W 1939  26.353  23.710  24.454
 1076W        W 1940  28.540  25.386  24.340
 1077W        W 1941  28.286  22.234  25.243
 1078W        W 1942  25.945  22.291  24.944
 1079W        W 1943  26.414  23.307  24.125
 1080W        W 1944  26.931  23.049  21.980
 1081W        W 1945  25.586  24.865  24.714
 1082W        W 1946  27.073  23.535  24.063
 1083W        W 1947  26.971  22.525  22.078
 1084W        W 1948  26.497  23.697  22.948
 1085W        W 1949  25.903  25.427  24.357
 1086W        W 1950  28.489  23.587  22.345
 1087W        W 1951  28.755  22.350  25.061
 1088W        W 1952  28.140  24.495  23.077
 1089W        W 1953  25.723  23.430  25.212
 1090W        W 1954  28.680  22.099  22.381
 1091W        W 1955  28.287  24.470  22.570
 1092W        W 1956  27.279  23.344  22.583
 1093W        W 1957  28.295  22.261  22.083
 1094W        W 1958  28.333  22.891  24.323
 1095W        W 1959  25.790  23.500  23.659
 1096W        W 1960  26.385  24.638  23.329
 1097W        W 1961  28.241  23.045  23.259
 1098W        W 1962  27.143  22.618  23.810
 1099W        W 1963   0.054  24.438  24.343
 1100W        W 1964   0.011  22.402  23.812
 1101W        W 1965  25.714  25.246  23.360
 1102W        W 1966  25.967  24.471  22.952
 1103W        W 1967  26.057  22.143  25.448
 1104W        W 1968  27.191  24.953  25.513
 1105W        W 1969  28.983  23.740  23.300
 1106W        W 1970  28.248  24.032  22.270
 1107W        W 1971  27.643  25.409  24.278
 1108W        W 1972  28.247  24.361  25.383
 1109W        W 1973  27.209  21.878  22.623
 1110W        W 1974  27.914  22.772  23.544
 1111W        W 1975  25.798  24.525  23.932
 1112W        W 1976  26.886  22.327  22.578
 1113W        W 1977  26.899  24.025  25.211
 1114W        W 1978  27.800  22.839  23.048
 1115W        W 1979  27.934  24.384  24.224
 1116W        W 1980  26.079  25.006  24.610
 1117W        W 1981  26.715  24.944  25.303
 1118W        W 1982  26.606  22.726  22.387
 1119W        W 1983  28.109  22.765  22.623
 1120W        W 1984  27.868  24.927  24.833
 1121W        W 1985  26.735  23.397  23.693
 1122W        W 1986  26.435  25.295  24.367
 1123W        W 1987  28.909  25.311  22.027
 1124W        W 1988  25.833  23.938  25.137
 1125W        W 1989  27.795  24.178  23.774
 1126W        W 1990  26.347  24.161  23.153
 1127W        W 1991  26.903  25.113  24.493
 1128W        W 1992  27.280  22.191  23.450
 1129W        W 1993  25.532  24.320  22.624
 1130W        W 1994  27.456  23.144  22.148
 1131W        W 1995  25.916  23.876  23.316
 1132W        W 1996  27.005  22.438  24.808
 1133W        W 1997  28.757  22.185  21.884
 1134W        W 1998  28.853  24.068  25.240
 1135W        W 1999  27.608  25.202  25.280
 1136W        W 2000   0.058  24.300  24.836
 1137W        W 2001  28.475  25.037  25.392
 1138W        W 2002  26.327  25.451  23.882
 1139W        W 2003   0.071  24.068  22.909
 1140W        W 2004  27.740  23.258  23.377
 1141W        W 2005  27.508  22.000  23.016
 1142W        W 2006  26.570  25.056  23.078
 1143W        W 2007  27.008  22.581  24.306
 1144W        W 2008  26.877  22.187  23.762
 1145W        W 2009  25.785  25.219  22.302
 1146W        W 2010  27.375  24.197  23.049
 1147W        W 2011  26.549  25.155  24.862
 1148W        W 2012  25.921  23.974  22.808
 1149W        W 2013  25.682  22.401  23.657
 1150W        W 2014  27.254  24.314  23.570
 1151W        W 2015  25.767  22.372  22.659
 1152W        W 2016  28.417  23.411  24.531
 1153W        W 2017  28.166  22.759  22.110
 1154W        W 2018  28.769  24.424  23.902
 1155W        W 2019  27.385  24.816  23.610
 1156W        W 2020  26.764  25.246  22.648
 1157W        W 2021  27.912  21.942  21.949
 1158W        W 2022  25.826  25.327  23.845
 1159W        W 2023  27.901  23.062  25.443
 1160W        W 2024  26.095  22.637  25.342
 1161W        W 2025  25.725  23.031  22.991
 1162W        W 2026  26.778  23.229  22.433
 1163W        W 2027  28.068  23.499  25.205
 1164W        W 2028  26.596  23.816  23.984
 1165W        W 2029  28.028  21.977  23.046
 1166W        W 2030  27.244  25.315  23.584
 1167W        W 2031  28.266  24.831  24.470
 1168W        W 2032  28.242  24.875  23.452
 1169W        W 2033  28.032  24.063  23.333
 1170W        W 2034  27.370  22.336  22.427
 1171W        W 2035  28.959  21.904  23.030
 1172W        W 2036  26.636  23.526  21.933
 1173W        W 2037  28.941  22.860  23.165
 1174W        W 2038  27.353  24.114  22.220
 1175W        W 2039  28.527  24.260  24.896
 1176W        W 2040  28.316  24.871  22.017
 1177W        W 2041  26.968  22.819  25.142
 1178W        W 2042  26.797  23.382  24.478
 1179W        W 2043  28.734  24.699  24.728
 1180W        W 2044  27.846  22.715  25.042
 1181W        W 2045  25.540  23.170  24.805
 1182W        W 2046  27.454  23.620  24.433
 1183W        W 2047  25.942  24.375  23.459
 1184W        W 2048  25.949  23.597  24.141
 1185W        W 2049  28.273  23.943  24.500
 1186W        W 2050  28.102  25.329  25.137
 1187W        W 2051  28.109  23.064  24.762
 1188W        W 2052  28.153  25.272  23.068
 1189W        W 2053  27.392  25.016  24.621
 1190W        W 2054  26.829  25.244  23.985
 1191W        W 2055  28.505  24.386  24.367
 1192W        W 2056  27.519  24.537  25.542
 1193W        W 2057  26.313  24.521  23.856
 1194W        W 2058  28.510  23.907  23.256
 1195W        W 2059  28.180  25.140  24.044
 1196W        W 2060  26.137  24.998  24.067
 1197W        W 2061  27.377  23.047  25.364
 1198W        W 2062  27.411  25.041  22.680
 1199W        W 2063  27.056  24.499  25.317
 1200W        W 2064  26.964  24.765  22.720
 1201W        W 2065  26.373  23.090  22.066
 1202W        W 2066  25.643  25.514  28.879
 1203W        W 2067  26.032  24.476  28.591
 1204W        W 2068  28.682  24.184  26.198
 1205W        W 2069  28.901  25.302  28.111
 1206W        W 2070  26.960  25.239  25.885
 1207W        W 2071  26.819  23.449  26.672
 1208W        W 2072  26.255  23.077  26.750
 1209W        W 2073  27.319  24.034  26.228
 1210W        W 2074  27.126  25.148  28.605
 1211W        W 2075  25.791  22.738  28.454
 1212W        W 2076  26.394  21.904  28.290
 1213W        W 2077  28.076  22.311  27.264
 1214W        W 2078  27.874  23.183  25.951
 1215W        W 2079  28.210  22.776  28.801
 1216W        W 2080  25.822  22.416  28.030
 1217W        W 2081  25.781  24.855  28.883
 1218W        W 2082  27.477  24.554  26.109
 1219W        W 2083  25.716  23.199  27.509
 1220W        W 2084  26.580  23.078  28.817
 1221W        W 2085   0.044  22.761  27.430
 1222W        W 2086  28.831  23.975  28.030
 1223W        W 2087  27.149  23.382  27.079
 1224W        W 2088  27.742  24.709  27.509
 1225W        W 2089  26.156  24.132  27.716
 1226W        W 2090  25.367  23.705  27.496
 1227W        W 2091  26.656  23.670  28.383
 1228W        W 2092  28.846  23.391  28.692
 1229W        W 2093  26.522  24.786  27.270
 1230W        W 2094  27.646  24.489  28.287
 1231W        W 2095  26.833  23.111  27.425
 1232W        W 2096  27.056  23.895  27.255
 1233W        W 2097  27.946  24.888  28.973
 1234W        W 2098  27.161  23.909  28.919
 1235W        W 2099  27.182  23.707  28.437
 1236W        W 2100  25.633  23.027  28.900
 1237W        W 2101  28.368  24.644  28.730
 1238W        W 2102  26.000  22.127  26.705
 1239W        W 2103  26.508  24.535  27.748
 1240W        W 2104   0.023  24.288  26.992
 1241W        W 2105  28.280  22.554  27.663
 1242W        W 2106  28.716  22.734  25.612
 1243W        W 2107   0.329  23.436  27.956
 1244W        W 2108  27.180  25.206  27.665
 1245W        W 2109  28.813  24.706  26.189
 1246W        W 2110  26.059  25.581  26.119
 1247W        W 2111  26.348  25.511  26.740
 1248W        W 2112  26.342  22.350  27.941
 1249W        W 2113  28.729  23.174  28.201
 1250W        W 2114  28.152  23.654  26.724
 1251W        W 2115  28.086  23.590  25.734
 1252W        W 2116  27.390  24.538  27.833
 1253W        W 2117  27.222  22.848  27.095
 1254W        W 2118  27.764  24.887  27.983
 1255W        W 2119  28.602  23.736  26.467
 1256W        W 2120  27.756  22.506  26.522
 1257W        W 2121  26.248  25.135  26.385
 1258W        W 2122  25.728  22.552  26.720
 1259W        W 2123  28.518  23.048  27.409
 1260W        W 2124  25.860  24.841  27.165
 1261W        W 2125  27.326  25.033  26.218
 1262W        W 2126  28.419  23.222  25.560
 1263W        W 2127  25.689  25.000  27.952
 1264W        W 2128  26.479  24.572  28.303
 1265W        W 2129  26.689  23.938  26.887
 1266W        W 2130  26.872  22.388  27.815
 1267W        W 2131  28.828  21.849  27.216
 1268W        W 2132  26.360  23.982  25.203
 1269W        W 2133  26.245  22.800  25.830
 1270W        W 2134  26.123  24.721  26.739
 1271W        W 2135  27.066  24.290  26.912
 1272W        W 2136  28.505  25.101  28.390
 1273W        W 2137  27.557  22.931  26.278
 1274W        W 2138  28.676  25.366  27.033
 1275W        W 2139  28.366  23.232  28.588
 1276W        W 2140   0.154  24.618  26.609
 1277W        W 2141  27.785  23.977  28.212
 1278W        W 2142  25.563  23.536  26.618
 1279W        W 2143  26.578  24.123  28.056
 1280W        W 2144  27.827  23.349  26.435
 1281W        W 2145  27.682  23.840  26.535
 1282W        W 2146  26.001  23.288  27.955
 1283W        W 2147  26.084  23.113  28.668
 1284W        W 2148  25.974  21.900  27.153
 1285W        W 2149  27.730  22.303  27.666
 1286W        W 2150  27.330  22.603  28.875
 1287W        W 2151  27.869  22.453  26.017
 1288W        W 2152  28.826  24.914  28.771
 1289W        W 2153  27.790  22.046  28.710
 1290W        W 2154  28.834  24.406  28.867
 1291W        W 2155  28.396  22.781  28.315
 1292W        W 2156  28.212  22.570  26.779
 1293W        W 2157  28.455  23.662  28.933
 1294W        W 2158  26.248  25.218  27.189
 1295W        W 2159  27.108  22.732  26.159
 1296W        W 2160  26.444  22.180  28.752
 1297W        W 2161  28.542  22.907  26.543
 1298W        W 2162  28.860  23.296  26.353
 1299W        W 2163  26.608  25.445   0.026
 1300W        W 2164  26.596  21.963  26.122
 1301W        W 2165  28.959  22.324  27.118
 1302W        W 2166   0.026  24.800  25.704
 1303W        W 2167  25.735  24.063  27.350
 1304W        W 2168  27.906  22.492  25.495
 1305W        W 2169  28.882  24.779  27.029
 1306W        W 2170  28.934  22.007  28.082
 1307W        W 2171  27.392  23.416  28.810
 1308W        W 2172  27.891  24.919  26.233
 1309W        W 2173  27.972  23.821   0.082
 1310W        W 2174  27.634  22.025  27.229
 1311W        W 2175  26.337  22.921  27.243
 1312W        W 2176  25.955  24.110  28.226
 1313W        W 2177  27.672  25.278  26.950
 1314W        W 2178  28.697  22.797  27.828
 1315W        W 2179  27.622  25.256  28.428
 1316W        W 2180  28.685  24.206  25.692
 1317W        W 2181  27.187  23.825  26.722
 1318W        W 2182   0.045  22.247  28.520
 1319W        W 2183  27.283  24.139  28.152
 1320W        W 2184  27.388  23.104  27.532
 1321W        W 2185  28.327  23.327  26.303
 1322W        W 2186  28.610  22.992  26.035
 1323W        W 2187  28.413  24.994  26.338
 1324W        W 2188  28.327  24.479  27.067
 1325W        W 2189  28.099  23.782  26.227
 1326W        W 2190  27.523  24.012  27.085
 1327W        W 2191  28.516  23.564  27.303
 1328W        W 2192  25.992  22.716  27.596
 1329W        W 2193  28.576  23.653  28.357
 1330W        W 2194  28.883  25.319  27.524
 1331W        W 2195  26.956  24.782  27.005
 1332W        W 2196  28.084  25.266  28.146
 1333W        W 2197  27.970  22.608  28.065
 1334W        W 2198  27.154  25.405  28.156
 1335W        W 2199  28.709  22.419  26.627
 1336W        W 2200  28.448  23.533  27.819
 1337W        W 2201  25.645  22.907  27.937
 1338W        W 2202  28.531  22.569  27.211
 1339W        W 2203  28.767  22.898  28.686
 1340W        W 2204  27.688  24.550  27.026
 1341W        W 2205  27.188  25.185  26.750
 1342W        W 2206  26.199  22.289  25.945
 1343W        W 2207  27.247  22.057  27.595
 1344W        W 2208  26.485  25.516  25.758
 1345W        W 2209  26.904  23.733  26.245
 1346W        W 2210  27.345  24.301  28.650
 1347W        W 2211  27.267  22.552  26.659
 1348W        W 2212  28.455  22.117  26.952
 1349W        W 2213  28.171  25.410  27.214
 1350W        W 2214  27.687  25.237  27.464
 1351W        W 2215  27.007  24.189  27.696
 1352W        W 2216  28.715  24.892  27.841
 1353W        W 2217  26.413  22.295  26.465
 1354W        W 2218  26.958  24.735  27.570
 1355W        W 2219  26.601  22.644  25.479
 1356W        W 2220  27.241  23.274  28.049
 1357W        W 2221  28.112  22.120  27.933
 1358W        W 2222  25.654  23.977  27.851
 1359W        W 2223  27.203  23.737  25.781
 1360W        W 2224  26.564  22.128  25.619
 1361W        W 2225  27.147  23.043  26.613
 1362W        W 2226  28.146  22.307  28.433
 1363W        W 2227  26.873  24.142  28.499
 1364W        W 2228  27.629  23.868  28.697
 1365W        W 2229  28.141  23.874  28.571
 1366W        W 2230  27.439  22.149   0.079
 1367W        W 2231  26.834  22.609  27.348
 1368W        W 2232  26.238  22.570  26.876
 1369W        W 2233  25.909  25.226  26.784
 1370W        W 2234  27.500  24.791  28.697
 1371W        W 2235  26.361  24.188  26.279
 1372W        W 2236  28.021  23.763  27.213
 1373W        W 2237  28.060  23.308  27.467
 1374W        W 2238  27.524  24.084  27.618
 1375W        W 2239  27.941  24.570  25.830
 1376W        W 2240  27.654  22.522  27.051
 1377W        W 2241  28.997  22.779  26.353
 1378W        W 2242  25.763  25.267  28.459
 1379W        W 2243  26.016  24.593  28.047
 1380W        W 2244  25.548  25.556  26.290
 1381W        W 2245  27.519  22.839  28.028
 1382W        W 2246  26.978  24.727  26.005
 1383W        W 2247  28.656  25.144  25.920
 1384W        W 2248  27.648  23.648  26.028
 1385W        W 2249  26.664  22.787  26.453
 1386W        W 2250  27.582  22.792  25.770
 1387W        W 2251  27.860  24.369  28.765
 1388W        W 2252  28.251  22.295  26.341
 1389W        W 2253  25.725  22.037  25.829
 1390W        W 2254  26.935  24.521  28.078
 1391W        W 2255  26.685  24.278  27.307
 1392W        W 2256  26.656  24.547  25.645
 1393W        W 2257  25.723  25.040  26.330
 1394W        W 2258  26.360  23.542  28.777
 1395W        W 2259  26.921  22.274  28.912
 1396W        W 2260  27.652  22.196  28.189
 1397W        W 2261  26.901  21.994  26.779
 1398W        W 2262  27.815  22.024  26.294
 1399W        W 2263  25.974  22.146  27.622
 1400W        W 2264  25.826  22.914  27.080
 1401W        W 2265  28.437  22.023  27.521
 1402W        W 2266  26.133  22.720  26.364
 1403W        W 2267  28.545  22.346  28.077
 1404W        W 2268  28.849  23.385  25.812
 1405W        W 2269  26.362  22.400  27.393
 1406W        W 2270  27.372  22.984  28.506
 1407W        W 2271  25.780  22.570  25.807
 1408W        W 2272  26.352  24.048  28.536
 1409W        W 2273  27.570  23.589  27.422
 1410W        W 2274  27.430  25.450  25.937
 1411W        W 2275  25.677  23.757  25.617
 1412W        W 2276  26.551  24.445  28.791
 1413W        W 2277  26.046  23.615  28.389
 1414W        W 2278  26.948  23.774  27.993
 1415W        W 2279  28.549  21.976  28.446
 1416W        W 2280   0.111  23.677  28.359
 1417W        W 2281  28.992  23.761  26.136
 1418W        W 2282  27.871  24.261  26.285
 1419W        W 2283  28.381  25.478  25.633
 1420W        W 2284  27.624  23.352   0.257
 1421W        W 2285  26.129  24.298   0.059
 1422W        W 2286   0.077  22.512  28.976
 1423W        W 2287  28.892  23.270  27.705
 1424W        W 2288  27.113  25.427   0.012
 1425W        W 2289  27.015  22.152  25.871
 1426W        W 2290  28.495  24.669  25.751
 1427W        W 2291  26.352  22.666  28.557
 1428W        W 2292  26.964  24.667  28.574
 1429W        W 2293  28.907  22.665  28.268
 1430W        W 2294  28.191  25.417  26.142
 1431W        W 2295  28.367  24.043  27.542
 1432W        W 2296  26.708  22.319  28.315
 1433W        W 2297  26.876  23.505  28.816
 1434W        W 2298  26.548  24.669  26.373
 1435W        W 2299  28.308  24.142  26.528
 1436W        W 2300  26.154  22.817  28.096
 1437W        W 2301  27.579  24.863  26.640
 1438W        W 2302   0.143  23.319  26.787
 1439W        W 2303  27.296  22.163  28.581
 1440W        W 2304  28.246  24.601  27.559
 1441W        W 2305  28.530  24.976  27.353
 1442W        W 2306  27.630  24.995  25.780
 1443W        W 2307  25.615  24.361   0.012
 1444W        W 2308  26.510  22.808  27.708
 1445W        W 2309  26.428  22.086  26.989
 1446W        W 2310  27.820  22.823  27.619
 1447W        W 2311  27.132  24.274  25.792
 1448W        W 2312  28.849  23.969  27.360
 1449W        W 2313  26.270  24.806  28.988
 1450W        W 2314  28.537  25.466  26.532
 1451W        W 2315  26.760  22.480  26.858
 1452W        W 2316  26.269  23.891  27.230
 1453W        W 2317  26.646  25.516  28.004
 1454W        W 2318  28.816  25.436  28.669
 1455W        W 2319  27.947  23.769  27.739
 1456W        W 2320  25.864  23.051  25.553
 1457W        W 2321  28.898  25.075  26.596
 1458W        W 2322  28.664  22.486  26.092
 1459W        W 2323  26.840  21.895  28.552
 1460W        W 2324  28.446  24.939  26.841
 1461W        W 2325  28.614  23.358  26.827
 1462W        W 2326  26.744  22.999  26.934
 1463W        W 2327  26.908  23.199  28.423
 1464W        W 2328  28.149  24.373  28.340
 1465W        W 2329  26.676  22.809  28.182
 1466W        W 2330  26.787  25.259  27.181
 1467W        W 2331  26.121  25.268  28.841
 1468W        W 2332  26.517  25.001  25.953
 1469W        W 2333  28.651  24.499  26.642
 1470W        W 2334  26.399  23.234  28.300
 1471W        W 2335   0.177  23.030  25.967
 1472W        W 2336  26.856  24.210  26.454
 1473W        W 2337  27.619  23.457  28.353
 1474W        W 2338  27.752  23.281  27.881
 1475W        W 2339  26.339  23.677  27.968
 1476W        W 2340  28.480  25.410  27.833
 1477W        W 2341  28.267  22.098  28.890
 1478W        W 2342  26.018  22.260  28.485
 1479W        W 2343  26.361  23.320  27.578
 1480W        W 2344  26.892  23.145  25.542
 1481W        W 2345  25.636  24.762  28.404
 1482W        W 2346  27.088  23.515  27.591
 1483W        W 2347  27.096  22.670  25.646
 1484W        W 2348  26.308  23.610  26.748
 1485W        W 2349  25.729  25.520  28.025
 1486W        W 2350  28.527  23.753  25.933
 1487W        W 2351  28.592  22.433  28.668
 1488W        W 2352  28.058  24.633  26.647
 1489W        W 2353  25.823  23.511  28.883
 1490W        W 2354  28.663  21.979  25.982
 1491W        W 2355  28.300  24.528  26.197
 1492W        W 2356  27.327  23.461  26.381
 1493W        W 2357  28.310  22.302  25.770
 1494W        W 2358  28.232  23.052  27.902
 1495W        W 2359  26.070  23.379  27.151
 1496W        W 2360  26.580  24.476  26.844
 1497W        W 2361  28.143  23.132  26.777
 1498W        W 2362  27.330  22.579  27.527
 1499W        W 2363   0.056  24.482  27.945
 1500W        W 2364  28.850  22.315  27.644
 1501W        W 2365  25.562  25.310  27.156
 1502W        W 2366  25.886  24.395  26.411
 1503W        W 2367  25.993  22.192   0.017
 1504W        W 2368  27.271  24.899   0.164
 1505W        W 2369  28.935  23.791  26.863
 1506W        W 2370  28.188  24.127  25.854
 1507W        W 2371  27.622  25.378  27.940
 1508W        W 2372  28.342  24.178  28.937
 1509W        W 2373  27.096  21.843  26.302
 1510W        W 2374  28.079  22.838  27.192
 1511W        W 2375  25.767  24.503  27.596
 1512W        W 2376  26.912  22.311  26.379
 1513W        W 2377  26.641  23.962  28.955
 1514W        W 2378  27.646  22.969  26.785
 1515W        W 2379  27.925  24.345  27.869
 1516W        W 2380  26.146  24.947  28.418
 1517W        W 2381  26.775  24.858   0.060
 1518W        W 2382  26.660  22.515  25.984
 1519W        W 2383  28.080  22.855  26.318
 1520W        W 2384  27.969  24.857  28.465
 1521W        W 2385  26.618  23.490  27.155
 1522W        W 2386  26.182  25.234  27.971
 1523W        W 2387  28.951  25.319  25.542
 1524W        W 2388  25.882  23.991  28.732
 1525W        W 2389  27.931  24.246  27.358
 1526W        W 2390  26.221  24.131  26.767
 1527W        W 2391  26.779  25.021  28.159
 1528W        W 2392  27.191  22.295  27.106
 1529W        W 2393  25.570  24.076  26.055
 1530W        W 2394  27.336  23.231  25.882
 1531W        W 2395  25.854  23.804  26.931
 1532W        W 2396  27.175  22.530  28.236
 1533W        W 2397  28.775  22.218  25.551
 1534W        W 2398  28.923  23.895  28.779
 1535W        W 2399  27.587  25.256  28.932
 1536W        W 2400   0.093  24.235  28.420
 1537W        W 2401  26.325  25.564  27.568
 1538W        W 2402   0.110  24.122  26.483
 1539W        W 2403  27.648  23.494  26.912
 1540W        W 2404  27.424  22.049  26.681
 1541W        W 2405  26.544  25.019  26.795
 1542W        W 2406  27.032  22.869  27.827
 1543W        W 2407  26.789  22.079  27.353
 1544W        W 2408  25.684  25.282  25.855
 1545W        W 2409  27.487  24.320  26.621
 1546W        W 2410  26.590  25.075  28.639
 1547W        W 2411  25.965  23.839  26.402
 1548W        W 2412  25.854  22.400  27.192
 1549W        W 2413  27.295  24.435  27.332
 1550W        W 2414  25.806  22.338  26.270
 1551W        W 2415  28.104  23.495  28.205
 1552W        W 2416  28.193  22.803  25.806
 1553W        W 2417  28.731  24.471  27.429
 1554W        W 2418  27.378  24.938  27.210
 1555W        W 2419  26.834  25.088  26.377
 1556W        W 2420  27.895  22.000  25.724
 1557W        W 2421  25.867  25.298  27.556
 1558W        W 2422  27.723  22.962  28.905
 1559W        W 2423  26.027  22.697  28.964
 1560W        W 2424  25.757  23.051  26.548
 1561W        W 2425  26.902  23.207  26.184
 1562W        W 2426  27.925  23.421  28.765
 1563W        W 2427  26.642  23.812  27.576
 1564W        W 2428  27.933  22.123  26.804
 1565W        W 2429  27.264  25.460  27.207
 1566W        W 2430  28.262  24.782  28.051
 1567W        W 2431  28.026  24.922  27.137
 1568W        W 2432  27.949  24.145  26.857
 1569W        W 2433  27.395  22.298  26.196
 1570W        W 2434  28.969  21.957  26.727
 1571W        W 2435  26.654  23.591  25.388
 1572W        W 2436  28.865  22.887  26.949
 1573W        W 2437  27.643  24.129  25.844
 1574W        W 2438  28.585  24.151  28.474
 1575W        W 2439  28.148  25.043  25.798
 1576W        W 2440  26.886  22.707  28.637
 1577W        W 2441  26.738  23.297  27.923
 1578W        W 2442  28.711  24.630  28.330
 1579W        W 2443  27.711  22.573  28.535
 1580W        W 2444  25.691  23.234  28.366
 1581W        W 2445  27.456  23.704  27.929
 1582W        W 2446  25.792  24.336  26.920
 1583W        W 2447  25.955  23.655  27.585
 1584W        W 2448  28.289  23.966  28.065
 1585W        W 2449  28.121  25.309  28.686
 1586W        W 2450  27.917  23.029  28.379
 1587W        W 2451  28.076  25.218  26.648
 1588W        W 2452  27.296  24.892  28.199
 1589W        W 2453  26.609  25.126  27.658
 1590W        W 2454  28.541  24.380  27.914
 1591W        W 2455  27.503  24.402   0.175
 1592W        W 2456  26.172  24.410  27.261
 1593W        W 2457  28.463  23.984  26.997
 1594W        W 2458  28.125  25.090  27.653
 1595W        W 2459  26.136  24.865  27.606
 1596W        W 2460  27.086  23.043  28.991
 1597W        W 2461  27.637  25.367  26.430
 1598W        W 2462  26.999  24.384   0.023
 1599W        W 2463  27.100  24.664  26.519
 1600W        W 2464  26.369  23.106  25.396
 1601W        W 2465  25.591   0.136   3.379
 1602W        W 2466  26.012  28.018   3.039
 1603W        W 2467  28.672  27.748   0.730
 1604W        W 2468  28.904  28.772   2.745
 1605W        W 2469  26.917  28.735   0.364
 1606W        W 2470  26.765  26.930   1.138
 1607W        W 2471  26.367  26.665   1.457
 1608W        W 2472  27.311  27.540   0.801
 1609W        W 2473  27.069  28.703   2.964
 1610W        W 2474  25.715  26.333   2.947
 1611W        W 2475  26.259  25.617   2.837
 1612W        W 2476  28.039  25.898   1.780
 1613W        W 2477  27.790  26.666   0.502
 1614W        W 2478  28.259  26.360   3.353
 1615W        W 2479  25.773  25.906   2.614
 1616W        W 2480  25.740  28.656   3.495
 1617W        W 2481  27.356  28.058   0.752
 1618W        W 2482  25.689  26.756   2.061
 1619W        W 2483  26.492  26.766   3.307
 1620W        W 2484  28.921  26.415   1.864
 1621W        W 2485  28.795  27.567   2.631
 1622W        W 2486  27.180  27.005   1.633
 1623W        W 2487  27.772  28.295   1.996
 1624W        W 2488  26.087  27.658   2.272
 1625W        W 2489  25.404  27.093   1.785
 1626W        W 2490  26.611  27.176   2.992
 1627W        W 2491  28.773  27.011   3.329
 1628W        W 2492  26.392  28.318   1.710
 1629W        W 2493  27.509  28.111   2.763
 1630W        W 2494  26.996  26.652   2.038
 1631W        W 2495  26.961  27.473   1.693
 1632W        W 2496  27.845  28.374   3.543
 1633W        W 2497  27.215  27.512   3.541
 1634W        W 2498  27.120  27.340   3.030
 1635W        W 2499  25.509  26.690   3.498
 1636W        W 2500  28.297  28.280   3.232
 1637W        W 2501  25.997  25.752   1.095
 1638W        W 2502  26.440  28.079   2.218
 1639W        W 2503  28.695  27.890   1.405
 1640W        W 2504  28.496  26.091   1.923
 1641W        W 2505  28.629  26.242   0.105
 1642W        W 2506   0.032  27.106   2.548
 1643W        W 2507  26.990  28.770   2.100
 1644W        W 2508  28.662  28.196   0.418
 1645W        W 2509  25.991  28.981   0.645
 1646W        W 2510  26.317  28.918   1.051
 1647W        W 2511  26.235  25.835   2.368
 1648W        W 2512  28.731  26.700   2.712
 1649W        W 2513  28.103  27.177   1.281
 1650W        W 2514  28.184  26.964   0.344
 1651W        W 2515  27.377  28.049   2.244
 1652W        W 2516  27.411  26.546   1.735
 1653W        W 2517  27.750  28.456   2.490
 1654W        W 2518  28.707  27.374   1.094
 1655W        W 2519  27.674  25.989   1.072
 1656W        W 2520  26.132  28.500   0.747
 1657W        W 2521  25.682  26.066   1.311
 1658W        W 2522  28.418  26.631   1.858
 1659W        W 2523  25.824  28.269   1.632
 1660W        W 2524  27.229  28.564   0.760
 1661W        W 2525  28.523  26.744   0.019
 1662W        W 2526  25.647  28.491   2.393
 1663W        W 2527  26.444  28.101   2.763
 1664W        W 2528  26.626  27.450   1.272
 1665W        W 2529  26.693  25.992   2.142
 1666W        W 2530   0.062  25.513   1.766
 1667W        W 2531  26.090  27.421   0.141
 1668W        W 2532  26.059  26.517   0.428
 1669W        W 2533  26.031  28.254   1.173
 1670W        W 2534  26.945  27.839   1.326
 1671W        W 2535  28.440  28.728   2.969
 1672W        W 2536  27.486  26.409   0.814
 1673W        W 2537  28.634  28.909   1.522
 1674W        W 2538  28.363  26.803   3.075
 1675W        W 2539   0.129  28.258   1.321
 1676W        W 2540  27.736  27.646   2.772
 1677W        W 2541  25.480  27.190   0.831
 1678W        W 2542  26.552  27.675   2.489
 1679W        W 2543  27.820  26.842   0.994
 1680W        W 2544  27.629  27.304   1.133
 1681W        W 2545  26.079  26.764   2.401
 1682W        W 2546  25.974  26.856   3.358
 1683W        W 2547  25.926  25.703   1.608
 1684W        W 2548  27.620  25.966   2.121
 1685W        W 2549  27.403  26.165   3.316
 1686W        W 2550  27.887  26.045   0.561
 1687W        W 2551  28.846  28.559   3.272
 1688W        W 2552  27.830  25.648   3.126
 1689W        W 2553  28.751  28.064   3.469
 1690W        W 2554  28.306  26.305   2.831
 1691W        W 2555  28.088  26.148   1.334
 1692W        W 2556  28.383  27.334   3.552
 1693W        W 2557  26.106  28.712   1.532
 1694W        W 2558  26.997  26.584   0.783
 1695W        W 2559  26.450  25.958   3.289
 1696W        W 2560  28.583  26.501   1.022
 1697W        W 2561  28.875  26.922   0.922
 1698W        W 2562  26.546   0.011   3.579
 1699W        W 2563  26.557  25.573   0.633
 1700W        W 2564  28.891  25.958   1.601
 1701W        W 2565   0.078  28.374   0.116
 1702W        W 2566  25.739  27.504   1.774
 1703W        W 2567  27.894  26.068   0.041
 1704W        W 2568  28.987  28.576   1.740
 1705W        W 2569  28.910  25.646   2.553
 1706W        W 2570  27.458  26.935   3.072
 1707W        W 2571  27.811  28.265   0.967
 1708W        W 2572  27.863  27.527   3.636
 1709W        W 2573  27.635  25.586   1.720
 1710W        W 2574  26.125  26.567   1.899
 1711W        W 2575  25.818  27.630   2.711
 1712W        W 2576  27.719  28.684   1.624
 1713W        W 2577   0.040  26.400   2.381
 1714W        W 2578  27.546  28.827   2.804
 1715W        W 2579  28.678  27.692   0.227
 1716W        W 2580  27.120  27.322   1.220
 1717W        W 2581   0.061  25.804   3.013
 1718W        W 2582  27.233  27.696   2.618
 1719W        W 2583  27.402  26.433   2.275
 1720W        W 2584  28.327  26.915   0.901
 1721W        W 2585  28.617  26.686   0.527
 1722W        W 2586  28.340  28.494   0.947
 1723W        W 2587  28.247  27.925   1.720
 1724W        W 2588  27.978  27.261   0.733
 1725W        W 2589  27.486  27.426   1.624
 1726W        W 2590  28.468  27.164   1.949
 1727W        W 2591  25.919  26.275   2.287
 1728W        W 2592  28.522  27.293   2.993
 1729W        W 2593  28.961  28.846   2.189
 1730W        W 2594  26.883  28.304   1.537
 1731W        W 2595  28.032  28.905   2.670
 1732W        W 2596  27.809  26.326   2.595
 1733W        W 2597  27.147   0.063   2.551
 1734W        W 2598  28.730  25.989   1.081
 1735W        W 2599  28.502  27.148   2.481
 1736W        W 2600  25.533  26.557   2.519
 1737W        W 2601  28.550  26.311   1.478
 1738W        W 2602  28.775  26.501   3.193
 1739W        W 2603  27.762  28.144   1.500
 1740W        W 2604  26.978  28.716   1.207
 1741W        W 2605  26.077  25.989   0.578
 1742W        W 2606  27.251  25.604   2.083
 1743W        W 2607  26.271  28.697   0.293
 1744W        W 2608  26.535  27.286   0.793
 1745W        W 2609  27.278  27.827   3.131
 1746W        W 2610  27.213  26.244   1.233
 1747W        W 2611  28.439  25.774   1.476
 1748W        W 2612  28.155  28.972   1.743
 1749W        W 2613  27.510  28.752   2.132
 1750W        W 2614  26.954  27.706   2.172
 1751W        W 2615  28.736  28.414   2.363
 1752W        W 2616  26.441  25.953   0.973
 1753W        W 2617  26.916  28.243   2.056
 1754W        W 2618  26.498  26.432   0.069
 1755W        W 2619  27.148  26.850   2.507
 1756W        W 2620  28.085  25.626   2.218
 1757W        W 2621  25.578  27.503   2.264
 1758W        W 2622  27.221  27.246   0.249
 1759W        W 2623  26.535  25.949   0.271
 1760W        W 2624  27.308  26.826   1.143
 1761W        W 2625  28.030  25.865   2.677
 1762W        W 2626  26.809  27.735   2.918
 1763W        W 2627  27.601  27.413   3.204
 1764W        W 2628  28.097  27.546   3.159
 1765W        W 2629  27.434  25.761   3.694
 1766W        W 2630  26.599  26.397   1.844
 1767W        W 2631  26.206  26.169   1.408
 1768W        W 2632  25.810  28.734   1.096
 1769W        W 2633  27.385  28.329   3.215
 1770W        W 2634  26.324  27.682   0.527
 1771W        W 2635  27.977  27.308   1.796
 1772W        W 2636  27.994  26.855   2.081
 1773W        W 2637  27.414  27.489   2.151
 1774W        W 2638  27.802  28.075   0.456
 1775W        W 2639  27.589  26.076   1.595
 1776W        W 2640   0.056  26.447   0.813
 1777W        W 2641  25.725  28.819   2.986
 1778W        W 2642  25.974  28.104   2.524
 1779W        W 2643  25.467  28.897   0.732
 1780W        W 2644  27.153  25.983   2.405
 1781W        W 2645  26.889  28.212   0.480
 1782W        W 2646  28.622  28.698   0.591
 1783W        W 2647  27.507  27.078   0.666
 1784W        W 2648  26.627  26.417   1.099
 1785W        W 2649  27.500  26.283   0.298
 1786W        W 2650  27.783  27.950   3.229
 1787W        W 2651  28.226  25.870   0.914
 1788W        W 2652  25.664  25.707   0.343
 1789W        W 2653  26.908  28.080   2.537
 1790W        W 2654  26.667  27.877   1.788
 1791W        W 2655  26.645  27.845   0.168
 1792W        W 2656  25.607  28.406   0.745
 1793W        W 2657  26.276  27.270   3.376
 1794W        W 2658  26.955  25.885   3.480
 1795W        W 2659  27.508  25.941   2.781
 1796W        W 2660  26.822  25.654   1.144
 1797W        W 2661  27.779  25.563   0.778
 1798W        W 2662  25.790  25.768   2.110
 1799W        W 2663  25.849  26.546   1.390
 1800W        W 2664  28.582  25.586   1.985
 1801W        W 2665  26.111  26.366   0.944
 1802W        W 2666  28.484  25.886   2.411
 1803W        W 2667  28.871  27.074   0.276
 1804W        W 2668  26.219  26.046   1.904
 1805W        W 2669  27.374  26.465   2.838
 1806W        W 2670  25.621  26.221   0.390
 1807W        W 2671  26.306  27.600   2.949
 1808W        W 2672  27.469  26.965   2.070
 1809W        W 2673  27.367  28.963   0.411
 1810W        W 2674  25.599  27.810   0.059
 1811W        W 2675  26.496  27.996   3.270
 1812W        W 2676  25.995  27.173   2.921
 1813W        W 2677  26.885  27.299   2.573
 1814W        W 2678  28.486  25.675   2.890
 1815W        W 2679   0.059  27.336   3.012
 1816W        W 2680   0.010  27.364   0.666
 1817W        W 2681  27.798  27.747   0.863
 1818W        W 2682  28.363  28.969   0.205
 1819W        W 2683  27.524  27.072   3.608
 1820W        W 2684  26.072  27.911   3.554
 1821W        W 2685   0.126  26.149   3.432
 1822W        W 2686  28.776  26.810   2.194
 1823W        W 2687  27.029  28.873   3.457
 1824W        W 2688  26.988  25.740   0.395
 1825W        W 2689  28.250  28.038   0.151
 1826W        W 2690  26.115  26.352   3.278
 1827W        W 2691  26.898  28.229   3.041
 1828W        W 2692  28.791  26.150   2.753
 1829W        W 2693  28.145  28.924   0.674
 1830W        W 2694  28.236  27.628   2.139
 1831W        W 2695  26.651  25.942   2.654
 1832W        W 2696  26.936  27.072   3.415
 1833W        W 2697  26.439  28.084   0.876
 1834W        W 2698  28.265  27.601   1.009
 1835W        W 2699  26.178  26.173   2.759
 1836W        W 2700  27.336  28.308   1.263
 1837W        W 2701   0.247  26.998   1.587
 1838W        W 2702  27.308  25.668   3.167
 1839W        W 2703  28.261  28.225   2.133
 1840W        W 2704  28.524  28.657   1.960
 1841W        W 2705  27.719  28.610   0.563
 1842W        W 2706  25.653  28.169   3.370
 1843W        W 2707  26.426  26.381   2.346
 1844W        W 2708  26.414  25.711   1.474
 1845W        W 2709  28.086  26.169   2.213
 1846W        W 2710  27.105  27.746   0.385
 1847W        W 2711  28.718  27.657   1.946
 1848W        W 2712  26.191  28.407   3.388
 1849W        W 2713  28.510  28.992   1.026
 1850W        W 2714  26.764  26.080   1.470
 1851W        W 2715  26.219  27.439   1.579
 1852W        W 2716  26.610  28.998   2.401
 1853W        W 2717  28.672   0.049   3.312
 1854W        W 2718  27.872  27.306   2.332
 1855W        W 2719  25.873  26.981   0.276
 1856W        W 2720  28.901  28.664   1.095
 1857W        W 2721  28.531  26.184   0.633
 1858W        W 2722  26.768  25.619   3.054
 1859W        W 2723  28.601  28.403   1.415
 1860W        W 2724  28.582  26.984   1.425
 1861W        W 2725  26.926  26.587   1.498
 1862W        W 2726  26.960  26.750   3.006
 1863W        W 2727  28.098  28.017   2.837
 1864W        W 2728  26.588  26.386   2.949
 1865W        W 2729  26.671  28.786   1.652
 1866W        W 2730  26.121  28.919   3.290
 1867W        W 2731  26.371  28.203   0.392
 1868W        W 2732  28.752  28.184   0.961
 1869W        W 2733  26.156  26.685   2.895
 1870W        W 2734   0.286  26.890   0.571
 1871W        W 2735  26.812  27.725   0.821
 1872W        W 2736  27.949  27.153   2.828
 1873W        W 2737  27.678  26.812   2.524
 1874W        W 2738  26.319  27.225   2.516
 1875W        W 2739  28.493  28.883   2.433
 1876W        W 2740  28.250  25.750   3.394
 1877W        W 2741  25.924  25.894   3.117
 1878W        W 2742  26.504  26.880   2.109
 1879W        W 2743  26.757  26.791   0.371
 1880W        W 2744  25.619  28.314   2.866
 1881W        W 2745  26.973  27.162   2.094
 1882W        W 2746  26.977  26.267   0.340
 1883W        W 2747  26.270  27.084   1.190
 1884W        W 2748  25.695  28.999   2.508
 1885W        W 2749  28.513  27.273   0.593
 1886W        W 2750  28.654  26.017   3.253
 1887W        W 2751  28.224  28.076   1.236
 1888W        W 2752  25.599  27.204   3.497
 1889W        W 2753  28.720  25.693   0.603
 1890W        W 2754  28.250  28.057   0.721
 1891W        W 2755  27.006  27.113   0.714
 1892W        W 2756  28.313  25.868   0.299
 1893W        W 2757  28.526  26.393   2.345
 1894W        W 2758  25.936  26.994   1.622
 1895W        W 2759  26.409  27.936   1.362
 1896W        W 2760  28.172  26.663   1.351
 1897W        W 2761  27.126  26.132   1.886
 1898W        W 2762   0.013  28.031   2.565
 1899W        W 2763  28.947  25.954   2.130
 1900W        W 2764  25.543  28.697   1.533
 1901W        W 2765  25.959  28.000   0.717
 1902W        W 2766  26.026  25.960   3.630
 1903W        W 2767  27.205  28.442   3.691
 1904W        W 2768  28.955  27.431   1.537
 1905W        W 2769  28.182  27.638   0.464
 1906W        W 2770  27.642   0.199   2.383
 1907W        W 2771  28.271  27.865   3.561
 1908W        W 2772  27.157  25.474   0.812
 1909W        W 2773  27.937  26.426   1.766
 1910W        W 2774  25.698  27.975   2.081
 1911W        W 2775  26.928  26.055   0.822
 1912W        W 2776  26.721  27.540   3.376
 1913W        W 2777  27.683  26.469   1.294
 1914W        W 2778  27.885  27.945   2.376
 1915W        W 2779  26.129  28.509   2.875
 1916W        W 2780  26.719  28.433   3.502
 1917W        W 2781  26.526  26.335   0.600
 1918W        W 2782  28.085  26.408   0.874
 1919W        W 2783  27.859  28.456   3.003
 1920W        W 2784  26.646  27.064   1.639
 1921W        W 2785  26.127  28.744   2.412
 1922W        W 2786  28.878  28.858   0.189
 1923W        W 2787  25.854  27.560   3.227
 1924W        W 2788  27.765  27.784   1.894
 1925W        W 2789  26.193  27.622   1.024
 1926W        W 2790  26.687  28.544   2.629
 1927W        W 2791  27.187  25.778   1.499
 1928W        W 2792  25.463  27.964   0.539
 1929W        W 2793  27.277  26.740   0.347
 1930W        W 2794  25.829  27.313   1.228
 1931W        W 2795  27.029  26.081   2.969
 1932W        W 2796  28.787  25.756   0.084
 1933W        W 2797  28.840  27.539   3.410
 1934W        W 2798  27.534  28.786   3.383
 1935W        W 2799   0.039  27.871   3.056
 1936W        W 2800  28.500  28.490   3.652
 1937W        W 2801  26.248  28.990   1.970
 1938W        W 2802   0.083  27.762   1.086
 1939W        W 2803  27.703  26.937   1.529
 1940W        W 2804  27.497  25.494   1.215
 1941W        W 2805  26.496  28.471   1.235
 1942W        W 2806  26.913  26.400   2.541
 1943W        W 2807  26.810  25.628   1.805
 1944W        W 2808  25.883  28.295   0.307
 1945W        W 2809  27.447  27.795   1.245
 1946W        W 2810  26.559  28.715   3.110
 1947W        W 2811  26.028  27.245   0.710
 1948W        W 2812  25.738  26.221   1.798
 1949W        W 2813  27.255  27.895   1.751
 1950W        W 2814  25.587  25.867   0.812
 1951W        W 2815  28.193  26.738   2.565
 1952W        W 2816  28.191  26.418   0.319
 1953W        W 2817  28.697  28.166   1.867
 1954W        W 2818  27.321  28.402   1.790
 1955W        W 2819  26.639  28.601   0.760
 1956W        W 2820  27.911  25.553   0.225
 1957W        W 2821  25.778  28.800   1.978
 1958W        W 2822  27.776  26.567   3.488
 1959W        W 2823  25.912  26.497   3.740
 1960W        W 2824  25.860  26.828   0.953
 1961W        W 2825  26.376  26.795   0.770
 1962W        W 2826  27.973  27.051   3.329
 1963W        W 2827  26.509  27.422   2.027
 1964W        W 2828  27.974  25.635   1.315
 1965W        W 2829  27.232  28.886   1.644
 1966W        W 2830  28.258  28.438   2.594
 1967W        W 2831  28.162  28.435   1.671
 1968W        W 2832  27.925  27.655   1.399
 1969W        W 2833  27.398  25.906   0.643
 1970W        W 2834   0.011  25.570   1.250
 1971W        W 2835  26.711  27.351   0.310
 1972W        W 2836  28.951  26.625   1.370
 1973W        W 2837  27.641  27.540   0.399
 1974W        W 2838  28.526  27.810   3.051
 1975W        W 2839  28.194  28.478   0.409
 1976W        W 2840  26.836  26.367   3.389
 1977W        W 2841  26.604  26.807   2.620
 1978W        W 2842  28.680  28.274   2.874
 1979W        W 2843  27.868  26.159   3.081
 1980W        W 2844  25.607  26.831   2.990
 1981W        W 2845  27.447  27.243   2.639
 1982W        W 2846  25.874  27.811   1.387
 1983W        W 2847  26.012  27.180   2.093
 1984W        W 2848  28.232  27.555   2.652
 1985W        W 2849  28.086  28.796   3.330
 1986W        W 2850  27.882  26.656   2.985
 1987W        W 2851  28.108  28.776   1.279
 1988W        W 2852  27.219  28.501   2.498
 1989W        W 2853  26.520  28.576   2.125
 1990W        W 2854  28.496  27.963   2.495
 1991W        W 2855  27.465  27.998   3.624
 1992W        W 2856  26.139  27.888   1.822
 1993W        W 2857  28.421  27.479   1.536
 1994W        W 2858  28.048  28.701   2.162
 1995W        W 2859  26.039  28.367   2.077
 1996W        W 2860  27.254  26.649   3.467
 1997W        W 2861  27.602  28.724   1.114
 1998W        W 2862  26.964  27.981   3.524
 1999W        W 2863  26.909  28.229   1.000
 2000W        W 2864  26.375  26.992   0.097
 2001W        W 2865  25.656   0.210   7.044
 2002W        W 2866  26.021  28.080   6.714
 2003W        W 2867  28.588  27.722   4.373
 2004W        W 2868  28.843  28.831   6.416
 2005W        W 2869  26.830  28.729   3.916
 2006W        W 2870  26.743  26.916   4.721
 2007W        W 2871  26.291  26.935   4.993
 2008W        W 2872  27.236  27.503   4.426
 2009W        W 2873  27.043  28.695   6.824
 2010W        W 2874  25.667  26.227   6.714
 2011W        W 2875  26.343  25.408   6.530
 2012W        W 2876  28.044  26.102   5.402
 2013W        W 2877  27.737  26.690   4.007
 2014W        W 2878  28.342  26.272   7.031
 2015W        W 2879  25.731  26.053   6.239
 2016W        W 2880  25.792  28.746   7.206
 2017W        W 2881  27.312  28.023   4.276
 2018W        W 2882  25.830  26.799   5.758
 2019W        W 2883  26.590  27.003   7.070
 2020W        W 2884  28.810  26.596   5.412
 2021W        W 2885  28.680  27.579   6.199
 2022W        W 2886  27.134  26.896   5.282
 2023W        W 2887  27.649  28.362   5.687
 2024W        W 2888  26.114  27.712   5.973
 2025W        W 2889  25.512  27.169   5.616
 2026W        W 2890  26.574  27.260   6.623
 2027W        W 2891  28.738  27.022   6.893
 2028W        W 2892  26.433  28.296   5.324
 2029W        W 2893  27.425  28.114   6.369
 2030W        W 2894  26.839  26.671   5.675
 2031W        W 2895  27.042  27.430   5.334
 2032W        W 2896  27.973  28.314   7.178
 2033W        W 2897  27.283  27.546   7.207
 2034W        W 2898  27.103  27.346   6.643
 2035W        W 2899  25.568  26.759   7.147
 2036W        W 2900  28.278  28.201   6.760
 2037W        W 2901  25.972  25.730   4.790
 2038W        W 2902  26.488  28.054   5.814
 2039W        W 2903  28.773  27.924   5.241
 2040W        W 2904  28.544  26.151   5.572
 2041W        W 2905  28.666  26.327   3.683
 2042W        W 2906   0.040  26.992   6.122
 2043W        W 2907  27.196  28.660   5.801
 2044W        W 2908  28.696  28.222   4.500
 2045W        W 2909  25.940   0.018   4.245
 2046W        W 2910  26.302  28.876   4.594
 2047W        W 2911  26.169  25.861   6.058
 2048W        W 2912  28.692  26.671   6.356
 2049W        W 2913  28.044  27.189   5.026
 2050W        W 2914  28.037  27.064   3.832
 2051W        W 2915  27.314  28.036   5.864
 2052W        W 2916  27.191  26.365   5.255
 2053W        W 2917  27.680  28.526   6.201
 2054W        W 2918  28.680  27.320   4.722
 2055W        W 2919  27.714  25.984   4.575
 2056W        W 2920  26.092  28.500   4.288
 2057W        W 2921  25.647  26.110   4.938
 2058W        W 2922  28.272  26.593   5.474
 2059W        W 2923  25.904  28.295   5.297
 2060W        W 2924  27.160  28.552   4.290
 2061W        W 2925  28.426  26.787   3.632
 2062W        W 2926  25.677  28.498   6.012
 2063W        W 2927  26.466  28.127   6.421
 2064W        W 2928  26.674  27.387   4.942
 2065W        W 2929  26.631  25.952   5.884
 2066W        W 2930   0.110  25.580   5.355
 2067W        W 2931  26.006  27.435   3.788
 2068W        W 2932  26.070  26.614   4.217
 2069W        W 2933  26.069  28.290   4.761
 2070W        W 2934  27.026  27.761   4.922
 2071W        W 2935  28.396  28.754   6.672
 2072W        W 2936  27.446  26.410   4.348
 2073W        W 2937  28.666  28.858   5.267
 2074W        W 2938  28.334  26.725   6.764
 2075W        W 2939   0.028  28.259   4.933
 2076W        W 2940  27.639  27.631   6.446
 2077W        W 2941  25.407  27.299   4.515
 2078W        W 2942  26.606  27.693   6.154
 2079W        W 2943  27.714  26.859   4.514
 2080W        W 2944  27.668  27.351   4.697
 2081W        W 2945  26.082  26.795   6.213
 2082W        W 2946  26.036  27.016   7.083
 2083W        W 2947  25.916  25.752   5.290
 2084W        W 2948  27.536  26.109   5.584
 2085W        W 2949  27.433  26.170   6.952
 2086W        W 2950  27.840  25.971   4.078
 2087W        W 2951  28.873  28.697   6.920
 2088W        W 2952  27.848  25.678   6.831
 2089W        W 2953  28.712  28.073   7.024
 2090W        W 2954  28.377  26.269   6.500
 2091W        W 2955  28.086  26.157   4.873
 2092W        W 2956  28.418  27.359   7.158
 2093W        W 2957  26.121  28.708   5.065
 2094W        W 2958  26.933  26.475   4.399
 2095W        W 2959  26.479  25.954   6.934
 2096W        W 2960  28.427  26.478   4.611
 2097W        W 2961  28.757  26.855   4.513
 2098W        W 2962  26.682  28.922   7.133
 2099W        W 2963  26.522  25.573   4.231
 2100W        W 2964  28.923  26.048   5.186
 2101W        W 2965  28.990  28.358   3.858
 2102W        W 2966  25.743  27.535   5.354
 2103W        W 2967  27.865  26.039   3.571
 2104W        W 2968  28.908  28.389   5.437
 2105W        W 2969  28.911  25.687   6.106
 2106W        W 2970  27.401  26.942   6.574
 2107W        W 2971  27.741  28.242   4.480
 2108W        W 2972  27.819  27.578   7.266
 2109W        W 2973  27.697  25.638   5.412
 2110W        W 2974  26.193  26.603   5.418
 2111W        W 2975  25.789  27.635   6.373
 2112W        W 2976  27.702  28.674   4.997
 2113W        W 2977  28.840  26.375   5.939
 2114W        W 2978  27.503  28.840   6.611
 2115W        W 2979  28.697  27.652   3.879
 2116W        W 2980  27.171  27.229   4.869
 2117W        W 2981   0.062  25.690   6.593
 2118W        W 2982  27.145  27.698   6.245
 2119W        W 2983  27.358  26.634   5.690
 2120W        W 2984  28.264  26.980   4.615
 2121W        W 2985  28.331  26.744   4.162
 2122W        W 2986  28.285  28.555   4.528
 2123W        W 2987  28.258  27.998   5.360
 2124W        W 2988  27.984  27.243   4.293
 2125W        W 2989  27.541  27.476   5.191
 2126W        W 2990  28.429  27.104   5.456
 2127W        W 2991  25.948  26.336   5.895
 2128W        W 2992  28.413  27.219   6.533
 2129W        W 2993  28.899  28.828   5.736
 2130W        W 2994  26.904  28.238   5.081
 2131W        W 2995  27.996  28.967   6.375
 2132W        W 2996  27.902  26.354   6.275
 2133W        W 2997  27.180   0.118   6.286
 2134W        W 2998  28.690  26.044   4.708
 2135W        W 2999  28.359  27.248   5.986
 2136W        W 3000  25.610  26.573   6.246
 2137W        W 3001  28.492  26.342   5.099
 2138W        W 3002  28.796  26.487   6.837
 2139W        W 3003  27.653  28.171   5.141
 2140W        W 3004  26.979  28.724   4.753
 2141W        W 3005  26.086  25.944   4.147
 2142W        W 3006  27.312  25.686   5.786
 2143W        W 3007  26.139  28.801   3.813
 2144W        W 3008  26.752  27.244   4.311
 2145W        W 3009  27.290  27.820   6.774
 2146W        W 3010  27.236  26.097   4.734
 2147W        W 3011  28.431  25.836   5.143
 2148W        W 3012  28.206  28.972   5.475
 2149W        W 3013  27.635  28.852   5.507
 2150W        W 3014  26.936  27.709   5.765
 2151W        W 3015  28.739  28.451   6.061
 2152W        W 3016  26.403  25.937   4.601
 2153W        W 3017  26.919  28.220   5.594
 2154W        W 3018  26.412  26.382   3.696
 2155W        W 3019  27.126  26.778   6.150
 2156W        W 3020  28.093  25.690   5.834
 2157W        W 3021  25.579  27.590   5.897
 2158W        W 3022  27.072  27.171   3.908
 2159W        W 3023  26.516  25.905   3.829
 2160W        W 3024  27.169  26.638   4.827
 2161W        W 3025  28.060  25.867   6.365
 2162W        W 3026  26.787  27.745   6.620
 2163W        W 3027  27.576  27.329   6.859
 2164W        W 3028  28.053  27.517   6.795
 2165W        W 3029  27.444  25.829   7.344
 2166W        W 3030  26.719  26.110   5.350
 2167W        W 3031  26.202  26.242   5.042
 2168W        W 3032  25.784  28.721   4.658
 2169W        W 3033  27.439  28.350   6.834
 2170W        W 3034  26.345  27.566   4.183
 2171W        W 3035  27.995  27.401   5.482
 2172W        W 3036  28.034  26.926   5.765
 2173W        W 3037  27.425  27.539   5.716
 2174W        W 3038  27.882  28.003   3.930
 2175W        W 3039  27.626  26.032   5.087
 2176W        W 3040   0.095  26.462   4.409
 2177W        W 3041  25.768  28.864   6.677
 2178W        W 3042  25.997  28.143   6.201
 2179W        W 3043  25.418  28.902   4.325
 2180W        W 3044  27.413  26.316   6.088
 2181W        W 3045  26.871  28.191   4.018
 2182W        W 3046  28.623  28.628   4.149
 2183W        W 3047  27.529  27.146   4.119
 2184W        W 3048  26.387  26.551   4.649
 2185W        W 3049  27.474  26.274   3.823
 2186W        W 3050  27.797  27.958   6.840
 2187W        W 3051  28.248  25.985   4.417
 2188W        W 3052  25.674  25.652   3.969
 2189W        W 3053  26.897  28.144   6.133
 2190W        W 3054  26.678  27.813   5.330
 2191W        W 3055  26.530  27.843   3.780
 2192W        W 3056  25.595  28.307   4.398
 2193W        W 3057  26.302  27.471   7.041
 2194W        W 3058  26.970  25.955   7.120
 2195W        W 3059  27.541  25.972   6.468
 2196W        W 3060  26.860  25.722   4.849
 2197W        W 3061  27.632  25.535   4.356
 2198W        W 3062  25.752  25.867   5.761
 2199W        W 3063  25.831  26.603   4.949
 2200W        W 3064  28.630  25.642   5.614
 2201W        W 3065  25.993  26.233   4.567
 2202W        W 3066  28.488  25.951   6.061
 2203W        W 3067  28.826  27.164   3.807
 2204W        W 3068  26.238  26.082   5.551
 2205W        W 3069  27.251  26.459   6.564
 2206W        W 3070  25.615  26.156   3.972
 2207W        W 3071  26.271  27.668   6.549
 2208W        W 3072  27.584  27.072   5.537
 2209W        W 3073  27.348  28.894   3.926
 2210W        W 3074  25.591  27.726   3.628
 2211W        W 3075  26.485  28.007   6.936
 2212W        W 3076  26.041  27.212   6.598
 2213W        W 3077  26.856  27.244   6.188
 2214W        W 3078  28.536  25.669   6.505
 2215W        W 3079  28.977  27.324   6.535
 2216W        W 3080  28.988  27.409   4.281
 2217W        W 3081  27.794  27.725   4.363
 2218W        W 3082  28.362  28.970   3.734
 2219W        W 3083  27.588  27.109   7.326
 2220W        W 3084  26.069  27.921   7.243
 2221W        W 3085   0.160  26.219   7.141
 2222W        W 3086  28.618  26.828   5.847
 2223W        W 3087  27.191  28.964   7.236
 2224W        W 3088  26.962  25.673   3.950
 2225W        W 3089  28.533  28.114   4.003
 2226W        W 3090  26.136  26.350   6.867
 2227W        W 3091  26.962  28.216   6.653
 2228W        W 3092  28.867  26.150   6.405
 2229W        W 3093  28.161  28.940   4.208
 2230W        W 3094  28.232  27.717   5.809
 2231W        W 3095  26.548  25.896   6.414
 2232W        W 3096  27.114  27.057   7.097
 2233W        W 3097  26.430  28.069   4.341
 2234W        W 3098  28.205  27.519   4.644
 2235W        W 3099  26.209  26.307   6.356
 2236W        W 3100  27.337  28.358   4.776
 2237W        W 3101   0.071  26.986   4.959
 2238W        W 3102  27.336  25.671   6.839
 2239W        W 3103  28.116  28.209   5.848
 2240W        W 3104  28.458  28.544   5.636
 2241W        W 3105  27.600  28.435   4.020
 2242W        W 3106  25.683  28.232   7.062
 2243W        W 3107  26.444  26.428   5.893
 2244W        W 3108  26.401  25.784   5.106
 2245W        W 3109  27.852  26.450   5.783
 2246W        W 3110  26.953  27.667   4.009
 2247W        W 3111  28.680  27.546   5.612
 2248W        W 3112  26.173  28.412   7.101
 2249W        W 3113  28.476   0.066   4.608
 2250W        W 3114  26.753  26.233   4.837
 2251W        W 3115  26.230  27.407   5.216
 2252W        W 3116  26.751   0.031   6.026
 2253W        W 3117  28.637   0.144   6.922
 2254W        W 3118  27.842  27.346   5.973
 2255W        W 3119  25.795  26.993   3.954
 2256W        W 3120  28.755  28.667   4.777
 2257W        W 3121  28.652  26.231   4.197
 2258W        W 3122  26.802  25.550   6.769
 2259W        W 3123  28.512  28.375   5.119
 2260W        W 3124  28.565  26.864   5.017
 2261W        W 3125  26.686  26.613   5.166
 2262W        W 3126  26.895  26.848   6.656
 2263W        W 3127  27.957  28.100   6.376
 2264W        W 3128  26.646  26.375   6.671
 2265W        W 3129  26.703  28.738   5.223
 2266W        W 3130  26.228  28.888   6.889
 2267W        W 3131  26.385  28.341   3.883
 2268W        W 3132  28.446  27.930   4.843
 2269W        W 3133  26.334  26.790   6.678
 2270W        W 3134  28.838  26.698   4.024
 2271W        W 3135  26.742  27.701   4.505
 2272W        W 3136  27.872  27.169   6.458
 2273W        W 3137  27.661  26.807   6.125
 2274W        W 3138  26.313  27.266   6.166
 2275W        W 3139  28.465  28.909   6.015
 2276W        W 3140  28.305  25.756   7.051
 2277W        W 3141  26.039  25.853   6.604
 2278W        W 3142  26.373  26.930   5.779
 2279W        W 3143  26.779  26.735   3.751
 2280W        W 3144  25.660  28.393   6.517
 2281W        W 3145  27.093  27.124   5.747
 2282W        W 3146  26.940  26.229   3.908
 2283W        W 3147  26.248  27.066   4.483
 2284W        W 3148  25.765  28.974   6.169
 2285W        W 3149  28.502  27.231   4.212
 2286W        W 3150  28.753  25.984   6.888
 2287W        W 3151  28.067  28.267   4.884
 2288W        W 3152  25.578  27.274   7.207
 2289W        W 3153  28.635  25.685   4.215
 2290W        W 3154  28.199  28.049   4.392
 2291W        W 3155  27.174  26.956   4.425
 2292W        W 3156  28.321  25.926   3.880
 2293W        W 3157  28.327  26.424   5.975
 2294W        W 3158  25.868  27.016   5.278
 2295W        W 3159  26.480  27.964   4.879
 2296W        W 3160  28.080  26.667   4.981
 2297W        W 3161  27.057  26.186   5.729
 2298W        W 3162  28.993  27.977   6.087
 2299W        W 3163   0.030  25.980   5.688
 2300W        W 3164  25.583  28.704   5.140
 2301W        W 3165  25.964  27.898   4.447
 2302W        W 3166  26.062  26.026   7.266
 2303W        W 3167  27.167  28.443   7.273
 2304W        W 3168  28.943  27.449   5.154
 2305W        W 3169  28.207  27.623   4.031
 2306W        W 3170  27.610   0.011   6.019
 2307W        W 3171  28.243  27.852   7.134
 2308W        W 3172  27.112  25.516   4.427
 2309W        W 3173  27.702  26.526   5.309
 2310W        W 3174  25.767  28.043   5.738
 2311W        W 3175  26.858  25.964   4.375
 2312W        W 3176  26.807  27.484   7.056
 2313W        W 3177  27.646  26.449   4.809
 2314W        W 3178  27.756  27.846   6.004
 2315W        W 3179  26.143  28.590   6.440
 2316W        W 3180  26.664  28.400   7.247
 2317W        W 3181  26.479  26.274   4.207
 2318W        W 3182  27.968  26.415   4.386
 2319W        W 3183  27.900  28.520   6.672
 2320W        W 3184  26.648  27.088   5.369
 2321W        W 3185  26.247  28.874   6.004
 2322W        W 3186  28.865  28.867   3.758
 2323W        W 3187  25.828  27.615   6.902
 2324W        W 3188  27.779  27.864   5.510
 2325W        W 3189  26.255  27.541   4.690
 2326W        W 3190  26.635  28.583   6.251
 2327W        W 3191  27.181  25.849   5.262
 2328W        W 3192  25.546  27.856   4.145
 2329W        W 3193  27.222  26.691   3.987
 2330W        W 3194  25.814  27.334   4.854
 2331W        W 3195  27.020  26.002   6.602
 2332W        W 3196  28.824  25.834   3.747
 2333W        W 3197  28.881  27.559   6.986
 2334W        W 3198  27.615  28.672   7.230
 2335W        W 3199  28.986  27.884   6.592
 2336W        W 3200  28.439  28.542   7.139
 2337W        W 3201  26.288  28.923   5.497
 2338W        W 3202  28.935  27.783   4.736
 2339W        W 3203  27.584  26.940   5.017
 2340W        W 3204  27.426  25.598   4.860
 2341W        W 3205  26.531  28.474   4.823
 2342W        W 3206  26.866  26.321   6.200
 2343W        W 3207  26.857  25.615   5.581
 2344W        W 3208  25.679  28.628   3.996
 2345W        W 3209  27.500  27.849   4.765
 2346W        W 3210  26.555  28.515   6.760
 2347W        W 3211  25.867  27.399   4.316
 2348W        W 3212  25.779  26.265   5.408
 2349W        W 3213  27.261  27.909   5.359
 2350W        W 3214  25.619  25.893   4.431
 2351W        W 3215  28.188  26.817   6.262
 2352W        W 3216  28.126  26.392   3.858
 2353W        W 3217  28.628  28.056   5.729
 2354W        W 3218  27.293  28.470   5.320
 2355W        W 3219  26.614  28.538   4.327
 2356W        W 3220  27.915  25.541   3.755
 2357W        W 3221  25.807  28.792   5.596
 2358W        W 3222  27.950  26.568   7.167
 2359W        W 3223  26.002  26.538   7.344
 2360W        W 3224  25.742  26.900   4.506
 2361W        W 3225  26.571  26.782   4.208
 2362W        W 3226  28.003  27.053   6.997
 2363W        W 3227  26.486  27.469   5.689
 2364W        W 3228  27.969  25.650   4.942
 2365W        W 3229  27.164  28.957   5.285
 2366W        W 3230  28.249  28.505   6.261
 2367W        W 3231  28.027  28.480   5.365
 2368W        W 3232  27.951  27.747   5.021
 2369W        W 3233  27.336  25.932   4.196
 2370W        W 3234  28.991  25.627   4.804
 2371W        W 3235  26.585  27.295   3.807
 2372W        W 3236  28.923  26.494   4.884
 2373W        W 3237  27.476  27.627   3.972
 2374W        W 3238  28.501  27.733   6.674
 2375W        W 3239  28.127  28.453   4.027
 2376W        W 3240  27.004  26.497   7.041
 2377W        W 3241  26.604  26.788   6.232
 2378W        W 3242  28.719  28.342   6.569
 2379W        W 3243  27.918  26.194   6.756
 2380W        W 3244  25.808  26.751   6.685
 2381W        W 3245  27.382  27.251   6.170
 2382W        W 3246  25.940  27.844   4.988
 2383W        W 3247  26.001  27.284   5.725
 2384W        W 3248  28.146  27.615   6.303
 2385W        W 3249  28.038  28.854   7.025
 2386W        W 3250  27.834  26.690   6.653
 2387W        W 3251  28.217  28.785   4.982
 2388W        W 3252  27.158  28.577   6.320
 2389W        W 3253  26.633  28.615   5.730
 2390W        W 3254  28.458  28.035   6.230
 2391W        W 3255  27.490  28.028   7.244
 2392W        W 3256  26.164  27.856   5.462
 2393W        W 3257  28.419  27.527   5.154
 2394W        W 3258  28.005  28.716   5.858
 2395W        W 3259  26.136  28.425   5.753
 2396W        W 3260  27.476  26.695   7.029
 2397W        W 3261  27.632  28.752   4.466
 2398W        W 3262  26.967  27.978   7.148
 2399W        W 3263  26.898  28.182   4.568
 2400W        W 3264  26.272  26.886   3.783
 2401W        W 3265  25.496   0.144  10.607
 2402W        W 3266  25.968  28.070  10.245
 2403W        W 3267  28.626  27.780   7.947
 2404W        W 3268  28.848  28.788  10.062
 2405W        W 3269  26.878  28.742   7.588
 2406W        W 3270  26.612  27.024   8.472
 2407W        W 3271  26.283  27.051   8.871
 2408W        W 3272  27.255  27.504   8.096
 2409W        W 3273  27.051  28.704  10.475
 2410W        W 3274  25.652  26.286  10.279
 2411W        W 3275  26.260  25.536  10.103
 2412W        W 3276  28.049  26.148   9.043
 2413W        W 3277  27.838  26.728   7.661
 2414W        W 3278  28.297  26.295  10.682
 2415W        W 3279  25.731  25.997   9.873
 2416W        W 3280  25.714  28.707  10.783
 2417W        W 3281  27.300  28.022   7.997
 2418W        W 3282  25.673  26.706   9.348
 2419W        W 3283  26.541  26.896  10.635
 2420W        W 3284  28.796  26.631   9.051
 2421W        W 3285  28.777  27.552   9.958
 2422W        W 3286  27.295  26.926   8.906
 2423W        W 3287  27.724  28.269   9.287
 2424W        W 3288  25.989  27.593   9.494
 2425W        W 3289  25.410  27.125   9.245
 2426W        W 3290  26.556  27.197  10.183
 2427W        W 3291  28.776  26.976  10.656
 2428W        W 3292  26.410  28.368   8.978
 2429W        W 3293  27.552  28.082  10.099
 2430W        W 3294  26.876  26.618   9.362
 2431W        W 3295  27.038  27.509   9.081
 2432W        W 3296  27.889  28.341  10.820
 2433W        W 3297  27.124  27.485  10.815
 2434W        W 3298  27.058  27.338  10.282
 2435W        W 3299  25.511  26.747  10.885
 2436W        W 3300  28.305  28.235  10.519
 2437W        W 3301  25.974  25.872   8.469
 2438W        W 3302  26.569  28.200   9.481
 2439W        W 3303  28.745  27.903   8.754
 2440W        W 3304  28.510  26.257   9.278
 2441W        W 3305  28.713  26.350   7.355
 2442W        W 3306  28.997  27.099   9.791
 2443W        W 3307  27.018  28.701   9.643
 2444W        W 3308  28.744  28.285   7.858
 2445W        W 3309  26.091  28.993   7.897
 2446W        W 3310  26.346  28.867   8.322
 2447W        W 3311  26.170  25.857   9.661
 2448W        W 3312  28.756  26.693  10.056
 2449W        W 3313  28.163  27.186   8.489
 2450W        W 3314  28.073  27.164   7.506
 2451W        W 3315  27.364  28.110   9.609
 2452W        W 3316  27.142  26.426   8.935
 2453W        W 3317  27.731  28.447   9.791
 2454W        W 3318  28.632  27.332   8.257
 2455W        W 3319  27.672  26.052   8.219
 2456W        W 3320  26.139  28.464   8.047
 2457W        W 3321  25.521  26.084   8.607
 2458W        W 3322  28.240  26.663   9.062
 2459W        W 3323  25.885  28.368   9.020
 2460W        W 3324  27.171  28.539   7.983
 2461W        W 3325  28.443  26.818   7.289
 2462W        W 3326  25.646  28.488   9.600
 2463W        W 3327  26.414  28.139  10.001
 2464W        W 3328  26.648  27.476   8.750
 2465W        W 3329  26.659  25.942   9.594
 2466W        W 3330   0.162  25.585   8.997
 2467W        W 3331  26.009  27.454   7.482
 2468W        W 3332  26.080  26.630   7.854
 2469W        W 3333  26.014  28.299   8.519
 2470W        W 3334  27.034  27.824   8.663
 2471W        W 3335  28.393  28.692  10.280
 2472W        W 3336  27.506  26.490   7.995
 2473W        W 3337  28.662  28.905   8.819
 2474W        W 3338  28.344  26.757  10.413
 2475W        W 3339   0.124  28.204   8.571
 2476W        W 3340  27.716  27.608  10.060
 2477W        W 3341  25.454  27.320   8.231
 2478W        W 3342  26.455  27.740   9.679
 2479W        W 3343  27.823  26.897   8.165
 2480W        W 3344  27.667  27.343   8.351
 2481W        W 3345  26.055  26.782   9.717
 2482W        W 3346  26.007  26.820  10.715
 2483W        W 3347  25.950  25.678   8.935
 2484W        W 3348  27.557  26.165   9.209
 2485W        W 3349  27.404  26.127  10.619
 2486W        W 3350  27.842  26.091   7.736
 2487W        W 3351  28.768  28.505  10.604
 2488W        W 3352  27.732  25.680  10.554
 2489W        W 3353  28.712  27.993  10.762
 2490W        W 3354  28.375  26.252  10.183
 2491W        W 3355  28.053  26.152   8.522
 2492W        W 3356  28.384  27.314  10.855
 2493W        W 3357  26.100  28.755   8.755
 2494W        W 3358  26.972  26.611   7.987
 2495W        W 3359  26.462  26.001  10.605
 2496W        W 3360  28.489  26.440   8.265
 2497W        W 3361  28.836  26.840   8.236
 2498W        W 3362  26.620  28.847  10.747
 2499W        W 3363  26.557  25.681   7.886
 2500W        W 3364  28.854  25.961   8.822
 2501W        W 3365  28.879  28.405   7.382
 2502W        W 3366  25.698  27.495   9.069
 2503W        W 3367  27.905  26.040   7.235
 2504W        W 3368  28.972  28.526   9.031
 2505W        W 3369  28.908  25.779   9.744
 2506W        W 3370  27.412  26.954  10.272
 2507W        W 3371  27.750  28.244   8.136
 2508W        W 3372  27.835  27.510  10.922
 2509W        W 3373  27.742  25.732   8.935
 2510W        W 3374  26.094  26.607   9.089
 2511W        W 3375  25.742  27.674   9.936
 2512W        W 3376  27.751  28.603   8.586
 2513W        W 3377  28.846  26.349   9.664
 2514W        W 3378  27.575  28.843  10.290
 2515W        W 3379  28.743  27.756   7.444
 2516W        W 3380  27.093  27.275   8.549
 2517W        W 3381   0.084  25.744  10.261
 2518W        W 3382  27.225  27.714   9.916
 2519W        W 3383  27.393  26.648   9.350
 2520W        W 3384  28.330  26.886   8.111
 2521W        W 3385  28.649  26.653   7.774
 2522W        W 3386  28.382  28.554   8.126
 2523W        W 3387  28.253  27.966   8.939
 2524W        W 3388  28.120  27.341   8.008
 2525W        W 3389  27.490  27.472   8.863
 2526W        W 3390  28.522  27.097   9.092
 2527W        W 3391  25.913  26.307   9.527
 2528W        W 3392  28.514  27.266  10.332
 2529W        W 3393  28.958  28.819   9.477
 2530W        W 3394  26.909  28.327   8.786
 2531W        W 3395  28.005  28.857   9.985
 2532W        W 3396  27.907  26.325   9.932
 2533W        W 3397  27.185   0.059   9.992
 2534W        W 3398  28.684  25.991   8.348
 2535W        W 3399  28.551  27.309   9.567
 2536W        W 3400  25.569  26.558   9.847
 2537W        W 3401  28.465  26.313   8.767
 2538W        W 3402  28.778  26.477  10.540
 2539W        W 3403  27.737  28.115   8.786
 2540W        W 3404  26.930  28.685   8.401
 2541W        W 3405  26.172  26.066   7.799
 2542W        W 3406  27.421  25.729   9.431
 2543W        W 3407  26.338  28.748   7.501
 2544W        W 3408  26.842  27.181   8.015
 2545W        W 3409  27.245  27.813  10.426
 2546W        W 3410  27.197  26.220   8.335
 2547W        W 3411  28.351  25.801   8.741
 2548W        W 3412  28.179  28.978   9.034
 2549W        W 3413  27.471  28.700   9.416
 2550W        W 3414  26.940  27.816   9.490
 2551W        W 3415  28.717  28.410   9.669
 2552W        W 3416  26.410  26.031   8.252
 2553W        W 3417  27.020  28.331   9.289
 2554W        W 3418  26.511  26.483   7.200
 2555W        W 3419  27.158  26.770   9.806
 2556W        W 3420  27.918  25.963   9.535
 2557W        W 3421  25.456  27.559   9.519
 2558W        W 3422  27.162  27.257   7.614
 2559W        W 3423  26.560  26.021   7.459
 2560W        W 3424  27.004  26.702   8.513
 2561W        W 3425  28.066  25.847  10.049
 2562W        W 3426  26.762  27.762  10.130
 2563W        W 3427  27.554  27.396  10.501
 2564W        W 3428  28.072  27.515  10.446
 2565W        W 3429  27.427  25.767  10.996
 2566W        W 3430  26.673  26.134   9.099
 2567W        W 3431  26.228  26.315   8.668
 2568W        W 3432  25.806  28.750   8.316
 2569W        W 3433  27.433  28.346  10.528
 2570W        W 3434  26.393  27.556   7.878
 2571W        W 3435  28.061  27.326   9.082
 2572W        W 3436  28.129  26.964   9.467
 2573W        W 3437  27.409  27.578   9.442
 2574W        W 3438  27.890  28.001   7.581
 2575W        W 3439  27.555  26.159   8.705
 2576W        W 3440  28.985  26.368   8.099
 2577W        W 3441  25.727  28.859  10.247
 2578W        W 3442  25.975  28.079   9.718
 2579W        W 3443  25.424  28.896   7.964
 2580W        W 3444  27.451  26.293   9.713
 2581W        W 3445  26.914  28.196   7.661
 2582W        W 3446  28.484  28.676   7.638
 2583W        W 3447  27.643  27.237   7.824
 2584W        W 3448  26.465  26.562   8.250
 2585W        W 3449  27.526  26.351   7.431
 2586W        W 3450  27.769  27.914  10.545
 2587W        W 3451  28.220  25.926   8.084
 2588W        W 3452  25.697  25.790   7.597
 2589W        W 3453  26.916  28.190   9.858
 2590W        W 3454  26.683  27.911   9.054
 2591W        W 3455  26.548  27.798   7.411
 2592W        W 3456  25.643  28.271   8.149
 2593W        W 3457  26.184  27.274  10.543
 2594W        W 3458  26.944  25.930  10.793
 2595W        W 3459  27.551  25.933  10.083
 2596W        W 3460  26.865  25.766   8.395
 2597W        W 3461  27.711  25.636   7.933
 2598W        W 3462  25.731  25.816   9.388
 2599W        W 3463  25.757  26.534   8.654
 2600W        W 3464  28.669  25.742   9.271
 2601W        W 3465  25.955  26.321   8.225
 2602W        W 3466  28.434  25.987   9.713
 2603W        W 3467  28.879  27.205   7.366
 2604W        W 3468  26.166  26.093   9.146
 2605W        W 3469  27.346  26.441  10.201
 2606W        W 3470  25.721  26.285   7.729
 2607W        W 3471  26.255  27.641  10.157
 2608W        W 3472  27.629  27.101   9.272
 2609W        W 3473  27.423  28.882   7.675
 2610W        W 3474  25.558  27.788   7.347
 2611W        W 3475  26.459  28.019  10.500
 2612W        W 3476  25.961  27.219  10.079
 2613W        W 3477  26.849  27.364   9.772
 2614W        W 3478  28.572  25.730  10.155
 2615W        W 3479   0.047  27.265  10.293
 2616W        W 3480  28.974  27.443   7.814
 2617W        W 3481  27.810  27.742   8.036
 2618W        W 3482  28.363   0.074   7.342
 2619W        W 3483  27.514  27.100  10.934
 2620W        W 3484  26.050  27.913  10.793
 2621W        W 3485   0.167  26.167  10.785
 2622W        W 3486  28.670  26.816   9.509
 2623W        W 3487  27.087  28.892  10.966
 2624W        W 3488  26.980  25.753   7.603
 2625W        W 3489  28.399  28.169   7.495
 2626W        W 3490  26.085  26.363  10.522
 2627W        W 3491  26.930  28.213  10.384
 2628W        W 3492  28.880  26.184  10.134
 2629W        W 3493  28.128  28.973   7.916
 2630W        W 3494  28.263  27.698   9.395
 2631W        W 3495  26.490  25.987  10.082
 2632W        W 3496  27.046  26.992  10.727
 2633W        W 3497  26.437  28.029   8.091
 2634W        W 3498  28.290  27.730   8.331
 2635W        W 3499  26.117  26.336  10.000
 2636W        W 3500  27.336  28.332   8.449
 2637W        W 3501   0.067  26.934   8.712
 2638W        W 3502  27.238  25.685  10.413
 2639W        W 3503  28.221  28.220   9.409
 2640W        W 3504  28.505  28.632   9.248
 2641W        W 3505  27.513  28.355   7.652
 2642W        W 3506  25.634  28.191  10.631
 2643W        W 3507  26.419  26.399   9.516
 2644W        W 3508  26.426  25.846   8.742
 2645W        W 3509  27.904  26.483   9.435
 2646W        W 3510  26.913  27.690   7.764
 2647W        W 3511  28.727  27.596   9.176
 2648W        W 3512  26.109  28.403  10.619
 2649W        W 3513  28.544   0.031   8.260
 2650W        W 3514  26.751  26.239   8.586
 2651W        W 3515  26.193  27.541   8.968
 2652W        W 3516  26.697   0.078   9.781
 2653W        W 3517  28.669   0.012  10.581
 2654W        W 3518  27.877  27.403   9.603
 2655W        W 3519  25.813  26.983   7.566
 2656W        W 3520  28.832  28.617   8.418
 2657W        W 3521  28.633  26.133   7.826
 2658W        W 3522  26.712  25.591  10.440
 2659W        W 3523  28.546  28.383   8.783
 2660W        W 3524  28.537  26.840   8.643
 2661W        W 3525  26.588  26.608   8.903
 2662W        W 3526  26.915  26.801  10.263
 2663W        W 3527  28.076  27.978  10.131
 2664W        W 3528  26.556  26.441  10.320
 2665W        W 3529  26.627  28.813   8.802
 2666W        W 3530  26.156  28.906  10.529
 2667W        W 3531  26.337  28.234   7.611
 2668W        W 3532  28.636  28.139   8.325
 2669W        W 3533  26.204  26.802  10.233
 2670W        W 3534   0.078  26.936   7.800
 2671W        W 3535  26.758  27.635   8.265
 2672W        W 3536  27.895  27.137  10.125
 2673W        W 3537  27.683  26.785   9.798
 2674W        W 3538  26.323  27.241   9.717
 2675W        W 3539  28.459  28.870   9.717
 2676W        W 3540  28.232  25.785  10.552
 2677W        W 3541  25.989  25.896  10.333
 2678W        W 3542  26.450  26.900   9.345
 2679W        W 3543  26.839  26.807   7.482
 2680W        W 3544  25.581  28.380  10.107
 2681W        W 3545  27.118  27.104   9.399
 2682W        W 3546  27.010  26.305   7.527
 2683W        W 3547  26.054  26.912   8.422
 2684W        W 3548  25.702   0.008   9.734
 2685W        W 3549  28.537  27.182   7.741
 2686W        W 3550  28.721  25.964  10.590
 2687W        W 3551  28.143  28.232   8.485
 2688W        W 3552  25.669  27.190  10.642
 2689W        W 3553  28.658  25.616   7.841
 2690W        W 3554  28.219  28.092   7.971
 2691W        W 3555  27.309  26.979   8.144
 2692W        W 3556  28.276  25.876   7.566
 2693W        W 3557  28.339  26.504   9.724
 2694W        W 3558  25.746  26.992   8.876
 2695W        W 3559  26.390  27.916   8.621
 2696W        W 3560  28.067  26.659   8.554
 2697W        W 3561  27.086  26.145   9.389
 2698W        W 3562   0.002  28.012   9.847
 2699W        W 3563   0.045  26.175   9.237
 2700W        W 3564  25.577  28.763   8.810
 2701W        W 3565  26.000  27.829   8.277
 2702W        W 3566  26.053  26.023  10.914
 2703W        W 3567  27.069  28.393  10.910
 2704W        W 3568   0.000  27.448   8.749
 2705W        W 3569  28.257  27.642   7.609
 2706W        W 3570  27.655   0.106   9.705
 2707W        W 3571  28.227  27.839  10.839
 2708W        W 3572  27.193  25.568   8.055
 2709W        W 3573  27.730  26.580   8.961
 2710W        W 3574  25.665  27.984   9.299
 2711W        W 3575  26.839  26.102   7.978
 2712W        W 3576  26.643  27.529  10.577
 2713W        W 3577  27.519  26.635   8.496
 2714W        W 3578  27.860  27.931   9.669
 2715W        W 3579  26.057  28.551   9.976
 2716W        W 3580  26.538  28.357  10.916
 2717W        W 3581  26.540  26.458   7.731
 2718W        W 3582  28.023  26.432   8.069
 2719W        W 3583  27.894  28.440  10.295
 2720W        W 3584  26.808  27.051   8.980
 2721W        W 3585  26.206  28.947   9.622
 2722W        W 3586  28.882  28.916   7.407
 2723W        W 3587  25.806  27.628  10.440
 2724W        W 3588  27.805  27.769   9.172
 2725W        W 3589  26.295  27.416   8.383
 2726W        W 3590  26.546  28.594   9.822
 2727W        W 3591  27.092  25.919   8.857
 2728W        W 3592  25.648  27.795   7.894
 2729W        W 3593  27.323  26.779   7.620
 2730W        W 3594  25.825  27.407   8.576
 2731W        W 3595  26.950  26.094  10.303
 2732W        W 3596  28.759  25.830   7.383
 2733W        W 3597  28.865  27.490  10.708
 2734W        W 3598  27.555  28.772  10.805
 2735W        W 3599   0.005  27.833  10.340
 2736W        W 3600  28.399  28.481  10.955
 2737W        W 3601  26.281   0.041   9.132
 2738W        W 3602   0.014  27.748   8.299
 2739W        W 3603  27.766  27.043   8.757
 2740W        W 3604  27.415  25.691   8.509
 2741W        W 3605  26.500  28.407   8.471
 2742W        W 3606  26.862  26.347   9.854
 2743W        W 3607  26.930  25.648   9.284
 2744W        W 3608  25.776  28.609   7.710
 2745W        W 3609  27.497  27.825   8.442
 2746W        W 3610  26.523  28.546  10.338
 2747W        W 3611  25.921  27.353   8.010
 2748W        W 3612  25.671  26.243   9.072
 2749W        W 3613  27.319  27.960   9.082
 2750W        W 3614  25.610  25.951   8.099
 2751W        W 3615  28.354  26.989   9.928
 2752W        W 3616  28.236  26.394   7.568
 2753W        W 3617  28.692  28.117   9.232
 2754W        W 3618  27.393  28.477   8.945
 2755W        W 3619  26.640  28.504   7.978
 2756W        W 3620  27.896  25.547   7.447
 2757W        W 3621  25.823  28.840   9.249
 2758W        W 3622  27.906  26.572  10.850
 2759W        W 3623  25.968  26.500  11.119
 2760W        W 3624  25.687  26.886   8.050
 2761W        W 3625  26.347  27.042   8.006
 2762W        W 3626  27.961  27.054  10.650
 2763W        W 3627  26.578  27.416   9.292
 2764W        W 3628  27.938  25.637   8.426
 2765W        W 3629  27.057  28.836   9.104
 2766W        W 3630  28.240  28.405   9.884
 2767W        W 3631  28.076  28.472   8.974
 2768W        W 3632  27.939  27.637   8.680
 2769W        W 3633  27.339  26.026   7.830
 2770W        W 3634   0.013  25.588   8.466
 2771W        W 3635  26.653  27.297   7.513
 2772W        W 3636  28.908  26.451   8.583
 2773W        W 3637  27.467  27.693   7.650
 2774W        W 3638  28.499  27.781  10.341
 2775W        W 3639  28.002  28.505   7.701
 2776W        W 3640  26.934  26.460  10.687
 2777W        W 3641  26.582  26.787   9.847
 2778W        W 3642  28.670  28.252  10.163
 2779W        W 3643  27.879  26.165  10.414
 2780W        W 3644  25.666  26.815  10.288
 2781W        W 3645  27.412  27.234   9.834
 2782W        W 3646  25.870  27.896   8.795
 2783W        W 3647  25.982  27.119   9.314
 2784W        W 3648  28.242  27.514   9.948
 2785W        W 3649  28.065  28.807  10.659
 2786W        W 3650  27.830  26.662  10.326
 2787W        W 3651  28.234  28.765   8.568
 2788W        W 3652  27.273  28.509  10.045
 2789W        W 3653  26.611  28.708   9.326
 2790W        W 3654  28.481  27.949   9.785
 2791W        W 3655  27.398  27.982  10.892
 2792W        W 3656  26.181  27.983   9.227
 2793W        W 3657  28.453  27.490   8.761
 2794W        W 3658  28.013  28.714   9.456
 2795W        W 3659  26.149  28.478   9.443
 2796W        W 3660  27.425  26.638  10.697
 2797W        W 3661  27.673  28.747   8.096
 2798W        W 3662  26.865  27.931  10.835
 2799W        W 3663  26.895  28.151   8.273
 2800W        W 3664  26.327  26.905   7.502
 2801W        W 3665  25.636   0.193  14.289
 2802W        W 3666  25.947  28.009  13.801
 2803W        W 3667  28.535  27.709  11.658
 2804W        W 3668  28.850  28.931  13.622
 2805W        W 3669  26.631  28.761  11.264
 2806W        W 3670  26.764  26.975  12.050
 2807W        W 3671  26.284  26.862  12.384
 2808W        W 3672  27.249  27.718  11.695
 2809W        W 3673  27.026  28.705  14.088
 2810W        W 3674  25.650  26.309  13.938
 2811W        W 3675  26.258  25.517  13.758
 2812W        W 3676  28.069  25.974  12.720
 2813W        W 3677  27.783  26.661  11.343
 2814W        W 3678  28.351  26.266  14.398
 2815W        W 3679  25.735  25.993  13.526
 2816W        W 3680  25.780  28.694  14.342
 2817W        W 3681  27.155  28.083  11.331
 2818W        W 3682  25.683  26.789  13.052
 2819W        W 3683  26.540  26.814  14.232
 2820W        W 3684  28.784  26.612  12.699
 2821W        W 3685  28.679  27.550  13.537
 2822W        W 3686  27.170  26.876  12.577
 2823W        W 3687  27.718  28.210  12.934
 2824W        W 3688  26.120  27.715  13.097
 2825W        W 3689  25.425  27.191  12.832
 2826W        W 3690  26.565  27.172  13.811
 2827W        W 3691  28.745  26.975  14.233
 2828W        W 3692  26.391  28.371  12.462
 2829W        W 3693  27.476  28.120  13.747
 2830W        W 3694  26.874  26.524  12.987
 2831W        W 3695  27.068  27.467  12.720
 2832W        W 3696  27.821  28.397  14.471
 2833W        W 3697  27.132  27.471  14.453
 2834W        W 3698  27.057  27.336  13.909
 2835W        W 3699  25.565  26.738  14.609
 2836W        W 3700  28.215  28.264  14.162
 2837W        W 3701  25.956  25.797  12.087
 2838W        W 3702  26.513  28.135  12.984
 2839W        W 3703  28.949  27.987  12.456
 2840W        W 3704  28.512  26.190  12.881
 2841W        W 3705  28.671  26.286  11.003
 2842W        W 3706   0.257  27.062  13.500
 2843W        W 3707  26.954  28.769  13.195
 2844W        W 3708  28.666  28.196  11.766
 2845W        W 3709  25.985   0.035  11.447
 2846W        W 3710  26.284  28.832  11.901
 2847W        W 3711  26.180  25.849  13.302
 2848W        W 3712  28.734  26.737  13.720
 2849W        W 3713  28.110  27.157  12.228
 2850W        W 3714  28.035  27.082  11.170
 2851W        W 3715  27.334  28.143  13.247
 2852W        W 3716  27.172  26.355  12.505
 2853W        W 3717  27.727  28.446  13.436
 2854W        W 3718  28.532  27.291  11.958
 2855W        W 3719  27.691  25.939  11.892
 2856W        W 3720  26.218  28.522  11.499
 2857W        W 3721  25.582  26.105  12.230
 2858W        W 3722  28.262  26.721  12.694
 2859W        W 3723  25.854  28.311  12.497
 2860W        W 3724  27.096  28.607  11.411
 2861W        W 3725  28.399  26.763  10.951
 2862W        W 3726  25.706  28.527  13.227
 2863W        W 3727  26.443  28.178  13.735
 2864W        W 3728  26.694  27.513  12.177
 2865W        W 3729  26.684  25.971  13.161
 2866W        W 3730   0.095  25.592  12.641
 2867W        W 3731  26.162  27.454  11.027
 2868W        W 3732  26.092  26.741  11.571
 2869W        W 3733  26.076  28.331  12.032
 2870W        W 3734  27.109  27.852  12.189
 2871W        W 3735  28.443  28.795  13.907
 2872W        W 3736  27.423  26.444  11.656
 2873W        W 3737  28.640  28.886  12.424
 2874W        W 3738  28.331  26.695  14.070
 2875W        W 3739   0.093  28.313  12.067
 2876W        W 3740  27.613  27.609  13.703
 2877W        W 3741  25.503  27.318  11.884
 2878W        W 3742  26.529  27.800  13.389
 2879W        W 3743  27.741  26.831  11.835
 2880W        W 3744  27.586  27.312  11.929
 2881W        W 3745  26.124  26.814  13.305
 2882W        W 3746  26.082  26.842  14.489
 2883W        W 3747  25.958  25.713  12.584
 2884W        W 3748  27.656  26.064  13.024
 2885W        W 3749  27.393  26.118  14.232
 2886W        W 3750  27.882  25.980  11.405
 2887W        W 3751  28.930  28.719  14.094
 2888W        W 3752  27.735  25.684  14.161
 2889W        W 3753  28.644  28.054  14.367
 2890W        W 3754  28.361  26.199  13.889
 2891W        W 3755  28.001  26.141  12.242
 2892W        W 3756  28.393  27.294  14.513
 2893W        W 3757  26.051  28.759  12.343
 2894W        W 3758  26.922  26.577  11.595
 2895W        W 3759  26.451  25.920  14.157
 2896W        W 3760  28.465  26.444  11.888
 2897W        W 3761  28.811  26.869  11.806
 2898W        W 3762  26.578  28.862  14.348
 2899W        W 3763  26.497  25.658  11.514
 2900W        W 3764  28.864  26.036  12.514
 2901W        W 3765  28.905  28.326  11.090
 2902W        W 3766  25.818  27.570  12.671
 2903W        W 3767  27.904  26.032  10.898
 2904W        W 3768  28.882  28.515  12.694
 2905W        W 3769  28.813  25.752  13.388
 2906W        W 3770  27.397  26.940  13.879
 2907W        W 3771  27.587  28.129  11.621
 2908W        W 3772  27.661  27.511  14.653
 2909W        W 3773  27.703  25.611  12.765
 2910W        W 3774  26.108  26.593  12.801
 2911W        W 3775  25.765  27.626  13.492
 2912W        W 3776  27.681  28.756  12.229
 2913W        W 3777  28.739  26.467  13.262
 2914W        W 3778  27.488  28.885  13.873
 2915W        W 3779  28.693  27.611  11.169
 2916W        W 3780  27.164  27.283  12.226
 2917W        W 3781   0.028  25.710  13.855
 2918W        W 3782  27.137  27.777  13.557
 2919W        W 3783  27.403  26.540  12.963
 2920W        W 3784  28.236  26.763  11.563
 2921W        W 3785  28.709  26.643  11.362
 2922W        W 3786  28.275  28.536  11.815
 2923W        W 3787  28.236  28.213  12.647
 2924W        W 3788  28.057  27.227  11.695
 2925W        W 3789  28.477  27.205  12.616
 2926W        W 3790  25.879  26.332  13.187
 2927W        W 3791  28.445  27.304  13.985
 2928W        W 3792  28.829  28.915  13.057
 2929W        W 3793  26.927  28.321  12.365
 2930W        W 3794  27.976  28.891  13.698
 2931W        W 3795  27.799  26.281  13.524
 2932W        W 3796  27.119   0.112  13.575
 2933W        W 3797  28.715  26.011  12.018
 2934W        W 3798  28.318  27.360  13.087
 2935W        W 3799  25.710  26.665  13.569
 2936W        W 3800  28.444  26.329  12.394
 2937W        W 3801  28.798  26.467  14.171
 2938W        W 3802  27.767  28.015  12.473
 2939W        W 3803  27.159  28.730  12.134
 2940W        W 3804  26.063  26.066  11.439
 2941W        W 3805  27.326  25.642  13.134
 2942W        W 3806  26.167  28.744  11.028
 2943W        W 3807  26.888  27.355  11.723
 2944W        W 3808  27.263  27.788  14.067
 2945W        W 3809  27.211  26.075  11.997
 2946W        W 3810  28.402  25.801  12.367
 2947W        W 3811  28.134   0.070  12.672
 2948W        W 3812  27.458  28.695  13.059
 2949W        W 3813  26.937  27.837  13.071
 2950W        W 3814  28.620  28.530  13.381
 2951W        W 3815  26.366  26.021  11.870
 2952W        W 3816  27.000  28.334  12.900
 2953W        W 3817  26.434  26.451  10.879
 2954W        W 3818  27.148  26.753  13.383
 2955W        W 3819  28.122  25.680  13.154
 2956W        W 3820  25.486  27.651  13.051
 2957W        W 3821  27.092  27.179  11.271
 2958W        W 3822  26.533  26.014  11.141
 2959W        W 3823  27.100  26.595  12.074
 2960W        W 3824  28.032  25.835  13.694
 2961W        W 3825  26.727  27.747  13.860
 2962W        W 3826  27.537  27.344  14.161
 2963W        W 3827  27.995  27.541  14.046
 2964W        W 3828  27.425  25.768  14.597
 2965W        W 3829  26.679  26.151  12.678
 2966W        W 3830  26.264  26.325  12.355
 2967W        W 3831  25.769  28.729  11.878
 2968W        W 3832  27.356  28.314  14.231
 2969W        W 3833  26.433  27.462  11.476
 2970W        W 3834  27.951  27.173  12.740
 2971W        W 3835  28.081  26.894  13.156
 2972W        W 3836  27.388  27.616  13.123
 2973W        W 3837  27.838  27.971  11.181
 2974W        W 3838  27.550  26.005  12.471
 2975W        W 3839  28.961  26.367  11.743
 2976W        W 3840  25.690  28.907  13.859
 2977W        W 3841  26.100  28.179  13.338
 2978W        W 3842  25.428   0.057  11.678
 2979W        W 3843  27.292  26.207  13.368
 2980W        W 3844  26.683  28.268  11.430
 2981W        W 3845  28.596  28.615  11.420
 2982W        W 3846  27.599  27.152  11.436
 2983W        W 3847  26.461  26.568  11.920
 2984W        W 3848  27.520  26.278  11.114
 2985W        W 3849  27.734  27.940  14.242
 2986W        W 3850  28.234  25.945  11.835
 2987W        W 3851  25.672  25.744  11.254
 2988W        W 3852  26.852  28.217  13.405
 2989W        W 3853  26.744  27.877  12.584
 2990W        W 3854  26.438  27.891  11.152
 2991W        W 3855  25.782  28.270  11.612
 2992W        W 3856  26.162  27.218  14.144
 2993W        W 3857  26.917  25.945  14.395
 2994W        W 3858  27.498  25.905  13.751
 2995W        W 3859  26.788  25.709  12.000
 2996W        W 3860  27.652  25.541  11.556
 2997W        W 3861  25.735  25.813  13.046
 2998W        W 3862  25.806  26.590  12.369
 2999W        W 3863  28.612  25.672  12.883
 3000W        W 3864  25.952  26.338  11.909
 3001W        W 3865  28.397  26.073  13.385
 3002W        W 3866  28.901  27.122  11.136
 3003W        W 3867  26.192  26.090  12.837
 3004W        W 3868  27.356  26.435  13.816
 3005W        W 3869  25.557  26.241  11.291
 3006W        W 3870  26.230  27.583  13.774
 3007W        W 3871  27.452  27.076  12.976
 3008W        W 3872  27.477  28.940  11.302
 3009W        W 3873  25.638  27.611  10.930
 3010W        W 3874  26.324  27.910  14.170
 3011W        W 3875  25.939  27.156  13.652
 3012W        W 3876  26.847  27.382  13.407
 3013W        W 3877  28.516  25.636  13.812
 3014W        W 3878  28.981  27.303  13.890
 3015W        W 3879  28.927  27.379  11.598
 3016W        W 3880  27.770  27.638  11.577
 3017W        W 3881  28.385  28.989  11.037
 3018W        W 3882  27.468  27.038  14.595
 3019W        W 3883  25.970  28.044  14.562
 3020W        W 3884   0.144  26.167  14.439
 3021W        W 3885  28.612  26.934  13.069
 3022W        W 3886  27.029  28.963  14.571
 3023W        W 3887  26.959  25.707  11.263
 3024W        W 3888  28.476  28.075  11.269
 3025W        W 3889  26.088  26.395  14.196
 3026W        W 3890  26.971  28.204  13.902
 3027W        W 3891  28.832  26.191  13.701
 3028W        W 3892  28.188  28.960  11.505
 3029W        W 3893  28.250  27.852  13.030
 3030W        W 3894  26.533  25.957  13.651
 3031W        W 3895  27.027  26.982  14.315
 3032W        W 3896  26.258  28.015  11.651
 3033W        W 3897  28.101  27.635  12.003
 3034W        W 3898  26.127  26.295  13.656
 3035W        W 3899  27.465  28.286  12.131
 3036W        W 3900   0.056  26.975  12.260
 3037W        W 3901  27.232  25.626  14.132
 3038W        W 3902  28.163  28.333  13.160
 3039W        W 3903  28.409  28.671  12.860
 3040W        W 3904  27.528  28.419  11.188
 3041W        W 3905  25.651  28.199  14.204
 3042W        W 3906  26.399  26.393  13.207
 3043W        W 3907  26.419  25.831  12.369
 3044W        W 3908  28.073  26.378  13.081
 3045W        W 3909  26.887  27.653  11.286
 3046W        W 3910  28.692  27.668  12.795
 3047W        W 3911  26.111  28.405  14.081
 3048W        W 3912  28.406   0.042  11.964
 3049W        W 3913  26.749  26.206  12.164
 3050W        W 3914  26.286  27.422  12.495
 3051W        W 3915  26.589   0.044  13.447
 3052W        W 3916  28.674   0.126  14.215
 3053W        W 3917  27.814  27.340  13.248
 3054W        W 3918  25.793  27.114  11.123
 3055W        W 3919  28.784  28.695  11.924
 3056W        W 3920  28.597  26.091  11.484
 3057W        W 3921  26.774  25.575  13.901
 3058W        W 3922  28.602  28.359  12.277
 3059W        W 3923  28.543  26.840  12.256
 3060W        W 3924  26.725  26.623  12.466
 3061W        W 3925  26.906  26.767  13.849
 3062W        W 3926  27.975  27.998  13.791
 3063W        W 3927  26.560  26.381  13.953
 3064W        W 3928  26.659  28.778  12.296
 3065W        W 3929  26.164  28.932  14.054
 3066W        W 3930  25.884  28.310  11.098
 3067W        W 3931  28.543  27.849  12.163
 3068W        W 3932  26.220  26.770  13.829
 3069W        W 3933   0.242  26.690  11.458
 3070W        W 3934  26.743  27.858  11.763
 3071W        W 3935  27.872  27.151  13.724
 3072W        W 3936  27.653  26.780  13.419
 3073W        W 3937  26.343  27.298  13.352
 3074W        W 3938  28.406   0.035  13.353
 3075W        W 3939  28.223  25.802  14.204
 3076W        W 3940  25.967  25.897  13.983
 3077W        W 3941  26.364  27.032  12.899
 3078W        W 3942  26.785  26.753  11.107
 3079W        W 3943  25.619  28.400  13.720
 3080W        W 3944  26.914  27.055  13.009
 3081W        W 3945  27.000  26.267  11.180
 3082W        W 3946  26.271  27.068  11.928
 3083W        W 3947  25.668   0.028  13.363
 3084W        W 3948  28.489  27.182  11.420
 3085W        W 3949  28.730  25.963  14.189
 3086W        W 3950  28.122  28.158  12.137
 3087W        W 3951  25.725  27.215  14.436
 3088W        W 3952  28.659  25.541  11.422
 3089W        W 3953  28.117  28.023  11.639
 3090W        W 3954  27.231  26.965  11.744
 3091W        W 3955  28.348  25.841  11.090
 3092W        W 3956  28.248  26.573  13.545
 3093W        W 3957  25.890  27.043  12.648
 3094W        W 3958  26.427  27.957  12.174
 3095W        W 3959  28.066  26.645  12.196
 3096W        W 3960  27.141  26.060  12.906
 3097W        W 3961  28.958  28.017  13.420
 3098W        W 3962  28.995  26.069  13.021
 3099W        W 3963  25.535  28.715  12.364
 3100W        W 3964  25.786  27.753  11.704
 3101W        W 3965  26.065  25.953  14.513
 3102W        W 3966  26.959  28.441  14.554
 3103W        W 3967  28.851  27.463  12.338
 3104W        W 3968  28.190  27.587  11.294
 3105W        W 3969  27.613   0.108  13.384
 3106W        W 3970  28.206  27.778  14.441
 3107W        W 3971  27.163  25.523  11.707
 3108W        W 3972  27.806  26.446  12.628
 3109W        W 3973  25.779  28.068  12.943
 3110W        W 3974  26.824  26.068  11.627
 3111W        W 3975  26.647  27.441  14.252
 3112W        W 3976  27.583  26.429  12.151
 3113W        W 3977  27.806  27.901  13.324
 3114W        W 3978  26.071  28.632  13.623
 3115W        W 3979  26.592  28.351  14.223
 3116W        W 3980  26.464  26.440  11.404
 3117W        W 3981  27.950  26.368  11.752
 3118W        W 3982  27.780  28.473  13.966
 3119W        W 3983  26.718  27.141  12.535
 3120W        W 3984  26.138  28.904  13.201
 3121W        W 3985  28.881  28.837  11.039
 3122W        W 3986  25.821  27.675  14.188
 3123W        W 3987  27.812  27.676  12.854
 3124W        W 3988  26.222  27.571  11.932
 3125W        W 3989  26.479  28.542  13.313
 3126W        W 3990  27.030  25.847  12.440
 3127W        W 3991  25.518  27.961  11.285
 3128W        W 3992  27.286  26.718  11.222
 3129W        W 3993  25.882  27.299  12.207
 3130W        W 3994  26.995  26.056  13.890
 3131W        W 3995  28.878  25.824  11.065
 3132W        W 3996  28.802  27.540  14.315
 3133W        W 3997  27.493  28.798  14.408
 3134W        W 3998  28.935  27.836  13.902
 3135W        W 3999  28.520  28.607  14.411
 3136W        W 4000  26.264  29.000  12.731
 3137W        W 4001   0.005  27.804  11.932
 3138W        W 4002  27.636  26.944  12.342
 3139W        W 4003  27.394  25.608  12.170
 3140W        W 4004  26.578  28.381  11.936
 3141W        W 4005  26.822  26.369  13.504
 3142W        W 4006  26.892  25.602  12.873
 3143W        W 4007  25.605  28.697  11.339
 3144W        W 4008  27.620  27.818  12.031
 3145W        W 4009  26.567  28.669  13.818
 3146W        W 4010  25.937  27.256  11.594
 3147W        W 4011  25.703  26.217  12.712
 3148W        W 4012  27.293  27.958  12.698
 3149W        W 4013  25.607  25.926  11.727
 3150W        W 4014  28.376  27.086  13.532
 3151W        W 4015  28.205  26.351  11.231
 3152W        W 4016  28.656  28.171  13.001
 3153W        W 4017  27.398  28.470  12.594
 3154W        W 4018  26.775  28.819  11.764
 3155W        W 4019  27.895  25.542  11.069
 3156W        W 4020  25.772  28.846  12.811
 3157W        W 4021  27.934  26.575  14.446
 3158W        W 4022  26.051  26.406  14.744
 3159W        W 4023  25.743  26.852  11.925
 3160W        W 4024  26.594  26.965  11.540
 3161W        W 4025  27.989  27.057  14.228
 3162W        W 4026  26.577  27.505  12.927
 3163W        W 4027  27.906  25.632  12.279
 3164W        W 4028  27.069  28.863  12.657
 3165W        W 4029  28.196  28.433  13.659
 3166W        W 4030  27.883  28.621  12.701
 3167W        W 4031  27.741  27.477  12.385
 3168W        W 4032  27.344  25.964  11.490
 3169W        W 4033   0.016  25.589  12.110
 3170W        W 4034  26.657  27.263  11.017
 3171W        W 4035  28.905  26.474  12.223
 3172W        W 4036  27.413  27.593  11.221
 3173W        W 4037  28.429  27.818  13.960
 3174W        W 4038  28.045  28.449  11.337
 3175W        W 4039  26.968  26.450  14.274
 3176W        W 4040  26.629  26.850  13.397
 3177W        W 4041  28.657  28.301  13.872
 3178W        W 4042  27.867  26.184  14.042
 3179W        W 4043  25.735  26.835  14.071
 3180W        W 4044  27.344  27.234  13.467
 3181W        W 4045  25.872  27.852  12.215
 3182W        W 4046  25.895  27.263  13.106
 3183W        W 4047  28.159  27.573  13.553
 3184W        W 4048  28.057  28.823  14.262
 3185W        W 4049  27.837  26.667  13.902
 3186W        W 4050  28.191  28.683  12.303
 3187W        W 4051  27.222  28.552  13.584
 3188W        W 4052  26.617  28.656  12.822
 3189W        W 4053  28.439  28.019  13.480
 3190W        W 4054  27.335  27.929  14.576
 3191W        W 4055  26.193  27.927  12.634
 3192W        W 4056  28.216  27.660  12.528
 3193W        W 4057  27.979  28.813  13.163
 3194W        W 4058  26.127  28.477  12.903
 3195W        W 4059  27.451  26.628  14.292
 3196W        W 4060  27.505  28.628  11.733
 3197W        W 4061  26.861  27.926  14.351
 3198W        W 4062  27.071  28.271  11.813
 3199W        W 4063  26.288  26.923  11.126
 3200W        W 4064  25.619   0.226  18.031
 3201W        W 4065  26.026  28.084  17.594
 3202W        W 4066  28.549  27.676  15.291
 3203W        W 4067  28.771  28.875  17.333
 3204W        W 4068  26.516  28.925  14.865
 3205W        W 4069  26.583  27.123  15.605
 3206W        W 4070  26.215  26.870  15.878
 3207W        W 4071  27.022  27.315  15.360
 3208W        W 4072  27.011  28.675  17.798
 3209W        W 4073  25.718  26.251  17.590
 3210W        W 4074  26.363  25.417  17.420
 3211W        W 4075  28.024  26.021  16.360
 3212W        W 4076  27.745  26.692  14.960
 3213W        W 4077  28.416  26.280  18.111
 3214W        W 4078  25.801  25.931  17.176
 3215W        W 4079  25.780  28.745  18.175
 3216W        W 4080  26.952  28.063  14.910
 3217W        W 4081  25.723  26.717  16.611
 3218W        W 4082  26.622  26.888  17.973
 3219W        W 4083  28.789  26.547  16.403
 3220W        W 4084  28.707  27.537  17.143
 3221W        W 4085  27.087  26.872  16.285
 3222W        W 4086  27.776  28.339  16.612
 3223W        W 4087  26.115  27.655  16.835
 3224W        W 4088  25.452  27.156  16.472
 3225W        W 4089  26.575  27.190  17.559
 3226W        W 4090  28.815  26.982  17.882
 3227W        W 4091  26.422  28.338  16.197
 3228W        W 4092  27.436  28.132  17.326
 3229W        W 4093  26.901  26.497  16.672
 3230W        W 4094  26.999  27.446  16.266
 3231W        W 4095  27.914  28.336  18.103
 3232W        W 4096  27.176  27.531  18.145
 3233W        W 4097  27.094  27.313  17.682
 3234W        W 4098  25.599  26.744  18.155
 3235W        W 4099  28.356  28.219  17.845
 3236W        W 4100  25.970  25.862  15.680
 3237W        W 4101  26.504  28.011  16.785
 3238W        W 4102  28.894  27.960  16.075
 3239W        W 4103  28.435  26.205  16.636
 3240W        W 4104  28.739  26.378  14.720
 3241W        W 4105   0.272  27.043  17.098
 3242W        W 4106  27.029  28.750  16.776
 3243W        W 4107  28.604  28.140  15.059
 3244W        W 4108  26.045   0.030  15.095
 3245W        W 4109  26.384   0.035  15.683
 3246W        W 4110  26.270  25.905  16.910
 3247W        W 4111  28.692  26.678  17.400
 3248W        W 4112  27.998  27.179  15.864
 3249W        W 4113  27.981  27.089  14.740
 3250W        W 4114  27.376  28.048  16.777
 3251W        W 4115  27.136  26.387  16.112
 3252W        W 4116  27.660  28.571  17.102
 3253W        W 4117  28.583  27.281  15.626
 3254W        W 4118  27.656  25.981  15.532
 3255W        W 4119  26.275  28.639  15.318
 3256W        W 4120  25.594  26.169  15.850
 3257W        W 4121  28.056  26.880  16.318
 3258W        W 4122  25.913  28.291  16.205
 3259W        W 4123  27.058  28.701  14.998
 3260W        W 4124  28.404  26.770  14.601
 3261W        W 4125  25.754  28.505  16.936
 3262W        W 4126  26.499  28.061  17.321
 3263W        W 4127  26.712  27.551  15.843
 3264W        W 4128  26.799  25.986  16.883
 3265W        W 4129   0.104  25.657  16.271
 3266W        W 4130  26.216  27.572  14.539
 3267W        W 4131  25.814  26.725  15.089
 3268W        W 4132  26.098  28.370  15.726
 3269W        W 4133  26.841  28.035  15.735
 3270W        W 4134  28.377  28.676  17.598
 3271W        W 4135  27.436  26.388  15.264
 3272W        W 4136  28.656  28.959  16.068
 3273W        W 4137  28.368  26.721  17.802
 3274W        W 4138   0.146  28.279  15.762
 3275W        W 4139  27.678  27.660  17.417
 3276W        W 4140  25.453  27.258  15.479
 3277W        W 4141  26.593  27.581  17.047
 3278W        W 4142  27.723  26.827  15.465
 3279W        W 4143  27.544  27.303  15.591
 3280W        W 4144  26.096  26.748  16.993
 3281W        W 4145  26.075  26.858  17.989
 3282W        W 4146  25.916  25.670  16.156
 3283W        W 4147  27.653  26.079  16.727
 3284W        W 4148  27.444  26.152  17.914
 3285W        W 4149  27.856  25.945  15.041
 3286W        W 4150  28.788  28.541  17.896
 3287W        W 4151  27.774  25.734  17.813
 3288W        W 4152  28.824  28.020  17.954
 3289W        W 4153  28.423  26.247  17.573
 3290W        W 4154  27.981  26.162  15.872
 3291W        W 4155  28.392  27.234  18.072
 3292W        W 4156  26.160  28.760  16.054
 3293W        W 4157  26.912  26.424  15.359
 3294W        W 4158  26.524  25.974  17.867
 3295W        W 4159  28.395  26.410  15.599
 3296W        W 4160  28.764  26.817  15.510
 3297W        W 4161  26.652  28.981  18.045
 3298W        W 4162  26.422  25.648  15.213
 3299W        W 4163  28.734  26.050  16.186
 3300W        W 4164  28.903  28.398  14.713
 3301W        W 4165  25.802  27.562  16.385
 3302W        W 4166  27.879  26.039  14.526
 3303W        W 4167  28.956  28.585  16.258
 3304W        W 4168  28.945  25.763  17.024
 3305W        W 4169  27.445  26.966  17.512
 3306W        W 4170  27.236  27.960  15.351
 3307W        W 4171  27.936  27.454  18.226
 3308W        W 4172  27.671  25.648  16.469
 3309W        W 4173  26.160  26.632  16.379
 3310W        W 4174  25.854  27.647  17.310
 3311W        W 4175  27.689  28.737  16.141
 3312W        W 4176  28.793  26.443  16.934
 3313W        W 4177  27.471  28.800  17.580
 3314W        W 4178  28.649  27.691  14.782
 3315W        W 4179  27.095  27.167  15.850
 3316W        W 4180   0.082  25.707  17.525
 3317W        W 4181  27.264  27.658  17.108
 3318W        W 4182  27.407  26.541  16.629
 3319W        W 4183  28.251  26.899  15.478
 3320W        W 4184  28.494  26.621  15.115
 3321W        W 4185  28.420  28.481  15.441
 3322W        W 4186  28.285  27.999  16.265
 3323W        W 4187  27.944  27.217  15.230
 3324W        W 4188  27.520  27.406  16.118
 3325W        W 4189  28.389  27.337  16.204
 3326W        W 4190  25.907  26.289  16.828
 3327W        W 4191  28.512  27.253  17.563
 3328W        W 4192  28.961  28.871  16.799
 3329W        W 4193  26.912  28.391  16.104
 3330W        W 4194  27.966  28.934  17.372
 3331W        W 4195  27.827  26.251  17.177
 3332W        W 4196  27.112   0.152  17.174
 3333W        W 4197  28.677  25.985  15.656
 3334W        W 4198  28.404  27.281  16.743
 3335W        W 4199  25.614  26.569  17.182
 3336W        W 4200  28.331  26.414  16.169
 3337W        W 4201  28.854  26.469  17.865
 3338W        W 4202  27.770  28.176  16.096
 3339W        W 4203  27.062  28.719  15.736
 3340W        W 4204  26.068  25.994  15.061
 3341W        W 4205  27.269  25.679  16.836
 3342W        W 4206  26.238  28.535  14.577
 3343W        W 4207  26.514  27.307  15.117
 3344W        W 4208  27.293  27.816  17.736
 3345W        W 4209  27.163  26.068  15.627
 3346W        W 4210  28.335  25.796  15.980
 3347W        W 4211  28.200   0.027  16.296
 3348W        W 4212  27.516  28.771  16.638
 3349W        W 4213  26.946  27.744  16.698
 3350W        W 4214  28.661  28.471  16.980
 3351W        W 4215  26.394  26.078  15.486
 3352W        W 4216  26.910  28.268  16.600
 3353W        W 4217  26.507  26.312  14.489
 3354W        W 4218  27.121  26.756  17.064
 3355W        W 4219  28.116  25.783  16.823
 3356W        W 4220  25.603  27.535  16.866
 3357W        W 4221  26.981  27.161  14.831
 3358W        W 4222  26.515  25.869  14.755
 3359W        W 4223  26.844  26.721  15.788
 3360W        W 4224  28.077  25.859  17.385
 3361W        W 4225  26.869  27.714  17.446
 3362W        W 4226  27.577  27.371  17.851
 3363W        W 4227  28.079  27.493  17.710
 3364W        W 4228  27.453  25.802  18.290
 3365W        W 4229  26.661  26.092  16.392
 3366W        W 4230  26.187  26.342  15.911
 3367W        W 4231  25.895  28.843  15.609
 3368W        W 4232  27.421  28.321  17.824
 3369W        W 4233  26.248  27.755  15.029
 3370W        W 4234  27.936  27.369  16.449
 3371W        W 4235  27.946  27.021  16.829
 3372W        W 4236  27.388  27.504  16.609
 3373W        W 4237  27.819  27.982  14.781
 3374W        W 4238  27.509  26.015  16.100
 3375W        W 4239  28.901  26.341  15.378
 3376W        W 4240  25.749  28.869  17.663
 3377W        W 4241  26.048  28.108  17.084
 3378W        W 4242  25.535  28.929  15.219
 3379W        W 4243  27.257  26.223  17.028
 3380W        W 4244  26.603  28.441  14.964
 3381W        W 4245  28.589  28.714  15.012
 3382W        W 4246  27.452  27.151  15.096
 3383W        W 4247  26.413  26.606  15.474
 3384W        W 4248  27.490  26.295  14.734
 3385W        W 4249  27.787  27.863  17.926
 3386W        W 4250  28.186  25.911  15.472
 3387W        W 4251  25.653  25.739  14.877
 3388W        W 4252  26.955  28.103  17.091
 3389W        W 4253  26.724  27.903  16.250
 3390W        W 4254  26.472  28.058  14.656
 3391W        W 4255  25.741  28.445  15.324
 3392W        W 4256  26.294  27.324  18.046
 3393W        W 4257  26.986  25.979  18.108
 3394W        W 4258  27.501  25.944  17.426
 3395W        W 4259  26.768  25.706  15.653
 3396W        W 4260  27.643  25.520  15.330
 3397W        W 4261  25.812  25.784  16.675
 3398W        W 4262  25.748  26.603  16.071
 3399W        W 4263  28.632  25.711  16.573
 3400W        W 4264  25.935  26.338  15.436
 3401W        W 4265  28.501  25.989  17.109
 3402W        W 4266  28.830  27.088  14.722
 3403W        W 4267  26.145  26.110  16.399
 3404W        W 4268  27.362  26.455  17.482
 3405W        W 4269  25.601  26.271  14.957
 3406W        W 4270  26.328  27.636  17.537
 3407W        W 4271  27.548  27.018  16.491
 3408W        W 4272  25.725  27.612  14.741
 3409W        W 4273  26.489  28.037  17.840
 3410W        W 4274  26.028  27.221  17.613
 3411W        W 4275  26.955  27.238  17.205
 3412W        W 4276  28.566  25.631  17.497
 3413W        W 4277   0.034  27.304  17.489
 3414W        W 4278  28.941  27.374  15.128
 3415W        W 4279  27.679  27.657  15.183
 3416W        W 4280  28.407   0.080  14.643
 3417W        W 4281  27.642  27.036  18.277
 3418W        W 4282  26.081  28.006  18.159
 3419W        W 4283   0.225  26.150  18.072
 3420W        W 4284  28.411  26.754  16.689
 3421W        W 4285  27.154  28.987  18.170
 3422W        W 4286  26.979  25.669  14.831
 3423W        W 4287  28.276  28.216  14.686
 3424W        W 4288  26.143  26.361  17.843
 3425W        W 4289  26.954  28.192  17.615
 3426W        W 4290  28.908  26.185  17.387
 3427W        W 4291  28.168   0.072  15.121
 3428W        W 4292  28.222  27.756  16.719
 3429W        W 4293  26.555  25.914  17.350
 3430W        W 4294  27.149  26.990  18.077
 3431W        W 4295  26.441  28.137  15.386
 3432W        W 4296  28.103  27.588  15.536
 3433W        W 4297  26.189  26.292  17.289
 3434W        W 4298  27.314  28.227  15.820
 3435W        W 4299   0.033  26.945  15.945
 3436W        W 4300  27.274  25.666  17.819
 3437W        W 4301  28.261  28.276  16.713
 3438W        W 4302  28.531  28.695  16.532
 3439W        W 4303  27.418  28.389  14.797
 3440W        W 4304  25.681  28.266  17.948
 3441W        W 4305  26.418  26.391  16.786
 3442W        W 4306  26.390  25.867  16.000
 3443W        W 4307  27.961  26.496  16.704
 3444W        W 4308  26.715  27.612  14.754
 3445W        W 4309  28.708  27.666  16.497
 3446W        W 4310  26.159  28.463  17.927
 3447W        W 4311  28.537   0.057  15.524
 3448W        W 4312  26.719  26.227  15.847
 3449W        W 4313  26.251  27.455  16.074
 3450W        W 4314  26.648   0.004  17.001
 3451W        W 4315  28.671   0.041  17.833
 3452W        W 4316  27.788  27.534  16.922
 3453W        W 4317  26.045  27.216  14.870
 3454W        W 4318  28.839  28.668  15.686
 3455W        W 4319  28.540  26.080  15.123
 3456W        W 4320  26.796  25.555  17.663
 3457W        W 4321  28.561  28.370  16.003
 3458W        W 4322  28.477  26.878  15.960
 3459W        W 4323  26.639  26.580  16.232
 3460W        W 4324  26.951  26.814  17.558
 3461W        W 4325  28.061  27.986  17.501
 3462W        W 4326  26.616  26.440  17.668
 3463W        W 4327  26.677  28.856  16.087
 3464W        W 4328  26.247  28.925  17.738
 3465W        W 4329  26.118  28.262  15.006
 3466W        W 4330  28.711  28.083  15.576
 3467W        W 4331  26.243  26.769  17.502
 3468W        W 4332   0.001  26.714  15.047
 3469W        W 4333  26.751  27.744  15.287
 3470W        W 4334  27.866  27.182  17.330
 3471W        W 4335  27.627  26.701  17.075
 3472W        W 4336  26.239  27.233  17.149
 3473W        W 4337  28.416  28.956  16.989
 3474W        W 4338  28.269  25.847  17.866
 3475W        W 4339  26.070  25.862  17.616
 3476W        W 4340  26.502  26.931  16.630
 3477W        W 4341  26.759  26.701  14.699
 3478W        W 4342  25.634  28.407  17.442
 3479W        W 4343  26.979  27.165  16.702
 3480W        W 4344  26.978  26.237  14.817
 3481W        W 4345  26.126  27.069  15.367
 3482W        W 4346  25.750  28.979  17.162
 3483W        W 4347  28.450  27.173  15.071
 3484W        W 4348  28.779  25.961  17.864
 3485W        W 4349  28.179  28.112  15.750
 3486W        W 4350  25.686  27.243  18.077
 3487W        W 4351  28.634  25.555  15.059
 3488W        W 4352  28.133  28.008  15.218
 3489W        W 4353  27.223  26.838  15.462
 3490W        W 4354  28.312  25.824  14.725
 3491W        W 4355  28.295  26.462  17.110
 3492W        W 4356  25.888  27.077  16.209
 3493W        W 4357  26.359  27.946  15.868
 3494W        W 4358  28.004  26.662  15.852
 3495W        W 4359  27.176  26.071  16.520
 3496W        W 4360  28.887  27.982  16.946
 3497W        W 4361   0.023  26.107  16.609
 3498W        W 4362  25.626  28.698  16.037
 3499W        W 4363  25.952  27.972  15.436
 3500W        W 4364  26.113  25.970  18.181
 3501W        W 4365  27.145  28.470  18.265
 3502W        W 4366  28.889  27.435  16.047
 3503W        W 4367  28.146  27.578  14.918
 3504W        W 4368  27.697   0.139  16.943
 3505W        W 4369  28.326  27.757  18.071
 3506W        W 4370  27.114  25.511  15.312
 3507W        W 4371  27.735  26.461  16.241
 3508W        W 4372  25.768  28.016  16.648
 3509W        W 4373  26.829  25.951  15.217
 3510W        W 4374  26.714  27.575  17.906
 3511W        W 4375  27.531  26.431  15.762
 3512W        W 4376  27.876  28.039  17.021
 3513W        W 4377  26.105  28.594  17.341
 3514W        W 4378  26.651  28.449  18.109
 3515W        W 4379  26.501  26.318  15.028
 3516W        W 4380  27.949  26.378  15.359
 3517W        W 4381  27.873  28.457  17.593
 3518W        W 4382  26.632  27.097  16.133
 3519W        W 4383  26.175  28.843  16.886
 3520W        W 4384  28.888  28.898  14.641
 3521W        W 4385  25.897  27.651  17.847
 3522W        W 4386  27.761  27.845  16.489
 3523W        W 4387  26.288  27.564  15.525
 3524W        W 4388  26.550  28.485  17.036
 3525W        W 4389  27.006  25.849  16.085
 3526W        W 4390  25.658  28.042  15.002
 3527W        W 4391  27.215  26.707  14.934
 3528W        W 4392  25.876  27.314  15.751
 3529W        W 4393  27.004  26.071  17.589
 3530W        W 4394  28.828  25.861  14.704
 3531W        W 4395  28.839  27.504  17.918
 3532W        W 4396  27.576  28.717  18.126
 3533W        W 4397   0.034  27.844  17.451
 3534W        W 4398  28.369  28.607  18.178
 3535W        W 4399  26.272   0.093  16.433
 3536W        W 4400   0.002  27.648  15.586
 3537W        W 4401  27.542  26.903  15.970
 3538W        W 4402  27.361  25.616  15.777
 3539W        W 4403  26.579  28.517  15.723
 3540W        W 4404  26.785  26.381  17.197
 3541W        W 4405  26.852  25.621  16.533
 3542W        W 4406  25.797  28.653  14.850
 3543W        W 4407  27.213  27.673  15.789
 3544W        W 4408  26.551  28.508  17.586
 3545W        W 4409  25.839  27.508  15.249
 3546W        W 4410  25.642  26.207  16.378
 3547W        W 4411  27.263  27.891  16.269
 3548W        W 4412  25.567  25.933  15.352
 3549W        W 4413  28.324  26.981  17.174
 3550W        W 4414  28.147  26.339  14.866
 3551W        W 4415  28.708  28.193  16.496
 3552W        W 4416  27.354  28.384  16.344
 3553W        W 4417  26.734  28.868  15.346
 3554W        W 4418  27.881  25.539  14.684
 3555W        W 4419  25.881  28.763  16.481
 3556W        W 4420  28.012  26.608  18.187
 3557W        W 4421  26.062  26.473  18.354
 3558W        W 4422  25.749  26.816  15.598
 3559W        W 4423  26.775  26.874  15.197
 3560W        W 4424  27.950  27.018  17.859
 3561W        W 4425  26.524  27.474  16.528
 3562W        W 4426  27.846  25.650  15.966
 3563W        W 4427  27.160  28.861  16.268
 3564W        W 4428  28.171  28.486  17.166
 3565W        W 4429  28.134  28.504  16.269
 3566W        W 4430  27.967  27.677  16.028
 3567W        W 4431  27.344  25.916  15.099
 3568W        W 4432   0.007  25.596  15.745
 3569W        W 4433  26.497  27.140  14.629
 3570W        W 4434  28.803  26.472  15.891
 3571W        W 4435  27.206  27.605  14.962
 3572W        W 4436  28.529  27.777  17.586
 3573W        W 4437  28.115  28.683  14.780
 3574W        W 4438  27.040  26.489  17.983
 3575W        W 4439  26.605  26.856  17.135
 3576W        W 4440  28.718  28.272  17.460
 3577W        W 4441  27.909  26.243  17.704
 3578W        W 4442  25.704  26.825  17.630
 3579W        W 4443  27.436  27.169  17.005
 3580W        W 4444  25.879  27.806  15.928
 3581W        W 4445  25.981  27.170  16.700
 3582W        W 4446  28.204  27.550  17.213
 3583W        W 4447  28.007  28.862  17.901
 3584W        W 4448  27.968  26.688  17.459
 3585W        W 4449  28.231  28.772  15.838
 3586W        W 4450  27.011  28.612  17.282
 3587W        W 4451  26.566  28.679  16.557
 3588W        W 4452  28.413  28.015  17.130
 3589W        W 4453  27.426  28.035  18.254
 3590W        W 4454  26.206  27.891  16.371
 3591W        W 4455  28.488  27.720  15.868
 3592W        W 4456  28.025  28.775  16.721
 3593W        W 4457  26.166  28.367  16.652
 3594W        W 4458  27.556  26.657  17.930
 3595W        W 4459  27.395  28.520  15.360
 3596W        W 4460  26.935  28.002  18.111
 3597W        W 4461  26.910  28.365  15.360
 3598W        W 4462  26.320  26.794  14.972
 3599W        W 4463  25.605   0.140  21.607
 3600W        W 4464  25.992  27.970  21.277
 3601W        W 4465  28.664  27.817  18.873
 3602W        W 4466  28.799  28.820  20.972
 3603W        W 4467  26.795  28.768  18.495
 3604W        W 4468  26.665  27.040  19.380
 3605W        W 4469  26.254  26.872  19.673
 3606W        W 4470  27.311  27.518  18.963
 3607W        W 4471  26.992  28.703  21.400
 3608W        W 4472  25.598  26.275  21.254
 3609W        W 4473  26.293  25.482  21.171
 3610W        W 4474  28.034  26.035  20.000
 3611W        W 4475  27.820  26.705  18.664
 3612W        W 4476  28.227  26.346  21.626
 3613W        W 4477  25.650  26.051  20.802
 3614W        W 4478  25.758  28.677  21.716
 3615W        W 4479  27.321  28.027  18.825
 3616W        W 4480  25.674  26.740  20.310
 3617W        W 4481  26.534  26.799  21.577
 3618W        W 4482  28.861  26.539  19.982
 3619W        W 4483  28.738  27.441  20.698
 3620W        W 4484  27.129  26.977  19.854
 3621W        W 4485  27.687  28.246  20.220
 3622W        W 4486  26.069  27.658  20.492
 3623W        W 4487  25.426  27.169  20.199
 3624W        W 4488  26.632  27.149  21.194
 3625W        W 4489  28.672  27.079  21.469
 3626W        W 4490  26.409  28.339  19.898
 3627W        W 4491  27.558  28.096  21.014
 3628W        W 4492  26.837  26.609  20.304
 3629W        W 4493  27.038  27.496  20.004
 3630W        W 4494  27.861  28.374  21.769
 3631W        W 4495  27.243  27.496  21.788
 3632W        W 4496  27.137  27.327  21.216
 3633W        W 4497  25.502  26.693  21.772
 3634W        W 4498  28.265  28.203  21.468
 3635W        W 4499  25.990  25.828  19.416
 3636W        W 4500  26.516  28.125  20.374
 3637W        W 4501  28.771  27.903  19.740
 3638W        W 4502  28.474  26.170  20.283
 3639W        W 4503  28.846  26.349  18.408
 3640W        W 4504   0.199  27.101  20.706
 3641W        W 4505  27.011  28.670  20.556
 3642W        W 4506  28.654  28.349  18.825
 3643W        W 4507  26.102  28.989  18.787
 3644W        W 4508  26.315  28.846  19.229
 3645W        W 4509  26.115  25.906  20.630
 3646W        W 4510  28.766  26.904  20.930
 3647W        W 4511  28.112  27.186  19.503
 3648W        W 4512  28.161  27.063  18.512
 3649W        W 4513  27.315  28.169  20.553
 3650W        W 4514  27.179  26.439  19.847
 3651W        W 4515  27.669  28.530  20.755
 3652W        W 4516  28.607  27.228  19.358
 3653W        W 4517  27.655  26.036  19.201
 3654W        W 4518  26.095  28.431  18.959
 3655W        W 4519  25.582  26.132  19.501
 3656W        W 4520  28.359  26.685  20.136
 3657W        W 4521  25.883  28.316  19.933
 3658W        W 4522  27.140  28.570  18.842
 3659W        W 4523  28.550  26.767  18.289
 3660W        W 4524  25.667  28.500  20.608
 3661W        W 4525  26.442  28.194  21.098
 3662W        W 4526  26.715  27.527  19.584
 3663W        W 4527  26.596  25.945  20.439
 3664W        W 4528  28.943  25.487  19.975
 3665W        W 4529  25.987  27.542  18.398
 3666W        W 4530  26.050  26.659  18.831
 3667W        W 4531  25.987  28.281  19.439
 3668W        W 4532  27.092  27.880  19.547
 3669W        W 4533  28.373  28.661  21.197
 3670W        W 4534  27.460  26.472  18.966
 3671W        W 4535  28.687  28.859  19.802
 3672W        W 4536  28.417  26.663  21.250
 3673W        W 4537   0.073  28.247  19.505
 3674W        W 4538  27.684  27.608  20.990
 3675W        W 4539  25.404  27.363  19.046
 3676W        W 4540  26.493  27.780  20.746
 3677W        W 4541  27.786  26.877  19.172
 3678W        W 4542  27.672  27.358  19.278
 3679W        W 4543  26.060  26.774  20.687
 3680W        W 4544  25.978  26.861  21.664
 3681W        W 4545  25.753  25.791  19.855
 3682W        W 4546  27.601  26.109  20.283
 3683W        W 4547  27.362  26.124  21.585
 3684W        W 4548  27.809  25.896  18.691
 3685W        W 4549  28.839  28.587  21.424
 3686W        W 4550  27.729  25.685  21.495
 3687W        W 4551  28.710  27.955  21.549
 3688W        W 4552  28.286  26.186  21.092
 3689W        W 4553  28.009  26.205  19.520
 3690W        W 4554  28.459  27.345  21.912
 3691W        W 4555  26.104  28.718  19.678
 3692W        W 4556  26.950  26.593  18.929
 3693W        W 4557  26.434  25.945  21.493
 3694W        W 4558  28.461  26.345  19.253
 3695W        W 4559  28.800  26.774  19.157
 3696W        W 4560  26.586  28.960  21.645
 3697W        W 4561  26.543  25.645  18.853
 3698W        W 4562  28.836  25.960  19.776
 3699W        W 4563  28.897  28.347  18.371
 3700W        W 4564  25.817  27.504  20.034
 3701W        W 4565  27.923  26.060  18.181
 3702W        W 4566  28.952  28.443  19.973
 3703W        W 4567  28.960  25.613  20.819
 3704W        W 4568  27.458  26.901  21.361
 3705W        W 4569  27.766  28.249  19.025
 3706W        W 4570  27.905  27.413  21.870
 3707W        W 4571  27.449  25.661  20.057
 3708W        W 4572  26.146  26.573  20.077
 3709W        W 4573  25.782  27.646  20.924
 3710W        W 4574  27.780  28.576  19.489
 3711W        W 4575  28.962  26.340  20.456
 3712W        W 4576  27.536  28.816  21.220
 3713W        W 4577  28.743  27.726  18.377
 3714W        W 4578  27.147  27.282  19.411
 3715W        W 4579   0.041  25.869  21.274
 3716W        W 4580  27.205  27.748  20.862
 3717W        W 4581  27.355  26.699  20.285
 3718W        W 4582  28.292  26.834  19.162
 3719W        W 4583  28.502  26.581  18.773
 3720W        W 4584  28.228  28.548  19.073
 3721W        W 4585  28.237  27.973  19.884
 3722W        W 4586  28.138  27.292  19.002
 3723W        W 4587  27.472  27.547  19.730
 3724W        W 4588  28.617  27.100  19.971
 3725W        W 4589  25.896  26.319  20.452
 3726W        W 4590  28.339  27.145  21.088
 3727W        W 4591  28.875  28.837  20.322
 3728W        W 4592  26.907  28.347  19.682
 3729W        W 4593  27.998  28.895  20.948
 3730W        W 4594  27.812  26.248  20.838
 3731W        W 4595  27.171   0.044  20.901
 3732W        W 4596  28.805  25.952  19.229
 3733W        W 4597  28.348  27.158  20.428
 3734W        W 4598  25.586  26.582  20.805
 3735W        W 4599  28.439  26.298  19.784
 3736W        W 4600  28.796  26.592  21.599
 3737W        W 4601  27.701  28.096  19.716
 3738W        W 4602  26.920  28.687  19.295
 3739W        W 4603  26.139  26.064  18.708
 3740W        W 4604  27.299  25.788  20.564
 3741W        W 4605  26.286  28.761  18.352
 3742W        W 4606  26.871  27.240  18.916
 3743W        W 4607  27.281  27.817  21.376
 3744W        W 4608  27.184  26.166  19.328
 3745W        W 4609  28.389  25.850  19.534
 3746W        W 4610  28.177  28.957  19.991
 3747W        W 4611  27.457  28.696  20.312
 3748W        W 4612  26.930  27.814  20.413
 3749W        W 4613  28.708  28.417  20.626
 3750W        W 4614  26.389  26.013  19.175
 3751W        W 4615  26.962  28.317  20.193
 3752W        W 4616  26.554  26.415  18.183
 3753W        W 4617  27.090  26.779  20.754
 3754W        W 4618  28.039  25.862  20.502
 3755W        W 4619  25.541  27.601  20.456
 3756W        W 4620  27.216  27.213  18.544
 3757W        W 4621  26.576  25.985  18.456
 3758W        W 4622  27.095  26.709  19.407
 3759W        W 4623  27.947  25.770  21.023
 3760W        W 4624  26.791  27.732  21.153
 3761W        W 4625  27.602  27.388  21.450
 3762W        W 4626  28.081  27.517  21.337
 3763W        W 4627  27.407  25.744  21.918
 3764W        W 4628  26.598  26.236  20.012
 3765W        W 4629  26.167  26.271  19.645
 3766W        W 4630  25.781  28.726  19.258
 3767W        W 4631  27.422  28.338  21.452
 3768W        W 4632  26.393  27.372  18.700
 3769W        W 4633  28.016  27.285  20.001
 3770W        W 4634  27.869  26.879  20.293
 3771W        W 4635  27.408  27.643  20.408
 3772W        W 4636  27.923  27.956  18.453
 3773W        W 4637  27.533  26.071  19.746
 3774W        W 4638   0.017  26.349  18.951
 3775W        W 4639  25.713  28.852  21.199
 3776W        W 4640  26.048  28.110  20.781
 3777W        W 4641  25.411  28.956  18.984
 3778W        W 4642  27.326  26.311  20.670
 3779W        W 4643  26.863  28.188  18.600
 3780W        W 4644  28.447  28.779  18.654
 3781W        W 4645  27.699  27.206  18.761
 3782W        W 4646  26.374  26.560  19.252
 3783W        W 4647  27.560  26.297  18.435
 3784W        W 4648  27.785  27.931  21.477
 3785W        W 4649  28.169  25.936  19.076
 3786W        W 4650  25.756  25.768  18.516
 3787W        W 4651  26.862  28.149  20.797
 3788W        W 4652  26.725  27.914  19.938
 3789W        W 4653  26.511  27.767  18.347
 3790W        W 4654  25.582  28.273  19.114
 3791W        W 4655  26.305  27.268  21.619
 3792W        W 4656  26.899  25.843  21.718
 3793W        W 4657  27.451  25.927  21.058
 3794W        W 4658  26.830  25.733  19.328
 3795W        W 4659  27.730  25.548  19.099
 3796W        W 4660  25.663  25.845  20.344
 3797W        W 4661  25.797  26.625  19.502
 3798W        W 4662  28.450  25.698  20.029
 3799W        W 4663  25.946  26.270  19.147
 3800W        W 4664  28.672  26.031  20.764
 3801W        W 4665  28.843  27.203  18.347
 3802W        W 4666  26.146  26.003  20.116
 3803W        W 4667  27.403  26.434  21.165
 3804W        W 4668  25.667  26.262  18.634
 3805W        W 4669  26.290  27.553  21.167
 3806W        W 4670  27.487  27.210  20.141
 3807W        W 4671  27.438  28.934  18.596
 3808W        W 4672  25.581  27.836  18.215
 3809W        W 4673  26.472  27.910  21.516
 3810W        W 4674  25.923  27.172  21.029
 3811W        W 4675  26.848  27.383  20.758
 3812W        W 4676  28.466  25.673  21.061
 3813W        W 4677   0.007  27.329  21.160
 3814W        W 4678   0.008  27.469  18.760
 3815W        W 4679  27.840  27.707  18.913
 3816W        W 4680  28.350   0.118  18.228
 3817W        W 4681  27.552  27.021  21.867
 3818W        W 4682  26.050  27.907  21.798
 3819W        W 4683   0.102  26.192  21.703
 3820W        W 4684  28.800  26.848  20.413
 3821W        W 4685  27.034  28.922  21.871
 3822W        W 4686  26.984  25.691  18.577
 3823W        W 4687  28.420  28.135  18.403
 3824W        W 4688  26.061  26.363  21.482
 3825W        W 4689  26.925  28.199  21.320
 3826W        W 4690  28.848  26.391  21.097
 3827W        W 4691  28.028   0.020  18.827
 3828W        W 4692  28.265  27.659  20.300
 3829W        W 4693  26.501  25.924  20.965
 3830W        W 4694  27.026  27.037  21.654
 3831W        W 4695  26.436  28.020  18.999
 3832W        W 4696  28.345  27.685  19.264
 3833W        W 4697  26.073  26.324  20.950
 3834W        W 4698  27.345  28.362  19.332
 3835W        W 4699   0.036  26.915  19.639
 3836W        W 4700  27.249  25.633  21.436
 3837W        W 4701  28.175  28.182  20.342
 3838W        W 4702  28.466  28.570  20.184
 3839W        W 4703  27.558  28.421  18.571
 3840W        W 4704  25.651  28.193  21.614
 3841W        W 4705  26.391  26.407  20.505
 3842W        W 4706  26.454  25.836  19.701
 3843W        W 4707  28.026  26.398  20.404
 3844W        W 4708  26.974  27.680  18.597
 3845W        W 4709  28.764  27.569  20.169
 3846W        W 4710  26.100  28.449  21.418
 3847W        W 4711  28.455   0.038  19.151
 3848W        W 4712  26.712  26.249  19.491
 3849W        W 4713  26.220  27.419  19.713
 3850W        W 4714  26.679   0.036  20.692
 3851W        W 4715  28.610   0.049  21.461
 3852W        W 4716  27.830  27.356  20.499
 3853W        W 4717  25.839  27.029  18.529
 3854W        W 4718  28.748  28.629  19.320
 3855W        W 4719  28.594  26.066  18.774
 3856W        W 4720  26.793  25.575  21.230
 3857W        W 4721  28.523  28.360  19.716
 3858W        W 4722  28.551  26.758  19.603
 3859W        W 4723  26.714  26.673  19.776
 3860W        W 4724  26.952  26.693  21.261
 3861W        W 4725  28.084  27.967  21.050
 3862W        W 4726  26.528  26.389  21.204
 3863W        W 4727  26.614  28.795  19.711
 3864W        W 4728  26.107  28.982  21.489
 3865W        W 4729  26.358  28.265  18.512
 3866W        W 4730  28.622  28.122  19.279
 3867W        W 4731  26.194  26.782  21.193
 3868W        W 4732  28.953  26.791  18.662
 3869W        W 4733  26.844  27.699  19.116
 3870W        W 4734  27.820  27.129  21.035
 3871W        W 4735  27.609  26.741  20.753
 3872W        W 4736  26.341  27.258  20.736
 3873W        W 4737  28.427  28.856  20.617
 3874W        W 4738  28.209  25.822  21.498
 3875W        W 4739  25.947  25.873  21.193
 3876W        W 4740  26.425  26.935  20.338
 3877W        W 4741  26.822  26.785  18.455
 3878W        W 4742  25.661  28.339  21.112
 3879W        W 4743  26.990  27.107  20.345
 3880W        W 4744  27.009  26.301  18.497
 3881W        W 4745  26.152  27.043  19.207
 3882W        W 4746  25.714   0.007  20.702
 3883W        W 4747  28.598  27.138  18.821
 3884W        W 4748  28.640  26.095  21.483
 3885W        W 4749  28.118  28.163  19.414
 3886W        W 4750  25.576  27.206  21.758
 3887W        W 4751  28.657  25.538  18.706
 3888W        W 4752  28.221  28.055  18.893
 3889W        W 4753  27.308  26.977  19.009
 3890W        W 4754  28.364  25.823  18.378
 3891W        W 4755  28.512  26.507  20.690
 3892W        W 4756  25.799  27.010  19.871
 3893W        W 4757  26.363  27.917  19.539
 3894W        W 4758  28.049  26.696  19.615
 3895W        W 4759  27.060  26.142  20.261
 3896W        W 4760  28.975  27.936  20.625
 3897W        W 4761  28.866  25.847  20.322
 3898W        W 4762  25.595  28.724  19.742
 3899W        W 4763  25.949  27.858  19.144
 3900W        W 4764  26.047  26.018  21.866
 3901W        W 4765  27.083  28.418  21.833
 3902W        W 4766  28.978  27.428  19.702
 3903W        W 4767  28.281  27.591  18.594
 3904W        W 4768  27.637   0.080  20.638
 3905W        W 4769  28.236  27.790  21.755
 3906W        W 4770  27.209  25.546  19.021
 3907W        W 4771  27.731  26.498  19.965
 3908W        W 4772  25.783  28.061  20.357
 3909W        W 4773  26.834  26.076  18.933
 3910W        W 4774  26.769  27.474  21.586
 3911W        W 4775  27.576  26.506  19.467
 3912W        W 4776  27.831  27.899  20.595
 3913W        W 4777  26.067  28.615  20.919
 3914W        W 4778  26.585  28.423  21.643
 3915W        W 4779  26.504  26.425  18.705
 3916W        W 4780  27.983  26.419  19.057
 3917W        W 4781  27.886  28.430  21.220
 3918W        W 4782  26.640  27.154  19.921
 3919W        W 4783  26.201  28.930  20.537
 3920W        W 4784  28.830  28.867  18.321
 3921W        W 4785  25.866  27.512  21.463
 3922W        W 4786  27.798  27.749  20.091
 3923W        W 4787  26.351  27.515  19.202
 3924W        W 4788  26.526  28.530  20.712
 3925W        W 4789  27.003  25.933  19.784
 3926W        W 4790  25.545  27.850  18.804
 3927W        W 4791  27.316  26.723  18.534
 3928W        W 4792  25.786  27.358  19.418
 3929W        W 4793  26.969  26.074  21.226
 3930W        W 4794  28.899  25.839  18.362
 3931W        W 4795  28.917  27.498  21.682
 3932W        W 4796  27.503  28.766  21.743
 3933W        W 4797   0.019  27.849  21.131
 3934W        W 4798  28.401  28.622  21.704
 3935W        W 4799  26.259   0.025  20.045
 3936W        W 4800  28.989  27.723  19.275
 3937W        W 4801  27.624  27.009  19.670
 3938W        W 4802  27.343  25.652  19.506
 3939W        W 4803  26.485  28.394  19.384
 3940W        W 4804  26.824  26.306  20.768
 3941W        W 4805  26.938  25.635  20.198
 3942W        W 4806  25.686  28.627  18.698
 3943W        W 4807  27.534  27.862  19.293
 3944W        W 4808  26.498  28.706  21.199
 3945W        W 4809  25.901  27.396  18.900
 3946W        W 4810  25.703  26.316  19.969
 3947W        W 4811  27.290  27.963  20.021
 3948W        W 4812  25.589  25.912  19.022
 3949W        W 4813  28.119  26.815  20.748
 3950W        W 4814  28.145  26.275  18.583
 3951W        W 4815  28.663  28.080  20.216
 3952W        W 4816  27.386  28.470  19.848
 3953W        W 4817  26.596  28.521  18.898
 3954W        W 4818  27.929  25.560  18.314
 3955W        W 4819  25.803  28.812  20.197
 3956W        W 4820  27.756  26.560  21.695
 3957W        W 4821  25.881  26.497  22.045
 3958W        W 4822  25.679  26.928  19.070
 3959W        W 4823  26.519  26.894  18.890
 3960W        W 4824  28.004  27.020  21.529
 3961W        W 4825  26.531  27.511  20.282
 3962W        W 4826  27.870  25.718  19.584
 3963W        W 4827  27.040  28.814  20.006
 3964W        W 4828  28.197  28.409  20.793
 3965W        W 4829  28.041  28.455  19.909
 3966W        W 4830  27.949  27.667  19.586
 3967W        W 4831  27.324  26.001  18.799
 3968W        W 4832   0.004  25.550  19.456
 3969W        W 4833  26.745  27.276  18.328
 3970W        W 4834  28.923  26.393  19.482
 3971W        W 4835  27.530  27.616  18.507
 3972W        W 4836  28.544  27.656  21.153
 3973W        W 4837  28.059  28.458  18.594
 3974W        W 4838  26.798  26.339  21.643
 3975W        W 4839  26.576  26.777  20.827
 3976W        W 4840  28.633  28.215  21.100
 3977W        W 4841  27.824  26.164  21.344
 3978W        W 4842  25.625  26.805  21.278
 3979W        W 4843  27.372  27.233  20.739
 3980W        W 4844  25.850  27.835  19.649
 3981W        W 4845  25.925  27.177  20.409
 3982W        W 4846  28.184  27.528  20.802
 3983W        W 4847  27.992  28.843  21.499
 3984W        W 4848  27.900  26.639  21.188
 3985W        W 4849  28.258  28.755  19.533
 3986W        W 4850  27.211  28.484  20.987
 3987W        W 4851  26.593  28.695  20.237
 3988W        W 4852  28.468  27.941  20.694
 3989W        W 4853  27.429  28.008  21.869
 3990W        W 4854  26.193  27.880  20.039
 3991W        W 4855  28.427  27.519  19.759
 3992W        W 4856  27.982  28.690  20.387
 3993W        W 4857  26.131  28.451  20.369
 3994W        W 4858  27.240  26.590  21.759
 3995W        W 4859  27.617  28.745  19.036
 3996W        W 4860  26.926  27.931  21.761
 3997W        W 4861  26.910  28.194  19.141
 3998W        W 4862  26.334  26.924  18.418
 3999W        W 4863  25.662   0.152  25.273
 4000W        W 4864  26.081  28.145  24.920
 4001W        W 4865  28.624  27.698  22.563
 4002W        W 4866  28.866  28.805  24.494
 4003W        W 4867  26.589  28.724  22.090
 4004W        W 4868  26.720  26.990  22.962
 4005W        W 4869  26.288  26.937  23.266
 4006W        W 4870  27.291  27.547  22.642
 4007W        W 4871  27.129  28.729  24.864
 4008W        W 4872  25.844  26.412  25.003
 4009W        W 4873  26.262  25.607  24.747
 4010W        W 4874  28.054  25.955  23.627
 4011W        W 4875  27.730  26.739  22.314
 4012W        W 4876  28.204  26.455  25.218
 4013W        W 4877  25.837  25.963  24.527
 4014W        W 4878  25.782  28.659  25.355
 4015W        W 4879  27.338  28.037  22.459
 4016W        W 4880  25.866  26.707  24.022
 4017W        W 4881  26.519  26.924  25.400
 4018W        W 4882  28.763  26.550  23.677
 4019W        W 4883  28.798  27.375  24.307
 4020W        W 4884  27.145  26.923  23.598
 4021W        W 4885  27.681  28.341  23.790
 4022W        W 4886  26.163  27.726  24.190
 4023W        W 4887  25.496  27.127  23.890
 4024W        W 4888  26.637  27.261  24.883
 4025W        W 4889  28.787  27.008  25.158
 4026W        W 4890  26.364  28.364  23.486
 4027W        W 4891  27.512  28.160  24.628
 4028W        W 4892  26.886  26.562  23.877
 4029W        W 4893  26.967  27.616  23.512
 4030W        W 4894  27.871  28.403  25.374
 4031W        W 4895  27.239  27.522  25.355
 4032W        W 4896  27.196  27.361  24.860
 4033W        W 4897  25.523  26.640  25.400
 4034W        W 4898  28.314  28.266  25.036
 4035W        W 4899  25.939  25.814  23.004
 4036W        W 4900  26.522  28.128  24.104
 4037W        W 4901  28.697  27.861  23.289
 4038W        W 4902  28.529  26.044  23.812
 4039W        W 4903  28.650  26.304  22.002
 4040W        W 4904   0.192  26.995  24.357
 4041W        W 4905  26.968  28.891  24.088
 4042W        W 4906  28.712  28.287  22.371
 4043W        W 4907  25.947  28.939  22.521
 4044W        W 4908  26.275  28.786  22.900
 4045W        W 4909  26.293  25.790  24.275
 4046W        W 4910  28.769  26.729  24.568
 4047W        W 4911  28.035  27.171  23.155
 4048W        W 4912  28.116  27.073  22.210
 4049W        W 4913  27.428  28.083  24.137
 4050W        W 4914  27.150  26.363  23.433
 4051W        W 4915  27.821  28.403  24.307
 4052W        W 4916  28.661  27.346  22.959
 4053W        W 4917  27.678  25.956  22.829
 4054W        W 4918  26.007  28.410  22.569
 4055W        W 4919  25.627  26.123  23.238
 4056W        W 4920  28.179  26.855  23.592
 4057W        W 4921  25.852  28.287  23.540
 4058W        W 4922  27.040  28.662  22.322
 4059W        W 4923  28.381  26.800  21.841
 4060W        W 4924  25.667  28.481  24.228
 4061W        W 4925  26.524  28.156  24.654
 4062W        W 4926  26.678  27.510  23.070
 4063W        W 4927  26.662  26.135  24.118
 4064W        W 4928  28.970  25.641  23.618
 4065W        W 4929  25.983  27.421  21.998
 4066W        W 4930  26.141  26.650  22.455
 4067W        W 4931  26.077  28.299  23.067
 4068W        W 4932  26.915  27.992  23.160
 4069W        W 4933  28.448  28.704  24.797
 4070W        W 4934  27.419  26.389  22.624
 4071W        W 4935  28.738  28.858  23.469
 4072W        W 4936  28.387  26.824  24.897
 4073W        W 4937   0.088  28.223  23.168
 4074W        W 4938  27.708  27.658  24.629
 4075W        W 4939  25.463  27.253  22.792
 4076W        W 4940  26.677  27.737  24.385
 4077W        W 4941  27.660  26.827  22.825
 4078W        W 4942  27.576  27.309  22.995
 4079W        W 4943  26.109  26.883  24.444
 4080W        W 4944  25.999  26.815  25.368
 4081W        W 4945  25.949  25.726  23.501
 4082W        W 4946  27.673  26.100  23.953
 4083W        W 4947  27.424  26.147  25.194
 4084W        W 4948  27.907  25.931  22.352
 4085W        W 4949  28.940  28.693  25.023
 4086W        W 4950  27.723  25.715  25.226
 4087W        W 4951  28.847  28.168  25.192
 4088W        W 4952  28.342  26.219  24.792
 4089W        W 4953  28.029  26.145  23.140
 4090W        W 4954  28.369  27.333  25.340
 4091W        W 4955  26.048  28.743  23.356
 4092W        W 4956  26.931  26.547  22.731
 4093W        W 4957  26.476  25.895  25.154
 4094W        W 4958  28.399  26.422  22.874
 4095W        W 4959  28.733  26.827  22.755
 4096W        W 4960  26.585  28.931  25.406
 4097W        W 4961  26.526  25.667  22.479
 4098W        W 4962  28.807  26.068  23.386
 4099W        W 4963  28.800  28.345  21.875
 4100W        W 4964  25.801  27.541  23.699
 4101W        W 4965  27.846  26.043  21.835
 4102W        W 4966  28.980  28.429  23.658
 4103W        W 4967  28.819  25.808  24.192
 4104W        W 4968  27.541  26.957  24.914
 4105W        W 4969  27.762  28.218  22.735
 4106W        W 4970  27.942  27.693  25.422
 4107W        W 4971  27.649  25.634  23.713
 4108W        W 4972  26.275  26.569  23.660
 4109W        W 4973  25.846  27.789  24.600
 4110W        W 4974  27.817  28.658  23.042
 4111W        W 4975  28.720  26.378  24.169
 4112W        W 4976  27.592  28.899  24.716
 4113W        W 4977  28.665  27.852  22.061
 4114W        W 4978  27.108  27.251  23.175
 4115W        W 4979  28.910  25.639  24.719
 4116W        W 4980  27.214  27.719  24.476
 4117W        W 4981  27.424  26.562  23.844
 4118W        W 4982  28.171  26.857  22.691
 4119W        W 4983  28.486  26.650  22.342
 4120W        W 4984  28.412  28.580  22.684
 4121W        W 4985  28.221  27.987  23.458
 4122W        W 4986  28.189  27.362  22.691
 4123W        W 4987  27.450  27.423  23.528
 4124W        W 4988  28.694  27.061  23.575
 4125W        W 4989  26.085  26.257  24.182
 4126W        W 4990  28.518  27.320  24.833
 4127W        W 4991  28.917  28.846  23.968
 4128W        W 4992  26.949  28.428  23.440
 4129W        W 4993  28.048  28.868  24.488
 4130W        W 4994  27.847  26.288  24.414
 4131W        W 4995  27.169   0.120  24.503
 4132W        W 4996  28.658  25.959  22.895
 4133W        W 4997  28.363  27.216  23.935
 4134W        W 4998  25.721  26.536  24.509
 4135W        W 4999  28.358  26.376  23.435
 4136W        W 5000  28.757  26.486  25.044
 4137W        W 5001  27.759  28.164  23.301
 4138W        W 5002  27.070  28.718  23.051
 4139W        W 5003  26.140  26.130  22.354
 4140W        W 5004  27.225  25.587  24.025
 4141W        W 5005  26.102  28.920  22.019
 4142W        W 5006  26.819  27.344  22.575
 4143W        W 5007  27.336  27.846  24.978
 4144W        W 5008  27.215  26.062  22.984
 4145W        W 5009  28.398  25.745  23.299
 4146W        W 5010  28.248  28.994  23.614
 4147W        W 5011  27.442  28.772  23.915
 4148W        W 5012  27.010  27.829  23.998
 4149W        W 5013  28.821  28.377  24.166
 4150W        W 5014  26.381  26.013  22.810
 4151W        W 5015  27.072  28.383  23.934
 4152W        W 5016  26.362  26.432  21.911
 4153W        W 5017  27.133  26.865  24.197
 4154W        W 5018  28.059  25.650  24.058
 4155W        W 5019  25.641  27.548  24.199
 4156W        W 5020  27.227  27.209  22.222
 4157W        W 5021  26.544  25.967  22.055
 4158W        W 5022  27.204  26.752  23.115
 4159W        W 5023  27.928  25.795  24.547
 4160W        W 5024  26.844  27.743  24.869
 4161W        W 5025  27.666  27.423  25.090
 4162W        W 5026  28.124  27.614  24.939
 4163W        W 5027  27.451  25.891  25.653
 4164W        W 5028  26.682  26.198  23.593
 4165W        W 5029  26.220  26.211  23.276
 4166W        W 5030  25.753  28.686  22.937
 4167W        W 5031  27.433  28.367  25.091
 4168W        W 5032  26.343  27.355  22.377
 4169W        W 5033  27.935  27.322  23.657
 4170W        W 5034  28.011  26.848  24.081
 4171W        W 5035  27.477  27.582  24.038
 4172W        W 5036  27.836  28.046  22.217
 4173W        W 5037  27.536  26.021  23.420
 4174W        W 5038  28.858  26.343  22.611
 4175W        W 5039  25.692  28.830  24.869
 4176W        W 5040  26.074  28.199  24.396
 4177W        W 5041  25.424  28.851  22.576
 4178W        W 5042  27.325  26.328  24.290
 4179W        W 5043  26.851  28.174  22.229
 4180W        W 5044  28.435  28.699  22.199
 4181W        W 5045  27.698  27.225  22.491
 4182W        W 5046  26.417  26.562  22.896
 4183W        W 5047  27.527  26.314  22.108
 4184W        W 5048  27.820  28.013  25.034
 4185W        W 5049  28.175  25.783  22.807
 4186W        W 5050  25.711  25.682  22.082
 4187W        W 5051  26.982  28.169  24.400
 4188W        W 5052  26.711  28.033  23.644
 4189W        W 5053  26.498  27.682  21.988
 4190W        W 5054  25.486  28.338  22.626
 4191W        W 5055  26.229  27.320  25.222
 4192W        W 5056  26.973  25.981  25.396
 4193W        W 5057  27.455  25.963  24.651
 4194W        W 5058  26.811  25.667  22.969
 4195W        W 5059  27.742  25.453  22.756
 4196W        W 5060  25.858  25.815  24.016
 4197W        W 5061  25.871  26.595  23.254
 4198W        W 5062  28.519  25.536  23.837
 4199W        W 5063  25.959  26.307  22.819
 4200W        W 5064  28.351  26.017  24.314
 4201W        W 5065  28.863  27.023  21.941
 4202W        W 5066  26.290  25.971  23.792
 4203W        W 5067  27.448  26.460  24.777
 4204W        W 5068  25.619  26.128  22.299
 4205W        W 5069  26.329  27.691  24.809
 4206W        W 5070  27.543  27.067  23.922
 4207W        W 5071  27.448  28.958  22.254
 4208W        W 5072  25.569  27.734  21.834
 4209W        W 5073  26.531  28.046  25.165
 4210W        W 5074  25.996  27.302  24.747
 4211W        W 5075  26.919  27.285  24.426
 4212W        W 5076  28.388  25.690  24.755
 4213W        W 5077   0.018  27.257  24.781
 4214W        W 5078  28.952  27.457  22.222
 4215W        W 5079  27.809  27.713  22.660
 4216W        W 5080  28.295   0.093  21.877
 4217W        W 5081  27.498  27.036  25.437
 4218W        W 5082  26.089  28.040  25.453
 4219W        W 5083   0.093  26.162  25.356
 4220W        W 5084  28.730  26.885  24.081
 4221W        W 5085  27.091  28.905  25.355
 4222W        W 5086  26.977  25.673  22.215
 4223W        W 5087  28.298  28.224  22.034
 4224W        W 5088  26.319  26.401  25.219
 4225W        W 5089  26.972  28.237  24.908
 4226W        W 5090  28.821  26.161  24.615
 4227W        W 5091  28.154   0.028  22.473
 4228W        W 5092  28.246  27.702  23.887
 4229W        W 5093  26.571  26.035  24.637
 4230W        W 5094  26.983  27.071  25.219
 4231W        W 5095  26.359  28.020  22.723
 4232W        W 5096  28.302  27.775  22.971
 4233W        W 5097  26.260  26.441  24.657
 4234W        W 5098  27.339  28.258  23.049
 4235W        W 5099   0.034  26.981  23.171
 4236W        W 5100  27.239  25.703  25.034
 4237W        W 5101  28.148  28.214  23.927
 4238W        W 5102  28.487  28.578  23.824
 4239W        W 5103  27.492  28.441  22.163
 4240W        W 5104  25.657  28.183  25.206
 4241W        W 5105  26.444  26.601  24.155
 4242W        W 5106  26.471  25.777  23.343
 4243W        W 5107  28.157  26.363  23.956
 4244W        W 5108  27.008  27.677  22.207
 4245W        W 5109  28.745  27.563  23.813
 4246W        W 5110  26.273  28.508  25.251
 4247W        W 5111  28.567   0.092  22.791
 4248W        W 5112  26.747  26.205  23.095
 4249W        W 5113  26.258  27.457  23.437
 4250W        W 5114  26.643   0.057  24.469
 4251W        W 5115  28.599   0.038  25.165
 4252W        W 5116  27.906  27.344  24.181
 4253W        W 5117  25.775  26.991  22.214
 4254W        W 5118  28.834  28.657  22.989
 4255W        W 5119  28.395  26.125  22.457
 4256W        W 5120  26.784  25.604  24.822
 4257W        W 5121  28.581  28.363  23.346
 4258W        W 5122  28.461  26.906  23.161
 4259W        W 5123  26.727  26.662  23.362
 4260W        W 5124  27.092  26.866  24.715
 4261W        W 5125  28.108  28.061  24.615
 4262W        W 5126  26.716  26.624  24.979
 4263W        W 5127  26.605  28.800  23.341
 4264W        W 5128  26.149  28.993  25.089
 4265W        W 5129  26.146  28.408  21.956
 4266W        W 5130  28.676  28.148  22.860
 4267W        W 5131  26.261  26.881  24.936
 4268W        W 5132   0.014  26.743  22.336
 4269W        W 5133  26.853  27.849  22.671
 4270W        W 5134  27.947  27.182  24.681
 4271W        W 5135  27.609  26.762  24.389
 4272W        W 5136  26.389  27.322  24.414
 4273W        W 5137  28.452  28.962  24.175
 4274W        W 5138  28.238  25.848  25.260
 4275W        W 5139  25.935  25.894  25.049
 4276W        W 5140  26.635  27.054  24.028
 4277W        W 5141  26.785  26.707  22.012
 4278W        W 5142  25.642  28.333  24.713
 4279W        W 5143  27.062  27.314  23.921
 4280W        W 5144  27.019  26.208  22.104
 4281W        W 5145  26.199  27.057  22.775
 4282W        W 5146  25.711  28.974  24.362
 4283W        W 5147  28.583  27.169  22.410
 4284W        W 5148  28.702  25.982  25.080
 4285W        W 5149  28.185  28.279  23.030
 4286W        W 5150  25.698  27.248  25.305
 4287W        W 5151  28.660  25.671  22.367
 4288W        W 5152  28.248  28.085  22.543
 4289W        W 5153  27.203  27.025  22.694
 4290W        W 5154  28.310  25.900  22.002
 4291W        W 5155  28.300  26.555  24.415
 4292W        W 5156  25.886  27.008  23.582
 4293W        W 5157  26.409  27.921  23.230
 4294W        W 5158  28.022  26.655  23.139
 4295W        W 5159  27.141  26.084  23.865
 4296W        W 5160  28.959  27.897  24.359
 4297W        W 5161   0.034  26.140  23.851
 4298W        W 5162  25.529  28.688  23.410
 4299W        W 5163  25.829  27.941  22.769
 4300W        W 5164  26.099  25.777  25.526
 4301W        W 5165  27.309  28.462  25.581
 4302W        W 5166  28.985  27.449  23.370
 4303W        W 5167  28.185  27.643  22.258
 4304W        W 5168  27.645   0.128  24.240
 4305W        W 5169  28.429  27.842  25.290
 4306W        W 5170  27.201  25.523  22.666
 4307W        W 5171  27.836  26.433  23.560
 4308W        W 5172  25.769  28.014  23.982
 4309W        W 5173  26.892  26.024  22.592
 4310W        W 5174  26.715  27.531  25.328
 4311W        W 5175  27.581  26.408  23.107
 4312W        W 5176  27.887  27.872  24.206
 4313W        W 5177  26.135  28.628  24.686
 4314W        W 5178  26.813  28.463  25.352
 4315W        W 5179  26.586  26.379  22.384
 4316W        W 5180  27.937  26.379  22.655
 4317W        W 5181  27.891  28.495  24.835
 4318W        W 5182  26.697  27.173  23.506
 4319W        W 5183  26.215  28.852  24.214
 4320W        W 5184  28.813  28.864  21.914
 4321W        W 5185  25.869  27.693  25.106
 4322W        W 5186  27.772  27.836  23.705
 4323W        W 5187  26.190  27.566  22.907
 4324W        W 5188  26.643  28.561  24.360
 4325W        W 5189  27.025  25.841  23.409
 4326W        W 5190  25.535  27.912  22.335
 4327W        W 5191  27.208  26.697  22.282
 4328W        W 5192  25.820  27.324  23.169
 4329W        W 5193  27.004  26.172  24.898
 4330W        W 5194  28.811  25.820  21.901
 4331W        W 5195  28.850  27.549  25.172
 4332W        W 5196  27.589  28.833  25.261
 4333W        W 5197   0.101  27.871  24.850
 4334W        W 5198  28.558  28.553  25.383
 4335W        W 5199  26.294  28.990  23.727
 4336W        W 5200   0.042  27.734  22.903
 4337W        W 5201  27.636  26.915  23.395
 4338W        W 5202  27.384  25.594  23.142
 4339W        W 5203  26.598  28.388  23.031
 4340W        W 5204  26.863  26.453  24.474
 4341W        W 5205  26.749  25.728  23.812
 4342W        W 5206  25.691  28.607  22.212
 4343W        W 5207  26.616  28.638  24.887
 4344W        W 5208  25.852  27.457  22.521
 4345W        W 5209  25.872  26.233  23.677
 4346W        W 5210  27.291  28.041  23.569
 4347W        W 5211  25.497  25.772  22.671
 4348W        W 5212  28.374  27.058  24.419
 4349W        W 5213  28.083  26.398  22.128
 4350W        W 5214  28.632  28.067  23.776
 4351W        W 5215  27.452  28.600  23.418
 4352W        W 5216  26.516  28.464  22.520
 4353W        W 5217  27.906  25.551  21.970
 4354W        W 5218  25.805  28.805  23.831
 4355W        W 5219  27.704  26.586  25.247
 4356W        W 5220  25.892  26.260  25.502
 4357W        W 5221  25.740  26.792  22.767
 4358W        W 5222  26.613  26.888  22.468
 4359W        W 5223  27.994  27.010  25.178
 4360W        W 5224  26.568  27.563  23.882
 4361W        W 5225  27.875  25.669  23.229
 4362W        W 5226  27.070  28.933  23.547
 4363W        W 5227  28.343  28.476  24.341
 4364W        W 5228  28.078  28.514  23.500
 4365W        W 5229  27.872  27.657  23.232
 4366W        W 5230  27.384  25.921  22.407
 4367W        W 5231  28.986  25.597  23.098
 4368W        W 5232  26.739  27.227  22.051
 4369W        W 5233  28.794  26.525  23.160
 4370W        W 5234  27.549  27.620  22.194
 4371W        W 5235  28.579  27.842  24.780
 4372W        W 5236  27.972  28.531  22.372
 4373W        W 5237  26.781  26.489  25.498
 4374W        W 5238  26.610  26.883  24.542
 4375W        W 5239  28.782  28.307  24.679
 4376W        W 5240  27.862  26.144  24.937
 4377W        W 5241  25.718  26.895  24.897
 4378W        W 5242  27.448  27.240  24.431
 4379W        W 5243  25.900  27.835  23.277
 4380W        W 5244  26.034  27.219  24.043
 4381W        W 5245  28.272  27.567  24.443
 4382W        W 5246  28.121  28.824  25.189
 4383W        W 5247  27.935  26.641  24.783
 4384W        W 5248  28.344  28.778  23.146
 4385W        W 5249  27.308  28.587  24.383
 4386W        W 5250  26.620  28.608  23.842
 4387W        W 5251  28.475  27.990  24.261
 4388W        W 5252  27.504  27.987  25.449
 4389W        W 5253  26.200  27.919  23.710
 4390W        W 5254  28.386  27.462  23.420
 4391W        W 5255  27.986  28.753  23.976
 4392W        W 5256  26.131  28.422  23.941
 4393W        W 5257  27.191  26.612  25.191
 4394W        W 5258  27.443  28.619  22.666
 4395W        W 5259  27.000  27.984  25.366
 4396W        W 5260  26.985  28.341  22.706
 4397W        W 5261  26.297  26.943  22.051
 4398W        W 5262  25.659   0.207  28.863
 4399W        W 5263  26.039  28.062  28.488
 4400W        W 5264  28.612  27.741  26.129
 4401W        W 5265  28.807  28.880  28.186
 4402W        W 5266  26.890  28.727  25.802
 4403W        W 5267  26.755  26.965  26.638
 4404W        W 5268  26.431  26.655  27.091
 4405W        W 5269  27.264  27.616  26.246
 4406W        W 5270  27.055  28.679  28.504
 4407W        W 5271  25.726  26.384  28.551
 4408W        W 5272  26.297  25.477  28.411
 4409W        W 5273  28.121  26.050  27.303
 4410W        W 5274  27.722  26.747  25.866
 4411W        W 5275  28.235  26.373  28.802
 4412W        W 5276  25.784  26.045  28.165
 4413W        W 5277  25.791  28.733   0.046
 4414W        W 5278  27.397  28.043  25.961
 4415W        W 5279  25.564  26.745  27.584
 4416W        W 5280  26.514  26.753  28.655
 4417W        W 5281  28.854  26.630  27.292
 4418W        W 5282  28.717  27.556  27.897
 4419W        W 5283  27.210  26.938  27.049
 4420W        W 5284  27.713  28.339  27.441
 4421W        W 5285  26.112  27.652  27.717
 4422W        W 5286  25.412  27.193  27.372
 4423W        W 5287  26.634  27.205  28.389
 4424W        W 5288  28.872  27.020  28.748
 4425W        W 5289  26.426  28.320  27.166
 4426W        W 5290  27.513  28.154  28.216
 4427W        W 5291  26.948  26.659  27.437
 4428W        W 5292  27.022  27.487  27.191
 4429W        W 5293  27.853  28.355   0.023
 4430W        W 5294  27.016  27.577  28.908
 4431W        W 5295  27.177  27.308  28.487
 4432W        W 5296  25.532  26.640   0.036
 4433W        W 5297  28.302  28.197  28.655
 4434W        W 5298  25.912  25.747  26.603
 4435W        W 5299  26.455  28.043  27.624
 4436W        W 5300  28.875  28.023  27.025
 4437W        W 5301  28.543  26.284  27.548
 4438W        W 5302  28.601  26.317  25.524
 4439W        W 5303   0.242  27.031  27.976
 4440W        W 5304  26.962  28.848  27.633
 4441W        W 5305  28.801  28.218  26.166
 4442W        W 5306  26.039   0.076  26.144
 4443W        W 5307  26.366  28.963  26.582
 4444W        W 5308  26.181  25.775  28.003
 4445W        W 5309  28.606  27.047  28.027
 4446W        W 5310  28.120  27.248  26.712
 4447W        W 5311  27.952  27.213  25.658
 4448W        W 5312  27.339  28.137  27.709
 4449W        W 5313  27.305  26.417  27.168
 4450W        W 5314  27.759  28.514  27.928
 4451W        W 5315  28.612  27.356  26.491
 4452W        W 5316  27.704  26.080  26.475
 4453W        W 5317  26.250  28.600  26.203
 4454W        W 5318  25.665  26.188  26.723
 4455W        W 5319  28.113  26.946  27.174
 4456W        W 5320  25.895  28.283  27.066
 4457W        W 5321  27.270  28.519  26.099
 4458W        W 5322  28.420  26.840  25.481
 4459W        W 5323  25.697  28.599  27.878
 4460W        W 5324  26.467  28.121  28.194
 4461W        W 5325  26.661  27.454  26.800
 4462W        W 5326  26.589  26.002  27.751
 4463W        W 5327   0.040  25.717  27.212
 4464W        W 5328  26.000  27.540  25.633
 4465W        W 5329  25.803  26.514  25.960
 4466W        W 5330  26.022  28.206  26.520
 4467W        W 5331  27.038  27.807  26.760
 4468W        W 5332  28.440  28.675  28.491
 4469W        W 5333  27.433  26.455  26.239
 4470W        W 5334  28.667  28.910  26.968
 4471W        W 5335  28.475  26.751  28.489
 4472W        W 5336   0.041  28.312  26.619
 4473W        W 5337  27.623  27.616  28.163
 4474W        W 5338  25.450  27.304  26.385
 4475W        W 5339  26.618  27.664  27.961
 4476W        W 5340  27.761  26.884  26.373
 4477W        W 5341  27.644  27.399  26.523
 4478W        W 5342  26.063  26.764  27.847
 4479W        W 5343  26.040  26.648  28.892
 4480W        W 5344  25.975  25.669  27.128
 4481W        W 5345  27.628  26.172  27.515
 4482W        W 5346  27.362  26.197  28.804
 4483W        W 5347  27.747  26.201  25.942
 4484W        W 5348  28.923  28.645  28.663
 4485W        W 5349  27.777  25.682  28.719
 4486W        W 5350  28.773  28.050  28.837
 4487W        W 5351  28.330  26.178  28.344
 4488W        W 5352  28.087  26.196  26.796
 4489W        W 5353  28.478  27.258   0.021
 4490W        W 5354  26.143  28.742  27.010
 4491W        W 5355  26.920  26.519  26.362
 4492W        W 5356  26.435  25.848  28.776
 4493W        W 5357  28.458  26.447  26.530
 4494W        W 5358  28.818  26.899  26.360
 4495W        W 5359  26.600   0.014   0.058
 4496W        W 5360  26.594  25.519  26.261
 4497W        W 5361  28.762  26.140  27.080
 4498W        W 5362  28.981  28.364  25.687
 4499W        W 5363  25.785  27.537  27.264
 4500W        W 5364  27.868  26.149  25.460
 4501W        W 5365  28.907  28.511  27.219
 4502W        W 5366  28.902  25.751  27.818
 4503W        W 5367  27.348  26.929  28.824
 4504W        W 5368  27.759  28.301  26.271
 4505W        W 5369  28.002  27.438   0.039
 4506W        W 5370  27.735  25.696  27.267
 4507W        W 5371  26.012  26.570  27.362
 4508W        W 5372  25.803  27.670  28.148
 4509W        W 5373  27.608  28.821  26.886
 4510W        W 5374  28.839  26.630  27.815
 4511W        W 5375  27.536  28.816  28.442
 4512W        W 5376  28.688  27.583  25.659
 4513W        W 5377  27.146  27.321  26.683
 4514W        W 5378   0.057  25.743  28.334
 4515W        W 5379  27.144  27.813  28.069
 4516W        W 5380  27.509  26.720  27.532
 4517W        W 5381  28.295  26.897  26.309
 4518W        W 5382  28.624  26.683  25.928
 4519W        W 5383  28.445  28.502  26.408
 4520W        W 5384  28.183  28.073  27.147
 4521W        W 5385  27.994  27.295  26.166
 4522W        W 5386  27.485  27.541  26.999
 4523W        W 5387  28.564  27.225  27.176
 4524W        W 5388  25.805  26.305  27.736
 4525W        W 5389  28.469  27.268  28.497
 4526W        W 5390  28.878  28.884  27.631
 4527W        W 5391  26.899  28.293  26.860
 4528W        W 5392  28.019  28.848  28.253
 4529W        W 5393  27.910  26.190  28.012
 4530W        W 5394  27.083   0.058  28.119
 4531W        W 5395  28.690  25.983  26.546
 4532W        W 5396  28.369  27.295  27.637
 4533W        W 5397  25.633  26.637  28.104
 4534W        W 5398  28.381  26.503  27.097
 4535W        W 5399  28.870  26.496  28.717
 4536W        W 5400  27.693  28.198  26.955
 4537W        W 5401  27.040  28.775  26.712
 4538W        W 5402  26.093  26.078  25.952
 4539W        W 5403  27.380  25.725  27.655
 4540W        W 5404  26.130  28.974  25.624
 4541W        W 5405  26.461  27.212  26.276
 4542W        W 5406  27.329  27.825  28.571
 4543W        W 5407  27.203  26.174  26.644
 4544W        W 5408  28.393  25.792  26.921
 4545W        W 5409  28.139   0.042  27.043
 4546W        W 5410  27.456  28.768  27.540
 4547W        W 5411  26.936  27.815  27.591
 4548W        W 5412  28.664  28.477  27.878
 4549W        W 5413  26.342  25.942  26.414
 4550W        W 5414  26.907  28.302  27.390
 4551W        W 5415  26.276  26.549  25.717
 4552W        W 5416  27.160  26.786  27.932
 4553W        W 5417  28.014  25.621  27.701
 4554W        W 5418  25.527  27.594  27.719
 4555W        W 5419  27.087  27.198  25.709
 4556W        W 5420  26.534  26.054  25.671
 4557W        W 5421  27.265  26.872  26.500
 4558W        W 5422  28.034  25.753  28.271
 4559W        W 5423  26.813  27.689  28.444
 4560W        W 5424  27.528  27.435  28.852
 4561W        W 5425  27.973  27.444  28.521
 4562W        W 5426  27.450  25.792   0.123
 4563W        W 5427  26.687  26.237  27.268
 4564W        W 5428  26.177  26.126  26.894
 4565W        W 5429  25.857  28.729  26.539
 4566W        W 5430  27.409  28.337  28.713
 4567W        W 5431  26.275  27.658  26.063
 4568W        W 5432  28.072  27.441  27.225
 4569W        W 5433  27.970  26.975  27.672
 4570W        W 5434  27.392  27.599  27.636
 4571W        W 5435  27.884  28.085  25.781
 4572W        W 5436  27.615  26.078  26.977
 4573W        W 5437  28.923  26.394  26.311
 4574W        W 5438  25.769  28.842  28.518
 4575W        W 5439  25.983  28.134  27.973
 4576W        W 5440  25.485  28.906  26.199
 4577W        W 5441  27.380  26.296  27.978
 4578W        W 5442  26.919  28.218  25.840
 4579W        W 5443  28.658  28.672  25.961
 4580W        W 5444  27.473  27.169  26.068
 4581W        W 5445  26.454  26.526  26.601
 4582W        W 5446  27.394  26.415  25.632
 4583W        W 5447  27.873  27.893  28.778
 4584W        W 5448  28.211  25.908  26.372
 4585W        W 5449  25.653  25.798  25.781
 4586W        W 5450  26.867  28.231  27.897
 4587W        W 5451  26.698  27.881  27.148
 4588W        W 5452  26.547  27.896  25.675
 4589W        W 5453  25.562  28.395  26.226
 4590W        W 5454  26.133  27.149  28.650
 4591W        W 5455  26.930  25.923  28.911
 4592W        W 5456  27.534  25.832  28.173
 4593W        W 5457  26.858  25.592  26.761
 4594W        W 5458  27.803  25.734  26.113
 4595W        W 5459  25.834  25.806  27.619
 4596W        W 5460  25.947  26.604  26.845
 4597W        W 5461  28.548  25.743  27.420
 4598W        W 5462  26.025  26.343  26.401
 4599W        W 5463  28.384  25.937  27.890
 4600W        W 5464  28.872  27.086  25.652
 4601W        W 5465  26.213  26.089  27.422
 4602W        W 5466  27.453  26.560  28.442
 4603W        W 5467  25.414  26.254  25.732
 4604W        W 5468  26.291  27.614  28.353
 4605W        W 5469  27.633  27.203  27.358
 4606W        W 5470  27.375  28.951  25.785
 4607W        W 5471  25.558  27.796  25.516
 4608W        W 5472  26.524  28.027  28.704
 4609W        W 5473  25.851  27.135  28.173
 4610W        W 5474  27.018  27.317  27.997
 4611W        W 5475  28.536  25.649  28.296
 4612W        W 5476  28.954  27.327  28.297
 4613W        W 5477  28.943  27.352  26.070
 4614W        W 5478  27.787  27.775  26.180
 4615W        W 5479  28.370  28.974  25.638
 4616W        W 5480  27.700  27.049   0.175
 4617W        W 5481  26.124  27.909   0.027
 4618W        W 5482   0.134  26.116  28.946
 4619W        W 5483  28.447  26.806  27.540
 4620W        W 5484  27.092  28.965  28.934
 4621W        W 5485  26.956  25.743  25.856
 4622W        W 5486  28.554  28.082  25.725
 4623W        W 5487  26.260  26.283  28.579
 4624W        W 5488  26.969  28.185  28.405
 4625W        W 5489  28.826  26.191  28.113
 4626W        W 5490  28.158  28.847  26.131
 4627W        W 5491  28.274  27.786  27.549
 4628W        W 5492  26.567  25.952  28.280
 4629W        W 5493  26.851  27.087  28.876
 4630W        W 5494  26.515  28.129  26.177
 4631W        W 5495  28.215  27.680  26.436
 4632W        W 5496  26.246  26.304  28.044
 4633W        W 5497  27.374  28.412  26.606
 4634W        W 5498   0.008  27.029  26.971
 4635W        W 5499  27.287  25.676  28.599
 4636W        W 5500  28.194  28.323  27.620
 4637W        W 5501  28.454  28.698  27.393
 4638W        W 5502  27.743  28.615  25.857
 4639W        W 5503  25.693  28.242  28.825
 4640W        W 5504  26.475  26.535  27.632
 4641W        W 5505  26.539  25.756  27.149
 4642W        W 5506  28.051  26.472  27.607
 4643W        W 5507  27.022  27.706  25.804
 4644W        W 5508  28.784  27.638  27.389
 4645W        W 5509  26.177  28.388  28.879
 4646W        W 5510  28.394   0.063  26.553
 4647W        W 5511  26.688  26.091  26.777
 4648W        W 5512  26.233  27.363  27.068
 4649W        W 5513  26.588   0.121  27.876
 4650W        W 5514  28.624   0.060  28.765
 4651W        W 5515  27.887  27.485  27.719
 4652W        W 5516  25.693  26.983  25.782
 4653W        W 5517  28.848  28.803  26.461
 4654W        W 5518  28.514  26.201  26.066
 4655W        W 5519  26.796  25.547  28.530
 4656W        W 5520  28.502  28.413  26.916
 4657W        W 5521  28.512  26.923  26.782
 4658W        W 5522  26.903  26.547  26.891
 4659W        W 5523  26.987  26.813  28.432
 4660W        W 5524  28.033  27.940  28.298
 4661W        W 5525  26.534  26.760  28.127
 4662W        W 5526  26.719  28.751  27.131
 4663W        W 5527  26.217  28.873  28.759
 4664W        W 5528  26.449  28.446  25.739
 4665W        W 5529  28.595  28.010  26.584
 4666W        W 5530  26.085  26.711  28.361
 4667W        W 5531   0.133  26.723  25.974
 4668W        W 5532  26.746  27.655  26.302
 4669W        W 5533  27.644  27.052  28.415
 4670W        W 5534  27.719  26.684  28.003
 4671W        W 5535  26.310  27.230  27.958
 4672W        W 5536  28.384  28.920  27.881
 4673W        W 5537  28.282  25.816  28.770
 4674W        W 5538  25.958  25.832  28.606
 4675W        W 5539  26.282  27.011  27.446
 4676W        W 5540  26.655  26.840  25.934
 4677W        W 5541  25.639  28.368  28.328
 4678W        W 5542  27.161  27.130  27.529
 4679W        W 5543  26.992  26.259  25.908
 4680W        W 5544  26.231  27.007  26.691
 4681W        W 5545  25.784   0.081  28.073
 4682W        W 5546  28.444  27.202  25.915
 4683W        W 5547  28.737  26.010  28.626
 4684W        W 5548  28.106  28.169  26.642
 4685W        W 5549  25.631  27.286  28.944
 4686W        W 5550  28.630  25.690  26.066
 4687W        W 5551  28.247  28.109  26.147
 4688W        W 5552  26.966  27.185  26.206
 4689W        W 5553  28.182  25.914  25.806
 4690W        W 5554  28.341  26.581  28.012
 4691W        W 5555  25.843  27.011  27.158
 4692W        W 5556  26.526  27.963  26.674
 4693W        W 5557  28.060  26.702  26.733
 4694W        W 5558  27.086  26.156  27.578
 4695W        W 5559  28.974  28.018  27.925
 4696W        W 5560   0.060  26.194  27.549
 4697W        W 5561  25.592  28.727  26.993
 4698W        W 5562  25.820  27.749  26.287
 4699W        W 5563  26.144  25.632   0.185
 4700W        W 5564  27.335  28.396   0.262
 4701W        W 5565  28.915  27.528  26.879
 4702W        W 5566  28.195  27.664  25.856
 4703W        W 5567  27.588   0.009  27.970
 4704W        W 5568  28.363  27.698  28.789
 4705W        W 5569  27.117  25.511  26.327
 4706W        W 5570  27.833  26.512  27.158
 4707W        W 5571  25.777  27.991  27.520
 4708W        W 5572  26.848  25.972  26.313
 4709W        W 5573  26.498  27.487  28.824
 4710W        W 5574  27.573  26.530  26.724
 4711W        W 5575  27.842  27.994  27.827
 4712W        W 5576  26.128  28.541  28.283
 4713W        W 5577  26.662  28.443   0.045
 4714W        W 5578  26.508  26.341  26.119
 4715W        W 5579  28.020  26.443  26.283
 4716W        W 5580  27.866  28.416  28.501
 4717W        W 5581  26.721  27.071  27.169
 4718W        W 5582  26.161  28.824  27.848
 4719W        W 5583  28.928  28.862  25.543
 4720W        W 5584  25.880  27.613  28.663
 4721W        W 5585  27.757  27.832  27.340
 4722W        W 5586  26.217  27.564  26.571
 4723W        W 5587  26.710  28.682  28.101
 4724W        W 5588  27.084  25.936  27.104
 4725W        W 5589  25.407  27.952  26.005
 4726W        W 5590  27.165  26.760  25.948
 4727W        W 5591  25.810  27.315  26.744
 4728W        W 5592  27.027  25.884  28.024
 4729W        W 5593  28.751  25.824  25.575
 4730W        W 5594  28.881  27.535  28.772
 4731W        W 5595  27.563  28.772  28.970
 4732W        W 5596   0.124  27.815  28.375
 4733W        W 5597  28.534  28.510   0.002
 4734W        W 5598  26.359   0.007  27.415
 4735W        W 5599   0.018  27.751  26.415
 4736W        W 5600  27.679  27.025  26.876
 4737W        W 5601  27.381  25.688  26.740
 4738W        W 5602  26.449  28.471  26.674
 4739W        W 5603  26.843  26.374  28.002
 4740W        W 5604  26.879  25.634  27.537
 4741W        W 5605  25.806  28.668  25.872
 4742W        W 5606  27.504  27.915  26.579
 4743W        W 5607  26.562  28.529  28.556
 4744W        W 5608  25.945  27.242  26.218
 4745W        W 5609  25.737  26.146  27.227
 4746W        W 5610  27.266  27.973  27.203
 4747W        W 5611  25.654  26.047  26.226
 4748W        W 5612  28.105  27.042  28.172
 4749W        W 5613  28.162  26.468  25.764
 4750W        W 5614  28.668  28.138  27.490
 4751W        W 5615  27.295  28.499  27.127
 4752W        W 5616  26.786  28.570  26.291
 4753W        W 5617  27.868  25.475  25.659
 4754W        W 5618  25.839  28.853  27.433
 4755W        W 5619  27.749  26.572  28.920
 4756W        W 5620  26.062  26.133   0.057
 4757W        W 5621  25.693  26.811  26.419
 4758W        W 5622  26.197  26.775  26.202
 4759W        W 5623  28.087  26.981  28.786
 4760W        W 5624  26.550  27.478  27.472
 4761W        W 5625  27.911  25.697  26.759
 4762W        W 5626  27.177   0.020  27.163
 4763W        W 5627  28.219  28.399  28.131
 4764W        W 5628  28.032  28.558  27.116
 4765W        W 5629  27.918  27.736  26.838
 4766W        W 5630  27.333  25.946  26.156
 4767W        W 5631   0.019  25.594  26.698
 4768W        W 5632  26.621  27.372  25.813
 4769W        W 5633  28.866  26.573  26.787
 4770W        W 5634  27.556  27.571  25.763
 4771W        W 5635  28.621  27.750  28.368
 4772W        W 5636  28.224  28.477  25.767
 4773W        W 5637  26.800  26.319  28.541
 4774W        W 5638  26.708  27.014  27.719
 4775W        W 5639  28.719  28.253  28.352
 4776W        W 5640  27.808  26.154  28.529
 4777W        W 5641  25.672  26.895  28.602
 4778W        W 5642  27.528  27.159  27.903
 4779W        W 5643  25.820  27.824  26.824
 4780W        W 5644  25.854  27.197  27.657
 4781W        W 5645  28.243  27.528  28.083
 4782W        W 5646  28.057  28.816  28.807
 4783W        W 5647  27.982  26.615  28.428
 4784W        W 5648  28.018  28.678  26.614
 4785W        W 5649  27.246  28.574  28.017
 4786W        W 5650  26.541  28.564  27.625
 4787W        W 5651  28.456  27.999  27.960
 4788W        W 5652  27.471  27.923   0.077
 4789W        W 5653  26.185  27.861  27.213
 4790W        W 5654  28.428  27.667  26.929
 4791W        W 5655  27.973  28.846  27.565
 4792W        W 5656  26.066  28.409  27.536
 4793W        W 5657  26.985  26.584  28.933
 4794W        W 5658  27.592  28.821  26.349
 4795W        W 5659  27.013  28.095  28.924
 4796W        W 5660  27.031  28.104  26.342
 4797W        W 5661  26.201  27.080  25.782
  29.00000  29.00000  29.00000
